<event>
 7    1  0.6103724E-006  0.2103975E+03  0.7818608E-02  0.1205247E+00
          2   -1    0    0  502    0  0.00000000000E+00  0.00000000000E+00  0.10674049744E+04  0.10674049744E+04  0.00000000000E+00 0. -1.
          1   -1    0    0  501    0 -0.00000000000E+00 -0.00000000000E+00 -0.27900249728E+03  0.27900249728E+03  0.00000000000E+00 0. -1.
         25    2    1    2    0    0 -0.20659849094E+03 -0.42297111576E+02  0.15367756849E+03  0.28933385992E+03  0.12500122133E+03 0.  0.
          2    1    1    2  501    0  0.20682027913E+03 -0.59265260693E+02 -0.15225392772E+03  0.26356831655E+03  0.00000000000E+00 0. -1.
          1    1    1    2  502    0 -0.22178818942E+00  0.10156237227E+03  0.78697883640E+03  0.79350529525E+03  0.00000000000E+00 0. -1.
         22    1    3    3    0    0 -0.13840577109E+03 -0.76857785990E+02  0.14067666157E+03  0.21178574042E+03  0.00000000000E+00 0. -1.
         22    1    3    3    0    0 -0.68192719852E+02  0.34560674414E+02  0.13000906921E+02  0.77548119497E+02  0.00000000000E+00 0. -1.
</event>
<event>
 7    1  0.6103724E-006  0.8080619E+02  0.7818608E-02  0.1424109E+00
          2   -1    0    0  502    0  0.00000000000E+00  0.00000000000E+00  0.32054209633E+03  0.32054209633E+03  0.00000000000E+00 0. -1.
          1   -1    0    0  501    0 -0.00000000000E+00 -0.00000000000E+00 -0.67924912645E+03  0.67924912645E+03  0.00000000000E+00 0. -1.
         25    2    1    2    0    0  0.10181985629E+03  0.37827592233E+02 -0.16477090013E+03  0.23359981401E+03  0.12498485390E+03 0.  0.
          2    1    1    2  501    0 -0.77691416502E+02 -0.10705003373E+02 -0.47568850247E+03  0.48211005453E+03  0.00000000000E+00 0. -1.
          1    1    1    2  502    0 -0.24128439790E+02 -0.27122588861E+02  0.28175237248E+03  0.28408135425E+03  0.00000000000E+00 0. -1.
         22    1    3    3    0    0  0.61786013607E+02 -0.20600887743E+02 -0.14669250110E+03  0.16050108390E+03  0.00000000000E+00 0. -1.
         22    1    3    3    0    0  0.40033842686E+02  0.58428479977E+02 -0.18078399034E+02  0.73098730113E+02  0.00000000000E+00 0. -1.
</event>
<event>
 7    1  0.6103724E-006  0.9274670E+02  0.7818608E-02  0.1317916E+00
          2   -1    0    0  502    0  0.00000000000E+00  0.00000000000E+00  0.59057143566E+02  0.59057143566E+02  0.00000000000E+00 0. -1.
          1   -1    0    0  501    0 -0.00000000000E+00 -0.00000000000E+00 -0.11847815300E+04  0.11847815300E+04  0.00000000000E+00 0. -1.
         25    2    1    2    0    0 -0.51897426177E+02 -0.12795381699E+03 -0.24916838438E+03  0.31108706633E+03  0.12499902774E+03 0.  0.
          2    1    1    2  501    0  0.62333406269E+02  0.43798563686E+02 -0.83472734615E+03  0.83819658203E+03  0.00000000000E+00 0. -1.
          1    1    1    2  502    0 -0.10435980093E+02  0.84155253305E+02 -0.41828655923E+02  0.94555025227E+02  0.00000000000E+00 0. -1.
         22    1    3    3    0    0  0.20261800302E+02 -0.10557877179E+03 -0.11731316919E+03  0.15912195722E+03  0.00000000000E+00 0. -1.
         22    1    3    3    0    0 -0.72159226479E+02 -0.22375045206E+02 -0.13185521519E+03  0.15196510911E+03  0.00000000000E+00 0. -1.
</event>
<event>
 7    1  0.6103724E-006  0.1196543E+03  0.7818608E-02  0.1362415E+00
          2   -1    0    0  502    0  0.00000000000E+00  0.00000000000E+00  0.28515247878E+04  0.28515247878E+04  0.00000000000E+00 0. -1.
          1   -1    0    0  501    0 -0.00000000000E+00 -0.00000000000E+00 -0.26804680371E+04  0.26804680371E+04  0.00000000000E+00 0. -1.
         25    2    1    2    0    0 -0.73185629969E+02 -0.14016226134E+03  0.37926964301E+03  0.42950263441E+03  0.12500181969E+03 0.  0.
          2    1    1    2  501    0  0.63707407955E+02  0.10113517127E+03 -0.26538414783E+04  0.26565318648E+04  0.00000000000E+00 0. -1.
          1    1    1    2  502    0  0.94782220143E+01  0.39027090068E+02  0.24456285860E+04  0.24459583257E+04  0.00000000000E+00 0. -1.
         22    1    3    3    0    0 -0.66252252165E+02 -0.14614379493E+03  0.38607585161E+03  0.41809321079E+03  0.00000000000E+00 0.  1.
         22    1    3    3    0    0 -0.69333778044E+01  0.59815335890E+01 -0.68062086038E+01  0.11409423623E+02  0.00000000000E+00 0.  1.
</event>
<event>
 7    1  0.6103724E-006  0.6029047E+02  0.7818608E-02  0.1497797E+00
          2   -1    0    0  502    0  0.00000000000E+00  0.00000000000E+00  0.12477656988E+04  0.12477656988E+04  0.00000000000E+00 0. -1.
          1   -1    0    0  501    0 -0.00000000000E+00 -0.00000000000E+00 -0.13950508549E+04  0.13950508549E+04  0.00000000000E+00 0. -1.
         25    2    1    2    0    0 -0.48910508258E+02 -0.41895256879E+01  0.63363015836E+03  0.64770303172E+03  0.12498899864E+03 0.  0.
          2    1    1    2  501    0 -0.64405898034E+01 -0.27761202096E+02 -0.13861855405E+04  0.13864784593E+04  0.00000000000E+00 0. -1.
          1    1    1    2  502    0  0.55351098061E+02  0.31950727784E+02  0.60527022601E+03  0.60863506271E+03  0.00000000000E+00 0. -1.
         22    1    3    3    0    0 -0.49167318962E+02 -0.16730003581E+02  0.63301804869E+03  0.63514499781E+03  0.00000000000E+00 0. -1.
         22    1    3    3    0    0  0.25681070420E+00  0.12540477894E+02  0.61210966545E+00  0.12558033914E+02  0.00000000000E+00 0. -1.
</event>
<event>
 7    1  0.6103724E-006  0.1220327E+03  0.7818608E-02  0.1379147E+00
          2   -1    0    0  502    0  0.00000000000E+00  0.00000000000E+00  0.10221927773E+04  0.10221927773E+04  0.00000000000E+00 0. -1.
          1   -1    0    0  501    0 -0.00000000000E+00 -0.00000000000E+00 -0.25194410451E+03  0.25194410451E+03  0.00000000000E+00 0. -1.
         25    2    1    2    0    0  0.56697886009E+02  0.13938036413E+03  0.74382318616E+03  0.76911563767E+03  0.12499758255E+03 0.  0.
          2    1    1    2  501    0 -0.60557613841E+02 -0.10530736801E+03 -0.22263019819E+03  0.25361599220E+03  0.00000000000E+00 0. -1.
          1    1    1    2  502    0  0.38597278312E+01 -0.34072996126E+02  0.24905568482E+03  0.25140525194E+03  0.00000000000E+00 0. -1.
         22    1    3    3    0    0  0.17384320112E+02 -0.83825704755E+01  0.28155998406E+03  0.28222067022E+03  0.00000000000E+00 0.  1.
         22    1    3    3    0    0  0.39313565897E+02  0.14776293461E+03  0.46226320210E+03  0.48689496745E+03  0.00000000000E+00 0.  1.
</event>
<event>
 7    1  0.6103724E-006  0.1213733E+03  0.7818608E-02  0.1416156E+00
          2   -1    0    0  502    0  0.00000000000E+00  0.00000000000E+00  0.13098215298E+03  0.13098215298E+03  0.00000000000E+00 0. -1.
          1   -1    0    0  501    0 -0.00000000000E+00 -0.00000000000E+00 -0.73044667290E+03  0.73044667290E+03  0.00000000000E+00 0. -1.
         25    2    1    2    0    0 -0.72321450550E+01 -0.13186068798E+03 -0.17100569141E+03  0.24961588105E+03  0.12500238646E+03 0.  0.
          2    1    1    2  501    0  0.22113504420E+02  0.13080596931E+02 -0.48056807197E+03  0.48125438272E+03  0.00000000000E+00 0. -1.
          1    1    1    2  502    0 -0.14881359365E+02  0.11878009105E+03  0.52109243454E+02  0.13055856211E+03  0.00000000000E+00 0. -1.
         22    1    3    3    0    0 -0.10942539218E+02 -0.15633718037E+03 -0.15284899222E+03  0.21891520630E+03  0.00000000000E+00 0. -1.
         22    1    3    3    0    0  0.37103941626E+01  0.24476492384E+02 -0.18156699187E+02  0.30700674742E+02  0.00000000000E+00 0. -1.
</event>
<event>
 7    1  0.6103724E-006  0.1359921E+03  0.7818608E-02  0.1410582E+00
          2   -1    0    0  502    0  0.00000000000E+00  0.00000000000E+00  0.66086538659E+02  0.66086538659E+02  0.00000000000E+00 0. -1.
          1   -1    0    0  501    0 -0.00000000000E+00 -0.00000000000E+00 -0.28399553187E+04  0.28399553187E+04  0.00000000000E+00 0. -1.
         25    2    1    2    0    0 -0.15204339825E+03 -0.43814480524E+02 -0.35284448429E+03  0.40640014458E+03  0.12499977505E+03 0.  0.
          2    1    1    2  501    0  0.12993042757E+03  0.34629100608E+02 -0.24546673135E+04  0.24583475569E+04  0.00000000000E+00 0. -1.
          1    1    1    2  502    0  0.22112970681E+02  0.91853799168E+01  0.33643017675E+02  0.41294155941E+02  0.00000000000E+00 0. -1.
         22    1    3    3    0    0 -0.79266344346E+02 -0.27636501399E+02 -0.30836317720E+03  0.31958532289E+03  0.00000000000E+00 0. -1.
         22    1    3    3    0    0 -0.72777053909E+02 -0.16177979125E+02 -0.44481307093E+02  0.86814821690E+02  0.00000000000E+00 0. -1.
</event>
<event>
 7    1  0.6103724E-006  0.3802325E+02  0.7818608E-02  0.1555434E+00
          2   -1    0    0  502    0  0.00000000000E+00  0.00000000000E+00  0.27026077877E+03  0.27026077877E+03  0.00000000000E+00 0. -1.
          1   -1    0    0  501    0 -0.00000000000E+00 -0.00000000000E+00 -0.33229136238E+03  0.33229136238E+03  0.00000000000E+00 0. -1.
         25    2    1    2    0    0 -0.16024898926E+01  0.48552445149E+02 -0.14516303147E+03  0.19762806604E+03  0.12499855550E+03 0.  0.
          2    1    1    2  501    0  0.25061662486E+02 -0.28537222730E+02 -0.15765743721E+03  0.16216759083E+03  0.00000000000E+00 0. -1.
          1    1    1    2  502    0 -0.23459172593E+02 -0.20015222419E+02  0.24078988507E+03  0.24275648428E+03  0.00000000000E+00 0. -1.
         22    1    3    3    0    0 -0.60751530644E+02  0.14968470477E+02 -0.47237500805E+02  0.78397608805E+02  0.00000000000E+00 0.  1.
         22    1    3    3    0    0  0.59149040751E+02  0.33583974672E+02 -0.97925530664E+02  0.11923045723E+03  0.00000000000E+00 0.  1.
</event>
<event>
 7    1  0.6103724E-006  0.5657432E+02  0.7818608E-02  0.1497686E+00
          2   -1    0    0  502    0  0.00000000000E+00  0.00000000000E+00  0.32404665512E+03  0.32404665512E+03  0.00000000000E+00 0. -1.
          1   -1    0    0  501    0 -0.00000000000E+00 -0.00000000000E+00 -0.61733269467E+02  0.61733269467E+02  0.00000000000E+00 0. -1.
         25    2    1    2    0    0  0.46396070353E+02 -0.67613379084E+02  0.13778976159E+03  0.20331385028E+03  0.12500535565E+03 0.  0.
          2    1    1    2  501    0 -0.35273666627E+02  0.39327920006E+02 -0.14787494692E+01  0.52849820712E+02  0.00000000000E+00 0. -1.
          1    1    1    2  502    0 -0.11122403726E+02  0.28285459079E+02  0.12600237353E+03  0.12961625360E+03  0.00000000000E+00 0. -1.
         22    1    3    3    0    0  0.32437257253E+02 -0.10478663082E+03  0.10442282908E+03  0.15144814588E+03  0.00000000000E+00 0. -1.
         22    1    3    3    0    0  0.13958813100E+02  0.37173251739E+02  0.33366932516E+02  0.51865704406E+02  0.00000000000E+00 0. -1.
</event>
<event>
 7    1  0.6103724E-006  0.4268180E+03  0.7818608E-02  0.1271645E+00
          2   -1    0    0  502    0  0.00000000000E+00  0.00000000000E+00  0.20447361548E+04  0.20447361548E+04  0.00000000000E+00 0. -1.
          1   -1    0    0  501    0 -0.00000000000E+00 -0.00000000000E+00 -0.27034903143E+03  0.27034903143E+03  0.00000000000E+00 0. -1.
         25    2    1    2    0    0  0.97785609070E+02 -0.41937969320E+03  0.20309536353E+03  0.49225369822E+03  0.12499849725E+03 0.  0.
          2    1    1    2  501    0 -0.11947040367E+03  0.40605187486E+03  0.23080271675E+03  0.48210081569E+03  0.00000000000E+00 0. -1.
          1    1    1    2  502    0  0.21684794598E+02  0.13327818334E+02  0.13404890430E+04  0.13407306723E+04  0.00000000000E+00 0. -1.
         22    1    3    3    0    0  0.70977704157E+02 -0.35872055012E+03  0.11774065303E+03  0.38416289376E+03  0.00000000000E+00 0.  1.
         22    1    3    3    0    0  0.26807904913E+02 -0.60659143080E+02  0.85354710497E+02  0.10809080446E+03  0.00000000000E+00 0.  1.
</event>
<event>
 7    1  0.6103724E-006  0.3566810E+02  0.7818608E-02  0.1614957E+00
          2   -1    0    0  502    0  0.00000000000E+00  0.00000000000E+00  0.52228672596E+03  0.52228672596E+03  0.00000000000E+00 0. -1.
          1   -1    0    0  501    0 -0.00000000000E+00 -0.00000000000E+00 -0.96199607336E+03  0.96199607336E+03  0.00000000000E+00 0. -1.
         25    2    1    2    0    0  0.20366043308E+02 -0.10322502145E+02  0.22162167434E+03  0.25546533018E+03  0.12500015447E+03 0.  0.
          2    1    1    2  501    0  0.16033083486E+02  0.16234118471E+02 -0.94373764353E+03  0.94401342479E+03  0.00000000000E+00 0. -1.
          1    1    1    2  502    0 -0.36399126793E+02 -0.59116163265E+01  0.28240662179E+03  0.28480404434E+03  0.00000000000E+00 0. -1.
         22    1    3    3    0    0 -0.46539534524E+02  0.23196185434E+02  0.83278242429E+02  0.98179717633E+02  0.00000000000E+00 0. -1.
         22    1    3    3    0    0  0.66905577831E+02 -0.33518687579E+02  0.13834343191E+03  0.15728561255E+03  0.00000000000E+00 0. -1.
</event>
<event>
 7    1  0.6103724E-006  0.3664200E+03  0.7818608E-02  0.1193487E+00
          2   -1    0    0  502    0  0.00000000000E+00  0.00000000000E+00  0.26065019561E+04  0.26065019561E+04  0.00000000000E+00 0. -1.
          1   -1    0    0  501    0 -0.00000000000E+00 -0.00000000000E+00 -0.37759191676E+03  0.37759191676E+03  0.00000000000E+00 0. -1.
         25    2    1    2    0    0  0.13221381944E+03 -0.28489325895E+03  0.73358605731E+03  0.80772188803E+03  0.12498592671E+03 0.  0.
          2    1    1    2  501    0 -0.12772456899E+03  0.35101191441E+03 -0.23726709189E+03  0.44251395738E+03  0.00000000000E+00 0. -1.
          1    1    1    2  502    0 -0.44892504550E+01 -0.66118655461E+02  0.17325910739E+04  0.17338580275E+04  0.00000000000E+00 0. -1.
         22    1    3    3    0    0  0.25232390893E+02 -0.17395270586E+03  0.30180944175E+03  0.34926373495E+03  0.00000000000E+00 0.  1.
         22    1    3    3    0    0  0.10698142855E+03 -0.11094055309E+03  0.43177661557E+03  0.45845815308E+03  0.00000000000E+00 0.  1.
</event>
<event>
 7    1  0.6103724E-006  0.3494517E+02  0.7818608E-02  0.1594053E+00
          2   -1    0    0  502    0  0.00000000000E+00  0.00000000000E+00  0.29180547635E+02  0.29180547635E+02  0.00000000000E+00 0. -1.
          1   -1    0    0  501    0 -0.00000000000E+00 -0.00000000000E+00 -0.39372272264E+03  0.39372272264E+03  0.00000000000E+00 0. -1.
         25    2    1    2    0    0 -0.12576852026E+02 -0.40072328378E+02 -0.21044126496E+03  0.24833959663E+03  0.12499224195E+03 0.  0.
          2    1    1    2  501    0  0.29141537001E+02  0.19527513306E+02 -0.14061920514E+03  0.14492865075E+03  0.00000000000E+00 0. -1.
          1    1    1    2  502    0 -0.16564684975E+02  0.20544815072E+02 -0.13481704902E+02  0.29635022891E+02  0.00000000000E+00 0. -1.
         22    1    3    3    0    0  0.16764704655E+02  0.33429822932E+02 -0.13088244524E+03  0.13612061878E+03  0.00000000000E+00 0.  1.
         22    1    3    3    0    0 -0.29341556681E+02 -0.73502151310E+02 -0.79558819721E+02  0.11221897786E+03  0.00000000000E+00 0.  1.
</event>
<event>
 7    1  0.6103724E-006  0.9640885E+02  0.7818608E-02  0.1356777E+00
          2   -1    0    0  502    0  0.00000000000E+00  0.00000000000E+00  0.11784973403E+03  0.11784973403E+03  0.00000000000E+00 0. -1.
          1   -1    0    0  501    0 -0.00000000000E+00 -0.00000000000E+00 -0.11492588505E+04  0.11492588505E+04  0.00000000000E+00 0. -1.
         25    2    1    2    0    0  0.29612474381E+02 -0.58551389329E+02 -0.27938654749E+03  0.31302788103E+03  0.12499779019E+03 0.  0.
          2    1    1    2  501    0 -0.32386982555E+02 -0.41020928715E+02 -0.82747194952E+03  0.82912089617E+03  0.00000000000E+00 0. -1.
          1    1    1    2  502    0  0.27745081740E+01  0.99572318044E+02  0.75449380557E+02  0.12495980731E+03  0.00000000000E+00 0. -1.
         22    1    3    3    0    0 -0.22366757211E+02 -0.27967589113E+02 -0.10296457228E+02  0.37262244972E+02  0.00000000000E+00 0. -1.
         22    1    3    3    0    0  0.51979231592E+02 -0.30583800216E+02 -0.26909009027E+03  0.27576563606E+03  0.00000000000E+00 0. -1.
</event>
<event>
 7    1  0.6103724E-006  0.2176446E+03  0.7818608E-02  0.1282145E+00
          2   -1    0    0  502    0  0.00000000000E+00  0.00000000000E+00  0.18120207422E+03  0.18120207422E+03  0.00000000000E+00 0. -1.
          1   -1    0    0  501    0 -0.00000000000E+00 -0.00000000000E+00 -0.65363805949E+03  0.65363805949E+03  0.00000000000E+00 0. -1.
         25    2    1    2    0    0 -0.12714413304E+03 -0.14236081808E+03 -0.25644354000E+03  0.34324862281E+03  0.12499637900E+03 0.  0.
          2    1    1    2  501    0 -0.44870142528E+02 -0.49900927758E+01 -0.25740915168E+03  0.26133829050E+03  0.00000000000E+00 0. -1.
          1    1    1    2  502    0  0.17201427557E+03  0.14735091086E+03  0.41416706400E+02  0.23025322039E+03  0.00000000000E+00 0. -1.
         22    1    3    3    0    0 -0.14634453903E+03 -0.94066083557E+02 -0.17594164903E+03  0.24742800174E+03  0.00000000000E+00 0. -1.
         22    1    3    3    0    0  0.19200405995E+02 -0.48294734528E+02 -0.80501890974E+02  0.95820621078E+02  0.00000000000E+00 0. -1.
</event>
<event>
 7    1  0.6103724E-006  0.1205106E+03  0.7818608E-02  0.1438254E+00
          2   -1    0    0  502    0  0.00000000000E+00  0.00000000000E+00  0.45241860028E+03  0.45241860028E+03  0.00000000000E+00 0. -1.
          1   -1    0    0  501    0 -0.00000000000E+00 -0.00000000000E+00 -0.46086550887E+03  0.46086550887E+03  0.00000000000E+00 0. -1.
         25    2    1    2    0    0 -0.13864255936E+03  0.26508084180E+02 -0.93680882200E+02  0.21053557210E+03  0.12499872654E+03 0.  0.
          2    1    1    2  501    0  0.21505545168E+02 -0.39782253524E+01 -0.29932061406E+03  0.30011855116E+03  0.00000000000E+00 0. -1.
          1    1    1    2  502    0  0.11713701419E+03 -0.22529858827E+02  0.38455458767E+03  0.40262998588E+03  0.00000000000E+00 0. -1.
         22    1    3    3    0    0  0.46709337658E+01 -0.60284265006E+01  0.22142792931E+02  0.23419283232E+02  0.00000000000E+00 0.  1.
         22    1    3    3    0    0 -0.14331349313E+03  0.32536510681E+02 -0.11582367513E+03  0.18711628887E+03  0.00000000000E+00 0.  1.
</event>
<event>
 7    1  0.6103724E-006  0.1246008E+03  0.7818608E-02  0.1278521E+00
          2   -1    0    0  502    0  0.00000000000E+00  0.00000000000E+00  0.73202528616E+03  0.73202528616E+03  0.00000000000E+00 0. -1.
          1   -1    0    0  501    0 -0.00000000000E+00 -0.00000000000E+00 -0.19616097150E+03  0.19616097150E+03  0.00000000000E+00 0. -1.
         25    2    1    2    0    0 -0.45442086699E+01 -0.12254651223E+03  0.37899095767E+02  0.17916410649E+03  0.12500055241E+03 0.  0.
          2    1    1    2  501    0  0.79201010824E+02  0.19743794377E+02 -0.10489928617E+03  0.13291530300E+03  0.00000000000E+00 0. -1.
          1    1    1    2  502    0 -0.74656802154E+02  0.10280271785E+03  0.60286450506E+03  0.61610684817E+03  0.00000000000E+00 0. -1.
         22    1    3    3    0    0  0.44511199377E+02 -0.32332684393E+02  0.51769485366E+02  0.75542894868E+02  0.00000000000E+00 0.  1.
         22    1    3    3    0    0 -0.49055408046E+02 -0.90213827832E+02 -0.13870389599E+02  0.10362121162E+03  0.00000000000E+00 0.  1.
</event>
<event>
 7    1  0.7254349E-006  0.5037872E+02  0.7818608E-02  0.1449489E+00
          2   -1    0    0  502    0  0.00000000000E+00  0.00000000000E+00  0.75040505455E+03  0.75040505455E+03  0.00000000000E+00 0. -1.
          1   -1    0    0  501    0 -0.00000000000E+00 -0.00000000000E+00 -0.14086744822E+04  0.14086744822E+04  0.00000000000E+00 0. -1.
         25    2    1    2    0    0 -0.29111409655E+00  0.52587569290E+01 -0.28719090763E+03  0.31325974431E+03  0.12500124284E+03 0.  0.
          2    1    1    2  501    0 -0.44908013614E+02  0.17301243182E+02 -0.11070605608E+04  0.11081061087E+04  0.00000000000E+00 0. -1.
          1    1    1    2  502    0  0.45199127711E+02 -0.22560000111E+02  0.73598204084E+03  0.73771368374E+03  0.00000000000E+00 0. -1.
         22    1    3    3    0    0 -0.38537207864E+02 -0.12413150826E+01 -0.26653390330E+03  0.26930833418E+03  0.00000000000E+00 0.  1.
         22    1    3    3    0    0  0.38246093767E+02  0.65000720116E+01 -0.20657004330E+02  0.43951410131E+02  0.00000000000E+00 0.  1.
</event>
<event>
 7    1  0.6103724E-006  0.3039851E+02  0.7818608E-02  0.1653613E+00
          2   -1    0    0  502    0  0.00000000000E+00  0.00000000000E+00  0.14098146017E+04  0.14098146017E+04  0.00000000000E+00 0. -1.
          1   -1    0    0  501    0 -0.00000000000E+00 -0.00000000000E+00 -0.26940965141E+03  0.26940965141E+03  0.00000000000E+00 0. -1.
         25    2    1    2    0    0  0.35393912141E+02  0.32326437168E+02  0.22791791464E+03  0.26432806615E+03  0.12500009273E+03 0.  0.
          2    1    1    2  501    0 -0.14772182690E+02 -0.26503581106E+02 -0.25018925195E+03  0.25202245730E+03  0.00000000000E+00 0. -1.
          1    1    1    2  502    0 -0.20621729451E+02 -0.58228560614E+01  0.11626762876E+04  0.11628737297E+04  0.00000000000E+00 0. -1.
         22    1    3    3    0    0  0.70836994176E+02  0.31059358192E+02  0.21159046353E+03  0.22528445959E+03  0.00000000000E+00 0. -1.
         22    1    3    3    0    0 -0.35443082034E+02  0.12670789760E+01  0.16327451105E+02  0.39043606555E+02  0.00000000000E+00 0. -1.
</event>
<event>
 7    1  0.6103724E-006  0.4386516E+02  0.7818608E-02  0.1540743E+00
          2   -1    0    0  502    0  0.00000000000E+00  0.00000000000E+00  0.30427190047E+04  0.30427190047E+04  0.00000000000E+00 0. -1.
          1   -1    0    0  501    0 -0.00000000000E+00 -0.00000000000E+00 -0.14917706323E+02  0.14917706323E+02  0.00000000000E+00 0. -1.
         25    2    1    2    0    0  0.12121892538E+02 -0.22599602441E+02  0.13634206426E+04  0.13693788147E+04  0.12499922835E+03 0.  0.
          2    1    1    2  501    0 -0.41047604874E+02  0.17438407546E+02  0.30309996750E+02  0.53923091776E+02  0.00000000000E+00 0. -1.
          1    1    1    2  502    0  0.28925712336E+02  0.51611948948E+01  0.16340706590E+04  0.16343348046E+04  0.00000000000E+00 0. -1.
         22    1    3    3    0    0  0.34161562537E+02  0.26658802564E+02  0.10798496325E+04  0.10807187113E+04  0.00000000000E+00 0.  1.
         22    1    3    3    0    0 -0.22039669999E+02 -0.49258405005E+02  0.28357101013E+03  0.28866010341E+03  0.00000000000E+00 0.  1.
</event>
<event>
 7    1  0.6103724E-006  0.8484383E+02  0.7818608E-02  0.1418950E+00
          2   -1    0    0  502    0  0.00000000000E+00  0.00000000000E+00  0.67482907127E+03  0.67482907127E+03  0.00000000000E+00 0. -1.
          1   -1    0    0  501    0 -0.00000000000E+00 -0.00000000000E+00 -0.14555005233E+04  0.14555005233E+04  0.00000000000E+00 0. -1.
         25    2    1    2    0    0  0.42012937930E+02 -0.55852094297E+02  0.12400427055E+03  0.18943938749E+03  0.12500271608E+03 0.  0.
          2    1    1    2  501    0  0.33654467003E+02  0.12698309944E+02 -0.14188921079E+04  0.14193479785E+04  0.00000000000E+00 0. -1.
          1    1    1    2  502    0 -0.75667404933E+02  0.43153784353E+02  0.51421638531E+03  0.52154222859E+03  0.00000000000E+00 0. -1.
         22    1    3    3    0    0  0.18930827486E+02  0.25215437872E+02 -0.82648052472E+01  0.32596035681E+02  0.00000000000E+00 0. -1.
         22    1    3    3    0    0  0.23082110444E+02 -0.81067532168E+02  0.13226907579E+03  0.15684335181E+03  0.00000000000E+00 0. -1.
</event>
<event>
 7    1  0.6103724E-006  0.1073116E+03  0.7818608E-02  0.1297215E+00
          2   -1    0    0  502    0  0.00000000000E+00  0.00000000000E+00  0.55898509465E+03  0.55898509465E+03  0.00000000000E+00 0. -1.
          1   -1    0    0  501    0 -0.00000000000E+00 -0.00000000000E+00 -0.56863205418E+03  0.56863205418E+03  0.00000000000E+00 0. -1.
         25    2    1    2    0    0  0.10285420621E+03  0.10096942964E+03  0.27229810115E+03  0.33248328972E+03  0.12500027438E+03 0.  0.
          2    1    1    2  501    0 -0.23424417926E+02 -0.10446450216E+03 -0.52686507824E+03  0.53763216629E+03  0.00000000000E+00 0. -1.
          1    1    1    2  502    0 -0.79429788287E+02  0.34950725212E+01  0.24492001756E+03  0.25750169281E+03  0.00000000000E+00 0. -1.
         22    1    3    3    0    0  0.68154145555E+01  0.18471992031E+02 -0.10733607728E+02  0.22424867893E+02  0.00000000000E+00 0.  1.
         22    1    3    3    0    0  0.96038791658E+02  0.82497437612E+02  0.28303170888E+03  0.31005842183E+03  0.00000000000E+00 0.  1.
</event>
<event>
 7    1  0.6103724E-006  0.8144176E+02  0.7818608E-02  0.1432246E+00
          2   -1    0    0  502    0  0.00000000000E+00  0.00000000000E+00  0.52191028106E+02  0.52191028106E+02  0.00000000000E+00 0. -1.
          1   -1    0    0  501    0 -0.00000000000E+00 -0.00000000000E+00 -0.10518204052E+04  0.10518204052E+04  0.00000000000E+00 0. -1.
         25    2    1    2    0    0  0.35368721130E+02  0.57843531984E+02 -0.34105545101E+03  0.36951537239E+03  0.12500387650E+03 0.  0.
          2    1    1    2  501    0 -0.13482023072E+02 -0.83676972040E+02 -0.68581938500E+03  0.69103677865E+03  0.00000000000E+00 0. -1.
          1    1    1    2  502    0 -0.21886698057E+02  0.25833440056E+02  0.27245458968E+02  0.43459282223E+02  0.00000000000E+00 0. -1.
         22    1    3    3    0    0 -0.40145685499E+02  0.10019254396E+02 -0.18594883095E+03  0.19049679592E+03  0.00000000000E+00 0. -1.
         22    1    3    3    0    0  0.75514406628E+02  0.47824277588E+02 -0.15510662006E+03  0.17901857647E+03  0.00000000000E+00 0. -1.
</event>
<event>
 7    1  0.6103724E-006  0.4688108E+02  0.7818608E-02  0.1534317E+00
          2   -1    0    0  502    0  0.00000000000E+00  0.00000000000E+00  0.22530578848E+03  0.22530578848E+03  0.00000000000E+00 0. -1.
          1   -1    0    0  501    0 -0.00000000000E+00 -0.00000000000E+00 -0.58293561083E+03  0.58293561083E+03  0.00000000000E+00 0. -1.
         25    2    1    2    0    0 -0.48013718924E+01  0.29367568471E+02 -0.22619221871E+03  0.26014170289E+03  0.12500111410E+03 0.  0.
          2    1    1    2  501    0  0.25589650846E+02  0.12929578450E+02 -0.33648573378E+03  0.33770497963E+03  0.00000000000E+00 0. -1.
          1    1    1    2  502    0 -0.20788278954E+02 -0.42297146922E+02  0.20504813014E+03  0.21039471679E+03  0.00000000000E+00 0. -1.
         22    1    3    3    0    0 -0.19078805644E+02  0.18590195893E+02 -0.23749326962E+03  0.23898252933E+03  0.00000000000E+00 0.  1.
         22    1    3    3    0    0  0.14277433751E+02  0.10777372579E+02  0.11301050907E+02  0.21159173562E+02  0.00000000000E+00 0.  1.
</event>
<event>
 7    1  0.6103724E-006  0.8177658E+02  0.7818608E-02  0.1460850E+00
          2   -1    0    0  502    0  0.00000000000E+00  0.00000000000E+00  0.32216852944E+03  0.32216852944E+03  0.00000000000E+00 0. -1.
          1   -1    0    0  501    0 -0.00000000000E+00 -0.00000000000E+00 -0.69205809633E+03  0.69205809633E+03  0.00000000000E+00 0. -1.
         25    2    1    2    0    0  0.73206636264E+02 -0.50464901877E+02  0.14916366541E+03  0.21396725267E+03  0.12500507279E+03 0.  0.
          2    1    1    2  501    0 -0.49935381537E+02  0.64707790918E+02 -0.65577132831E+03  0.66084542486E+03  0.00000000000E+00 0. -1.
          1    1    1    2  502    0 -0.23271254726E+02 -0.14242889041E+02  0.13671809602E+03  0.13941394824E+03  0.00000000000E+00 0. -1.
         22    1    3    3    0    0  0.26514997587E+02 -0.88853380577E+02  0.95980156105E+02  0.13345470656E+03  0.00000000000E+00 0. -1.
         22    1    3    3    0    0  0.46691638676E+02  0.38388478701E+02  0.53183509301E+02  0.80512546108E+02  0.00000000000E+00 0. -1.
</event>
<event>
 7    1  0.6103724E-006  0.4340476E+02  0.7818608E-02  0.1564453E+00
          2   -1    0    0  502    0  0.00000000000E+00  0.00000000000E+00  0.11749466744E+03  0.11749466744E+03  0.00000000000E+00 0. -1.
          1   -1    0    0  501    0 -0.00000000000E+00 -0.00000000000E+00 -0.59840099522E+03  0.59840099522E+03  0.00000000000E+00 0. -1.
         25    2    1    2    0    0  0.28616377644E+01 -0.22937502745E+02 -0.15047562867E+03  0.19698265882E+03  0.12499974019E+03 0.  0.
          2    1    1    2  501    0 -0.17370949285E+02 -0.18685705986E+02 -0.41910827784E+03  0.41988409596E+03  0.00000000000E+00 0. -1.
          1    1    1    2  502    0  0.14509311520E+02  0.41623208731E+02  0.88677578734E+02  0.99028907880E+02  0.00000000000E+00 0. -1.
         22    1    3    3    0    0  0.60670888490E+01  0.43101035551E+02 -0.14659319303E+02  0.45928253561E+02  0.00000000000E+00 0.  1.
         22    1    3    3    0    0 -0.32054510846E+01 -0.66038538297E+02 -0.13581630937E+03  0.15105440526E+03  0.00000000000E+00 0.  1.
</event>
<event>
 7    1  0.6103724E-006  0.1181916E+03  0.7818608E-02  0.1262118E+00
          2   -1    0    0  502    0  0.00000000000E+00  0.00000000000E+00  0.17072482345E+04  0.17072482345E+04  0.00000000000E+00 0. -1.
          1   -1    0    0  501    0 -0.00000000000E+00 -0.00000000000E+00 -0.23550636532E+03  0.23550636532E+03  0.00000000000E+00 0. -1.
         25    2    1    2    0    0 -0.16525051750E+03 -0.12206760955E+03  0.58101873580E+03  0.62882216500E+03  0.12500523592E+03 0.  0.
          2    1    1    2  501    0  0.10975551789E+03  0.37878946014E+02 -0.19315924564E+03  0.22536987916E+03  0.00000000000E+00 0. -1.
          1    1    1    2  502    0  0.55494999609E+02  0.84188663531E+02  0.10838823790E+04  0.10885625556E+04  0.00000000000E+00 0. -1.
         22    1    3    3    0    0 -0.10259262396E+02 -0.53715114182E+02  0.61072759413E+02  0.81978337985E+02  0.00000000000E+00 0.  1.
         22    1    3    3    0    0 -0.15499125510E+03 -0.68352495363E+02  0.51994597638E+03  0.54684382701E+03  0.00000000000E+00 0.  1.
</event>
<event>
 7    1  0.6103724E-006  0.1111497E+03  0.7818608E-02  0.1314250E+00
          2   -1    0    0  502    0  0.00000000000E+00  0.00000000000E+00  0.34725788486E+04  0.34725788486E+04  0.00000000000E+00 0. -1.
          1   -1    0    0  501    0 -0.00000000000E+00 -0.00000000000E+00 -0.67362698675E+03  0.67362698675E+03  0.00000000000E+00 0. -1.
         25    2    1    2    0    0  0.47658859753E+02  0.15919609648E+03  0.12527503985E+04  0.12698911149E+04  0.12500047517E+03 0.  0.
          2    1    1    2  501    0 -0.58369630567E+02 -0.94376806197E+02 -0.65993528360E+03  0.66919995058E+03  0.00000000000E+00 0. -1.
          1    1    1    2  502    0  0.10710770814E+02 -0.64819290282E+02  0.22061367470E+04  0.22071147699E+04  0.00000000000E+00 0. -1.
         22    1    3    3    0    0  0.81571011178E+01  0.15190341260E+03  0.73457422148E+03  0.75016029748E+03  0.00000000000E+00 0. -1.
         22    1    3    3    0    0  0.39501758635E+02  0.72926838792E+01  0.51817617699E+03  0.51973081742E+03  0.00000000000E+00 0. -1.
</event>
<event>
 7    1  0.6103724E-006  0.7514377E+02  0.7818608E-02  0.1397870E+00
          2   -1    0    0  502    0  0.00000000000E+00  0.00000000000E+00  0.46618559841E+03  0.46618559841E+03  0.00000000000E+00 0. -1.
          1   -1    0    0  501    0 -0.00000000000E+00 -0.00000000000E+00 -0.58818463048E+02  0.58818463048E+02  0.00000000000E+00 0. -1.
         25    2    1    2    0    0  0.33209270803E+02  0.34037476524E+01  0.29882648584E+03  0.32563252189E+03  0.12499931804E+03 0.  0.
          2    1    1    2  501    0 -0.77857614109E+02 -0.20733327529E+02 -0.17799217180E+00  0.80571152569E+02  0.00000000000E+00 0. -1.
          1    1    1    2  502    0  0.44648343305E+02  0.17329579877E+02  0.10871864169E+03  0.11880038700E+03  0.00000000000E+00 0. -1.
         22    1    3    3    0    0 -0.27841661192E+02 -0.42766100677E+02  0.93779324911E+02  0.10676450368E+03  0.00000000000E+00 0.  1.
         22    1    3    3    0    0  0.61050931995E+02  0.46169848330E+02  0.20504716093E+03  0.21886801821E+03  0.00000000000E+00 0.  1.
</event>
<event>
 7    1  0.6103724E-006  0.7038787E+02  0.7818608E-02  0.1419067E+00
          2   -1    0    0  502    0  0.00000000000E+00  0.00000000000E+00  0.11137374651E+04  0.11137374651E+04  0.00000000000E+00 0. -1.
          1   -1    0    0  501    0 -0.00000000000E+00 -0.00000000000E+00 -0.15877989461E+03  0.15877989461E+03  0.00000000000E+00 0. -1.
         25    2    1    2    0    0 -0.28666130002E+02 -0.17874680338E+02  0.79325923750E+02  0.15185201852E+03  0.12500072857E+03 0.  0.
          2    1    1    2  501    0 -0.42503358333E+02  0.83651471921E+01 -0.11735051339E+03  0.12509058377E+03  0.00000000000E+00 0. -1.
          1    1    1    2  502    0  0.71169488335E+02  0.95095331459E+01  0.99298216015E+03  0.99557475745E+03  0.00000000000E+00 0. -1.
         22    1    3    3    0    0  0.46473149244E+02 -0.23687930618E+02  0.45609296375E+02  0.69289823015E+02  0.00000000000E+00 0. -1.
         22    1    3    3    0    0 -0.75139279246E+02  0.58132502803E+01  0.33716627375E+02  0.82562195501E+02  0.00000000000E+00 0. -1.
</event>
<event>
 7    1  0.6103724E-006  0.3194575E+02  0.7818608E-02  0.1580490E+00
          2   -1    0    0  502    0  0.00000000000E+00  0.00000000000E+00  0.24688603045E+04  0.24688603045E+04  0.00000000000E+00 0. -1.
          1   -1    0    0  501    0 -0.00000000000E+00 -0.00000000000E+00 -0.22865180976E+04  0.22865180976E+04  0.00000000000E+00 0. -1.
         25    2    1    2    0    0 -0.87537674441E+01 -0.16724262174E+02  0.15682671466E+03  0.20143820631E+03  0.12500561243E+03 0.  0.
          2    1    1    2  501    0 -0.21924001901E+02  0.23257395478E+02 -0.22639921307E+04  0.22642177316E+04  0.00000000000E+00 0. -1.
          1    1    1    2  502    0  0.30677769345E+02 -0.65331333038E+01  0.22895076229E+04  0.22897224641E+04  0.00000000000E+00 0. -1.
         22    1    3    3    0    0 -0.43642768878E+02  0.31376217640E+02  0.12010900286E+03  0.13158773073E+03  0.00000000000E+00 0.  1.
         22    1    3    3    0    0  0.34889001433E+02 -0.48100479814E+02  0.36717711797E+02  0.69850475582E+02  0.00000000000E+00 0.  1.
</event>
<event>
 7    1  0.6103724E-006  0.4395128E+02  0.7818608E-02  0.1596878E+00
          2   -1    0    0  502    0  0.00000000000E+00  0.00000000000E+00  0.19851425321E+03  0.19851425321E+03  0.00000000000E+00 0. -1.
          1   -1    0    0  501    0 -0.00000000000E+00 -0.00000000000E+00 -0.16015586831E+03  0.16015586831E+03  0.00000000000E+00 0. -1.
         25    2    1    2    0    0  0.62882013752E+02  0.14541536929E+01  0.10333228754E+02  0.14030840514E+03  0.12499364271E+03 0.  0.
          2    1    1    2  501    0 -0.42664233762E+02  0.26363742585E+01 -0.89423815212E+02  0.99115115087E+02  0.00000000000E+00 0. -1.
          1    1    1    2  502    0 -0.20217779989E+02 -0.40905279514E+01  0.11744897136E+03  0.11924660129E+03  0.00000000000E+00 0. -1.
         22    1    3    3    0    0  0.25401471840E+02  0.48852814120E+02  0.44584543993E+02  0.70849232756E+02  0.00000000000E+00 0. -1.
         22    1    3    3    0    0  0.37480541912E+02 -0.47398660427E+02 -0.34251315239E+02  0.69459172381E+02  0.00000000000E+00 0. -1.
</event>
<event>
 7    1  0.6103724E-006  0.3448999E+03  0.7818608E-02  0.1291955E+00
          2   -1    0    0  502    0  0.00000000000E+00  0.00000000000E+00  0.12829566286E+04  0.12829566286E+04  0.00000000000E+00 0. -1.
          1   -1    0    0  501    0 -0.00000000000E+00 -0.00000000000E+00 -0.16330813896E+04  0.16330813896E+04  0.00000000000E+00 0. -1.
         25    2    1    2    0    0  0.35062056349E+03 -0.10274730022E+03 -0.11476272466E+04  0.12108533174E+04  0.12500268753E+03 0.  0.
          2    1    1    2  501    0 -0.16119309825E+02  0.20371123627E+02 -0.42973155282E+03  0.43051599543E+03  0.00000000000E+00 0. -1.
          1    1    1    2  502    0 -0.33450125367E+03  0.82376176591E+02  0.12272340385E+04  0.12746687054E+04  0.00000000000E+00 0. -1.
         22    1    3    3    0    0  0.18059780137E+03  0.12041013781E+02 -0.54316305357E+03  0.57252655366E+03  0.00000000000E+00 0.  1.
         22    1    3    3    0    0  0.17002276212E+03 -0.11478831400E+03 -0.60446419305E+03  0.63832676377E+03  0.00000000000E+00 0.  1.
</event>
<event>
 7    1  0.7042243E-006  0.9196749E+02  0.7818608E-02  0.1479275E+00
          2   -1    0    0  502    0  0.00000000000E+00  0.00000000000E+00  0.21881401907E+04  0.21881401907E+04  0.00000000000E+00 0. -1.
          1   -1    0    0  501    0 -0.00000000000E+00 -0.00000000000E+00 -0.94090167341E+03  0.94090167341E+03  0.00000000000E+00 0. -1.
         25    2    1    2    0    0 -0.74990669455E+02  0.44604698764E+02 -0.39030223270E+03  0.41901711944E+03  0.12500533538E+03 0.  0.
          2    1    1    2  501    0  0.88570447326E+01  0.19328692401E+02 -0.53505768382E+03  0.53547994416E+03  0.00000000000E+00 0. -1.
          1    1    1    2  502    0  0.66133624722E+02 -0.63933391165E+02  0.21725984338E+04  0.21745448005E+04  0.00000000000E+00 0. -1.
         22    1    3    3    0    0  0.29728662210E+02 -0.13042526419E+02 -0.97112393028E+02  0.10239491067E+03  0.00000000000E+00 0.  1.
         22    1    3    3    0    0 -0.10471933166E+03  0.57647225183E+02 -0.29318983967E+03  0.31662220876E+03  0.00000000000E+00 0.  1.
</event>
<event>
 7    1  0.6103724E-006  0.1602783E+03  0.7818608E-02  0.1304617E+00
          2   -1    0    0  502    0  0.00000000000E+00  0.00000000000E+00  0.99647602859E+02  0.99647602859E+02  0.00000000000E+00 0. -1.
          1   -1    0    0  501    0 -0.00000000000E+00 -0.00000000000E+00 -0.26797818578E+04  0.26797818578E+04  0.00000000000E+00 0. -1.
         25    2    1    2    0    0  0.59218551140E+01 -0.11636674641E+03 -0.10547382177E+04  0.10684913531E+04  0.12499910331E+03 0.  0.
          2    1    1    2  501    0 -0.17542085701E+02 -0.46529294712E+02 -0.15455852009E+04  0.15463849176E+04  0.00000000000E+00 0. -1.
          1    1    1    2  502    0  0.11620230587E+02  0.16289604113E+03  0.20189163713E+02  0.16455318990E+03  0.00000000000E+00 0. -1.
         22    1    3    3    0    0 -0.14269292887E+02 -0.56661512389E+01 -0.11450845127E+02  0.19153063554E+02  0.00000000000E+00 0.  1.
         22    1    3    3    0    0  0.20191148001E+02 -0.11070059517E+03 -0.10432873726E+04  0.10493382896E+04  0.00000000000E+00 0.  1.
</event>
<event>
 7    1  0.6103724E-006  0.8791541E+02  0.7818608E-02  0.1488851E+00
          2   -1    0    0  502    0  0.00000000000E+00  0.00000000000E+00  0.19109141705E+04  0.19109141705E+04  0.00000000000E+00 0. -1.
          1   -1    0    0  501    0 -0.00000000000E+00 -0.00000000000E+00 -0.81267285615E+02  0.81267285615E+02  0.00000000000E+00 0. -1.
         25    2    1    2    0    0 -0.74595091508E+02 -0.64136360849E+02  0.10053474162E+03  0.18817728046E+03  0.12500221658E+03 0.  0.
          2    1    1    2  501    0 -0.16098589031E+01  0.20732032460E+02 -0.33382290988E+02  0.39329202474E+02  0.00000000000E+00 0. -1.
          1    1    1    2  502    0  0.76204950412E+02  0.43404328389E+02  0.17624944343E+04  0.17646749732E+04  0.00000000000E+00 0. -1.
         22    1    3    3    0    0  0.12533906024E+02  0.25635474433E+02  0.40168451033E+02  0.49272515747E+02  0.00000000000E+00 0. -1.
         22    1    3    3    0    0 -0.87128997532E+02 -0.89771835282E+02  0.60366290584E+02  0.13890476471E+03  0.00000000000E+00 0. -1.
</event>
<event>
 7    1  0.6103724E-006  0.5421895E+02  0.7818608E-02  0.1476842E+00
          2   -1    0    0  502    0  0.00000000000E+00  0.00000000000E+00  0.17050799871E+03  0.17050799871E+03  0.00000000000E+00 0. -1.
          1   -1    0    0  501    0 -0.00000000000E+00 -0.00000000000E+00 -0.13918531605E+04  0.13918531605E+04  0.00000000000E+00 0. -1.
         25    2    1    2    0    0 -0.56957370488E+01  0.19360731820E+02 -0.88768215759E+02  0.15463510598E+03  0.12499976207E+03 0.  0.
          2    1    1    2  501    0 -0.23229788118E+02  0.28400386853E+02 -0.12642086841E+04  0.12647410019E+04  0.00000000000E+00 0. -1.
          1    1    1    2  502    0  0.28925525167E+02 -0.47761118673E+02  0.13163173800E+03  0.14298505136E+03  0.00000000000E+00 0. -1.
         22    1    3    3    0    0 -0.25875555152E+02 -0.48706057593E+02 -0.45458309921E+02  0.71472248751E+02  0.00000000000E+00 0. -1.
         22    1    3    3    0    0  0.20179818103E+02  0.68066789413E+02 -0.43309905838E+02  0.83162857234E+02  0.00000000000E+00 0. -1.
</event>
<event>
 7    1  0.6103724E-006  0.1560264E+03  0.7818608E-02  0.1233835E+00
          2   -1    0    0  502    0  0.00000000000E+00  0.00000000000E+00  0.13180877034E+04  0.13180877034E+04  0.00000000000E+00 0. -1.
          1   -1    0    0  501    0 -0.00000000000E+00 -0.00000000000E+00 -0.11087775454E+04  0.11087775454E+04  0.00000000000E+00 0. -1.
         25    2    1    2    0    0  0.94972166878E+02 -0.19308173524E+03  0.29209514843E+03  0.38372629734E+03  0.12500410620E+03 0.  0.
          2    1    1    2  501    0 -0.92136537610E+02  0.42383930504E+02 -0.10547208607E+04  0.10595855950E+04  0.00000000000E+00 0. -1.
          1    1    1    2  502    0 -0.28356292681E+01  0.15069780474E+03  0.97193587026E+03  0.98355335648E+03  0.00000000000E+00 0. -1.
         22    1    3    3    0    0  0.12570895285E+03 -0.14664401797E+03  0.22820116786E+03  0.29896986779E+03  0.00000000000E+00 0.  1.
         22    1    3    3    0    0 -0.30736785969E+02 -0.46437717272E+02  0.63893980570E+02  0.84756429551E+02  0.00000000000E+00 0.  1.
</event>
<event>
 7    1  0.7516327E-006  0.5062773E+02  0.7818608E-02  0.1458024E+00
          2   -1    0    0  502    0  0.00000000000E+00  0.00000000000E+00  0.21207108648E+04  0.21207108648E+04  0.00000000000E+00 0. -1.
          1   -1    0    0  501    0 -0.00000000000E+00 -0.00000000000E+00 -0.79760874169E+03  0.79760874169E+03  0.00000000000E+00 0. -1.
         25    2    1    2    0    0  0.45113440456E+02  0.42805471279E+02 -0.13503299905E+03  0.19423267198E+03  0.12499955660E+03 0.  0.
          2    1    1    2  501    0 -0.85203359193E+00 -0.50842276274E+02 -0.63171222818E+03  0.63375547512E+03  0.00000000000E+00 0. -1.
          1    1    1    2  502    0 -0.44261406864E+02  0.80368049943E+01  0.20898473503E+04  0.20903314594E+04  0.00000000000E+00 0. -1.
         22    1    3    3    0    0  0.82371280892E+02  0.10161193219E+02 -0.53224638893E+02  0.98595841437E+02  0.00000000000E+00 0.  1.
         22    1    3    3    0    0 -0.37257840436E+02  0.32644278061E+02 -0.81808360160E+02  0.95636830542E+02  0.00000000000E+00 0.  1.
</event>
<event>
 7    1  0.6384452E-006  0.7856972E+02  0.7818608E-02  0.1371885E+00
          2   -1    0    0  502    0  0.00000000000E+00  0.00000000000E+00  0.11255858660E+04  0.11255858660E+04  0.00000000000E+00 0. -1.
          1   -1    0    0  501    0 -0.00000000000E+00 -0.00000000000E+00 -0.16388422755E+04  0.16388422755E+04  0.00000000000E+00 0. -1.
         25    2    1    2    0    0 -0.48105524092E+02  0.46220791053E+01 -0.22129338381E+03  0.25870958135E+03  0.12499752276E+03 0.  0.
          2    1    1    2  501    0  0.53864388732E+02 -0.60859630991E+02 -0.13969371112E+04  0.13992993103E+04  0.00000000000E+00 0. -1.
          1    1    1    2  502    0 -0.57588646402E+01  0.56237551885E+02  0.11049740855E+04  0.11064192498E+04  0.00000000000E+00 0. -1.
         22    1    3    3    0    0 -0.25986357333E+02  0.17369105699E+02 -0.22971143780E+03  0.23182821497E+03  0.00000000000E+00 0. -1.
         22    1    3    3    0    0 -0.22119166759E+02 -0.12747026594E+02  0.84180539892E+01  0.26881366372E+02  0.00000000000E+00 0. -1.
</event>
<event>
 7    1  0.6103724E-006  0.1084761E+03  0.7818608E-02  0.1352232E+00
          2   -1    0    0  502    0  0.00000000000E+00  0.00000000000E+00  0.19002740450E+03  0.19002740450E+03  0.00000000000E+00 0. -1.
          1   -1    0    0  501    0 -0.00000000000E+00 -0.00000000000E+00 -0.70944334728E+03  0.70944334728E+03  0.00000000000E+00 0. -1.
         25    2    1    2    0    0  0.90060035325E+02  0.19877045647E+01 -0.21159664301E+03  0.26174957135E+03  0.12499975135E+03 0.  0.
          2    1    1    2  501    0 -0.10698839853E+03  0.43221524064E+02 -0.46198329492E+03  0.47617557932E+03  0.00000000000E+00 0. -1.
          1    1    1    2  502    0  0.16928363207E+02 -0.45209228629E+02  0.15416399515E+03  0.16154560110E+03  0.00000000000E+00 0. -1.
         22    1    3    3    0    0  0.85506126305E+02 -0.46027915899E+02 -0.17866034190E+03  0.20334548051E+03  0.00000000000E+00 0. -1.
         22    1    3    3    0    0  0.45539090193E+01  0.48015620463E+02 -0.32936301117E+02  0.58404090842E+02  0.00000000000E+00 0. -1.
</event>
<event>
 7    1  0.6103724E-006  0.7249391E+02  0.7818608E-02  0.1455091E+00
          2   -1    0    0  502    0  0.00000000000E+00  0.00000000000E+00  0.40593410805E+03  0.40593410805E+03  0.00000000000E+00 0. -1.
          1   -1    0    0  501    0 -0.00000000000E+00 -0.00000000000E+00 -0.47069892099E+03  0.47069892099E+03  0.00000000000E+00 0. -1.
         25    2    1    2    0    0  0.24254629685E+02 -0.55585193261E+02 -0.86815293294E+02  0.16383048240E+03  0.12500212415E+03 0.  0.
          2    1    1    2  501    0 -0.26989064911E+02 -0.17371378919E+02 -0.34098828927E+03  0.34249552967E+03  0.00000000000E+00 0. -1.
          1    1    1    2  502    0  0.27344352264E+01  0.72956572180E+02  0.36303876963E+03  0.37030701696E+03  0.00000000000E+00 0. -1.
         22    1    3    3    0    0  0.70335503512E+02 -0.53476988425E+01 -0.48835222679E+02  0.85793705546E+02  0.00000000000E+00 0. -1.
         22    1    3    3    0    0 -0.46080873827E+02 -0.50237494418E+02 -0.37980070616E+02  0.78036776856E+02  0.00000000000E+00 0. -1.
</event>
<event>
 7    1  0.6103724E-006  0.1051025E+03  0.7818608E-02  0.1293408E+00
          2   -1    0    0  502    0  0.00000000000E+00  0.00000000000E+00  0.93523843269E+03  0.93523843269E+03  0.00000000000E+00 0. -1.
          1   -1    0    0  501    0 -0.00000000000E+00 -0.00000000000E+00 -0.11614413398E+04  0.11614413398E+04  0.00000000000E+00 0. -1.
         25    2    1    2    0    0 -0.97232337031E+02 -0.45915568301E+02  0.25387422223E+03  0.30271936608E+03  0.12499810843E+03 0.  0.
          2    1    1    2  501    0 -0.58640843210E+01  0.83894008872E+02 -0.11308527027E+04  0.11339754968E+04  0.00000000000E+00 0. -1.
          1    1    1    2  502    0  0.10309642135E+03 -0.37978440571E+02  0.65077557333E+03  0.65998490959E+03  0.00000000000E+00 0. -1.
         22    1    3    3    0    0 -0.87927318290E+02 -0.20555006037E+02  0.25981579877E+03  0.27505994050E+03  0.00000000000E+00 0.  1.
         22    1    3    3    0    0 -0.93050187419E+01 -0.25360562264E+02 -0.59415765367E+01  0.27659425588E+02  0.00000000000E+00 0.  1.
</event>
<event>
 7    1  0.6103724E-006  0.1002599E+03  0.7818608E-02  0.1293097E+00
          2   -1    0    0  502    0  0.00000000000E+00  0.00000000000E+00  0.11387702737E+04  0.11387702737E+04  0.00000000000E+00 0. -1.
          1   -1    0    0  501    0 -0.00000000000E+00 -0.00000000000E+00 -0.80936695535E+02  0.80936695535E+02  0.00000000000E+00 0. -1.
         25    2    1    2    0    0  0.16645608056E+02  0.64067412847E+02  0.32253803088E+03  0.35218900712E+03  0.12499842284E+03 0.  0.
          2    1    1    2  501    0 -0.82527930915E+02  0.31727918626E+02 -0.30056290276E+02  0.93385763297E+02  0.00000000000E+00 0. -1.
          1    1    1    2  502    0  0.65882322859E+02 -0.95795331473E+02  0.76535183752E+03  0.77413219879E+03  0.00000000000E+00 0. -1.
         22    1    3    3    0    0 -0.16730547266E+02 -0.12575702850E+01  0.24453748058E+03  0.24511236628E+03  0.00000000000E+00 0. -1.
         22    1    3    3    0    0  0.33376155322E+02  0.65324983132E+02  0.78000550300E+02  0.10707664083E+03  0.00000000000E+00 0. -1.
</event>
<event>
 7    1  0.6103724E-006  0.6997764E+02  0.7818608E-02  0.1380760E+00
          2   -1    0    0  502    0  0.00000000000E+00  0.00000000000E+00  0.34409464944E+02  0.34409464944E+02  0.00000000000E+00 0. -1.
          1   -1    0    0  501    0 -0.00000000000E+00 -0.00000000000E+00 -0.84928158668E+03  0.84928158668E+03  0.00000000000E+00 0. -1.
         25    2    1    2    0    0  0.35098903832E+02 -0.41484953918E+02 -0.39065115956E+03  0.41374800269E+03  0.12500458717E+03 0.  0.
          2    1    1    2  501    0 -0.48868185197E+02 -0.33090285307E+02 -0.37481590685E+03  0.37943382892E+03  0.00000000000E+00 0. -1.
          1    1    1    2  502    0  0.13769281366E+02  0.74575239225E+02 -0.49405055334E+02  0.90509220013E+02  0.00000000000E+00 0. -1.
         22    1    3    3    0    0  0.39189703527E+02  0.26403844987E+02 -0.27929977646E+03  0.28326906119E+03  0.00000000000E+00 0. -1.
         22    1    3    3    0    0 -0.40907996950E+01 -0.67888798905E+02 -0.11135138309E+03  0.13047894150E+03  0.00000000000E+00 0. -1.
</event>
<event>
 7    1  0.6103724E-006  0.4040189E+02  0.7818608E-02  0.1512025E+00
          2   -1    0    0  502    0  0.00000000000E+00  0.00000000000E+00  0.48109988170E+03  0.48109988170E+03  0.00000000000E+00 0. -1.
          1   -1    0    0  501    0 -0.00000000000E+00 -0.00000000000E+00 -0.36132726235E+02  0.36132726235E+02  0.00000000000E+00 0. -1.
         25    2    1    2    0    0 -0.11753812988E+02 -0.16830030914E+02  0.18313370520E+03  0.22267988306E+03  0.12500789686E+03 0.  0.
          2    1    1    2  501    0 -0.17718137022E+02  0.41744256659E+02  0.19835710830E+02  0.49497179391E+02  0.00000000000E+00 0. -1.
          1    1    1    2  502    0  0.29471950010E+02 -0.24914225745E+02  0.24199773943E+03  0.24505554548E+03  0.00000000000E+00 0. -1.
         22    1    3    3    0    0  0.43988637131E+02  0.24022592024E+02  0.11584680569E+03  0.12622427466E+03  0.00000000000E+00 0. -1.
         22    1    3    3    0    0 -0.55742450119E+02 -0.40852622938E+02  0.67286899512E+02  0.96455608402E+02  0.00000000000E+00 0. -1.
</event>
<event>
 7    1  0.6103724E-006  0.1271529E+03  0.7818608E-02  0.1355978E+00
          2   -1    0    0  502    0  0.00000000000E+00  0.00000000000E+00  0.29723952358E+04  0.29723952358E+04  0.00000000000E+00 0. -1.
          1   -1    0    0  501    0 -0.00000000000E+00 -0.00000000000E+00 -0.10968965437E+04  0.10968965437E+04  0.00000000000E+00 0. -1.
         25    2    1    2    0    0 -0.12940563881E+03 -0.21769058183E+02 -0.35766955597E+03  0.40096470903E+03  0.12500190146E+03 0.  0.
          2    1    1    2  501    0  0.11326580856E+03  0.58254932621E+02 -0.71179131988E+03  0.72309727121E+03  0.00000000000E+00 0. -1.
          1    1    1    2  502    0  0.16139830249E+02 -0.36485874439E+02  0.29449595680E+04  0.29452297992E+04  0.00000000000E+00 0. -1.
         22    1    3    3    0    0 -0.63314416408E+01  0.97731610288E+01 -0.19118173487E+03  0.19153604772E+03  0.00000000000E+00 0.  1.
         22    1    3    3    0    0 -0.12307419717E+03 -0.31542219212E+02 -0.16648782110E+03  0.20942866131E+03  0.00000000000E+00 0.  1.
</event>
<event>
 7    1  0.6103724E-006  0.1810299E+03  0.7818608E-02  0.1224352E+00
          2   -1    0    0  502    0  0.00000000000E+00  0.00000000000E+00  0.41479604775E+03  0.41479604775E+03  0.00000000000E+00 0. -1.
          1   -1    0    0  501    0 -0.00000000000E+00 -0.00000000000E+00 -0.18342449933E+04  0.18342449933E+04  0.00000000000E+00 0. -1.
         25    2    1    2    0    0 -0.15162330233E+03  0.54712276630E+02 -0.71727905553E+02  0.21622479143E+03  0.12500083588E+03 0.  0.
          2    1    1    2  501    0 -0.33122798483E+02 -0.90547932811E+02 -0.16629194698E+04  0.16657122233E+04  0.00000000000E+00 0. -1.
          1    1    1    2  502    0  0.18474610082E+03  0.35835656181E+02  0.31519842977E+03  0.36710402633E+03  0.00000000000E+00 0. -1.
         22    1    3    3    0    0 -0.16892215265E+03  0.41401384808E+02 -0.81785644634E+02  0.19219172715E+03  0.00000000000E+00 0.  1.
         22    1    3    3    0    0  0.17298850313E+02  0.13310891823E+02  0.10057739081E+02  0.24033064280E+02  0.00000000000E+00 0.  1.
</event>
<event>
 7    1  0.6103724E-006  0.4746251E+02  0.7818608E-02  0.1481930E+00
          2   -1    0    0  502    0  0.00000000000E+00  0.00000000000E+00  0.17440784967E+04  0.17440784967E+04  0.00000000000E+00 0. -1.
          1   -1    0    0  501    0 -0.00000000000E+00 -0.00000000000E+00 -0.67830994057E+02  0.67830994057E+02  0.00000000000E+00 0. -1.
         25    2    1    2    0    0  0.46607542246E+02  0.50785555249E+02  0.16839395899E+03  0.22075451423E+03  0.12499837805E+03 0.  0.
          2    1    1    2  501    0 -0.42147448334E+00 -0.40430808567E+02 -0.31387739650E+02  0.51186112593E+02  0.00000000000E+00 0. -1.
          1    1    1    2  502    0 -0.46186067762E+02 -0.10354746683E+02  0.15392412833E+04  0.15399688640E+04  0.00000000000E+00 0. -1.
         22    1    3    3    0    0 -0.25459404994E+02  0.64026049926E+02  0.91472148450E+02  0.11451930105E+03  0.00000000000E+00 0. -1.
         22    1    3    3    0    0  0.72066947240E+02 -0.13240494676E+02  0.76921810535E+02  0.10623521318E+03  0.00000000000E+00 0. -1.
</event>
<event>
 7    1  0.6103724E-006  0.7545745E+02  0.7818608E-02  0.1420745E+00
          2   -1    0    0  502    0  0.00000000000E+00  0.00000000000E+00  0.20900285192E+04  0.20900285192E+04  0.00000000000E+00 0. -1.
          1   -1    0    0  501    0 -0.00000000000E+00 -0.00000000000E+00 -0.63463258199E+02  0.63463258199E+02  0.00000000000E+00 0. -1.
         25    2    1    2    0    0  0.42102893606E+01 -0.10980909451E+03  0.59503878641E+03  0.61787703208E+03  0.12500042269E+03 0.  0.
          2    1    1    2  501    0  0.10554974802E+02  0.38468565593E+02 -0.43366979408E+02  0.58923110362E+02  0.00000000000E+00 0. -1.
          1    1    1    2  502    0 -0.14765264162E+02  0.71340528916E+02  0.14748934540E+04  0.14766916349E+04  0.00000000000E+00 0. -1.
         22    1    3    3    0    0 -0.30065816643E+02  0.16906221913E+02  0.10263586431E+03  0.10827693343E+03  0.00000000000E+00 0. -1.
         22    1    3    3    0    0  0.34276106004E+02 -0.12671531642E+03  0.49240292209E+03  0.50960009865E+03  0.00000000000E+00 0. -1.
</event>
<event>
 7    1  0.6103724E-006  0.6701152E+02  0.7818608E-02  0.1499522E+00
          2   -1    0    0  502    0  0.00000000000E+00  0.00000000000E+00  0.18953904936E+03  0.18953904936E+03  0.00000000000E+00 0. -1.
          1   -1    0    0  501    0 -0.00000000000E+00 -0.00000000000E+00 -0.27626609813E+04  0.27626609813E+04  0.00000000000E+00 0. -1.
         25    2    1    2    0    0 -0.76226712237E+02 -0.88116419713E+01 -0.18148620683E+04  0.18207790174E+04  0.12499498647E+03 0.  0.
          2    1    1    2  501    0  0.10742290683E+02  0.22947618668E+02 -0.93865043201E+03  0.93899234476E+03  0.00000000000E+00 0. -1.
          1    1    1    2  502    0  0.65484421554E+02 -0.14135976696E+02  0.18039056836E+03  0.19242866849E+03  0.00000000000E+00 0. -1.
         22    1    3    3    0    0 -0.13645074637E+02  0.25981709642E+02 -0.13599183581E+04  0.13602349717E+04  0.00000000000E+00 0. -1.
         22    1    3    3    0    0 -0.62581637600E+02 -0.34793351613E+02 -0.45494371011E+03  0.46054404573E+03  0.00000000000E+00 0. -1.
</event>
<event>
 7    1  0.6103724E-006  0.1198858E+03  0.7818608E-02  0.1341992E+00
          2   -1    0    0  502    0  0.00000000000E+00  0.00000000000E+00  0.17318094886E+03  0.17318094886E+03  0.00000000000E+00 0. -1.
          1   -1    0    0  501    0 -0.00000000000E+00 -0.00000000000E+00 -0.11191447825E+04  0.11191447825E+04  0.00000000000E+00 0. -1.
         25    2    1    2    0    0  0.14314135345E+03 -0.80053859714E+02 -0.17031018265E+03  0.26744914945E+03  0.12500168681E+03 0.  0.
          2    1    1    2  501    0 -0.10015126870E+03  0.59418020472E+02 -0.89177447221E+03  0.89934558822E+03  0.00000000000E+00 0. -1.
          1    1    1    2  502    0 -0.42990084749E+02  0.20635839242E+02  0.11612082123E+03  0.12553099367E+03  0.00000000000E+00 0. -1.
         22    1    3    3    0    0 -0.11744116426E+01 -0.47506078605E+02 -0.83069269267E+02  0.95701150691E+02  0.00000000000E+00 0.  1.
         22    1    3    3    0    0  0.14431576509E+03 -0.32547781109E+02 -0.87240913379E+02  0.17174799876E+03  0.00000000000E+00 0.  1.
</event>
<event>
 7    1  0.6103724E-006  0.7854077E+02  0.7818608E-02  0.1442816E+00
          2   -1    0    0  502    0  0.00000000000E+00  0.00000000000E+00  0.35852514476E+04  0.35852514476E+04  0.00000000000E+00 0. -1.
          1   -1    0    0  501    0 -0.00000000000E+00 -0.00000000000E+00 -0.12213608652E+02  0.12213608652E+02  0.00000000000E+00 0. -1.
         25    2    1    2    0    0  0.46275951480E+02 -0.65326791088E+02  0.14032924508E+04  0.14111225361E+04  0.12501222344E+03 0.  0.
          2    1    1    2  501    0  0.21555028241E+02  0.24234520834E+02  0.27198528946E+02  0.42328373691E+02  0.00000000000E+00 0. -1.
          1    1    1    2  502    0 -0.67830979722E+02  0.41092270254E+02  0.21425468592E+04  0.21440141465E+04  0.00000000000E+00 0. -1.
         22    1    3    3    0    0  0.48596772411E+02 -0.78908115783E+02  0.13856112724E+04  0.13887068572E+04  0.00000000000E+00 0. -1.
         22    1    3    3    0    0 -0.23208209304E+01  0.13581324695E+02  0.17681178467E+02  0.22415678937E+02  0.00000000000E+00 0. -1.
</event>
<event>
 7    1  0.6103724E-006  0.4441032E+02  0.7818608E-02  0.1512910E+00
          2   -1    0    0  502    0  0.00000000000E+00  0.00000000000E+00  0.19437998862E+04  0.19437998862E+04  0.00000000000E+00 0. -1.
          1   -1    0    0  501    0 -0.00000000000E+00 -0.00000000000E+00 -0.34494598894E+03  0.34494598894E+03  0.00000000000E+00 0. -1.
         25    2    1    2    0    0 -0.25065246454E+02  0.30115384414E+02  0.19277324058E+03  0.23307320142E+03  0.12500556778E+03 0.  0.
          2    1    1    2  501    0  0.31957844877E+02  0.14023164482E+02 -0.32356929096E+03  0.32544590801E+03  0.00000000000E+00 0. -1.
          1    1    1    2  502    0 -0.68925984232E+01 -0.44138548896E+02  0.17296499476E+04  0.17302267657E+04  0.00000000000E+00 0. -1.
         22    1    3    3    0    0 -0.85435621145E+01 -0.47856276372E+02  0.96789805026E+02  0.10831196609E+03  0.00000000000E+00 0.  1.
         22    1    3    3    0    0 -0.16521684339E+02  0.77971660786E+02  0.95983435557E+02  0.12476123533E+03  0.00000000000E+00 0.  1.
</event>
<event>
 7    1  0.6103724E-006  0.7134348E+02  0.7818608E-02  0.1365791E+00
          2   -1    0    0  502    0  0.00000000000E+00  0.00000000000E+00  0.51067674701E+03  0.51067674701E+03  0.00000000000E+00 0. -1.
          1   -1    0    0  501    0 -0.00000000000E+00 -0.00000000000E+00 -0.50089310314E+03  0.50089310314E+03  0.00000000000E+00 0. -1.
         25    2    1    2    0    0  0.25374223343E+02 -0.12603640146E+03 -0.80784752642E+02  0.19667098560E+03  0.12499709842E+03 0.  0.
          2    1    1    2  501    0  0.92641067206E+01  0.64826142704E+02 -0.35643285590E+03  0.36239844538E+03  0.00000000000E+00 0. -1.
          1    1    1    2  502    0 -0.34638330064E+02  0.61210258757E+02  0.44700125242E+03  0.45250041917E+03  0.00000000000E+00 0. -1.
         22    1    3    3    0    0  0.72936955811E+02 -0.46079424765E+02 -0.38072306696E+02  0.94300654541E+02  0.00000000000E+00 0. -1.
         22    1    3    3    0    0 -0.47562732468E+02 -0.79956976695E+02 -0.42712445946E+02  0.10237033106E+03  0.00000000000E+00 0. -1.
</event>
<event>
 7    1  0.6103724E-006  0.5693379E+02  0.7818608E-02  0.1461648E+00
          2   -1    0    0  502    0  0.00000000000E+00  0.00000000000E+00  0.27694767336E+04  0.27694767336E+04  0.00000000000E+00 0. -1.
          1   -1    0    0  501    0 -0.00000000000E+00 -0.00000000000E+00 -0.10124110742E+02  0.10124110742E+02  0.00000000000E+00 0. -1.
         25    2    1    2    0    0  0.52755658149E+02  0.66624968823E+02  0.73517647523E+03  0.75055479223E+03  0.12500400185E+03 0.  0.
          2    1    1    2  501    0 -0.35477541995E+02 -0.31702431961E+02  0.25261506598E+03  0.25705655358E+03  0.00000000000E+00 0. -1.
          1    1    1    2  502    0 -0.17278116154E+02 -0.34922536863E+02  0.17715610817E+04  0.17719894986E+04  0.00000000000E+00 0. -1.
         22    1    3    3    0    0  0.73312644494E+02  0.26891221909E+01  0.51976654700E+03  0.52491831612E+03  0.00000000000E+00 0. -1.
         22    1    3    3    0    0 -0.20556986345E+02  0.63935846632E+02  0.21540992823E+03  0.22563647611E+03  0.00000000000E+00 0. -1.
</event>
<event>
 7    1  0.6103724E-006  0.8832711E+02  0.7818608E-02  0.1320665E+00
          2   -1    0    0  502    0  0.00000000000E+00  0.00000000000E+00  0.79317786207E+03  0.79317786207E+03  0.00000000000E+00 0. -1.
          1   -1    0    0  501    0 -0.00000000000E+00 -0.00000000000E+00 -0.16644905146E+03  0.16644905146E+03  0.00000000000E+00 0. -1.
         25    2    1    2    0    0  0.15485246760E+03 -0.16289767939E+00  0.63028975019E+03  0.66096261273E+03  0.12500837162E+03 0.  0.
          2    1    1    2  501    0 -0.82283703388E+02 -0.28572782021E+02 -0.12617227408E+03  0.15331814786E+03  0.00000000000E+00 0. -1.
          1    1    1    2  502    0 -0.72568764211E+02  0.28735679700E+02  0.12261133450E+03  0.14534615294E+03  0.00000000000E+00 0. -1.
         22    1    3    3    0    0  0.67517869214E+02 -0.29222781576E+02  0.10833542463E+03  0.13095494590E+03  0.00000000000E+00 0. -1.
         22    1    3    3    0    0  0.87334598385E+02  0.29059883896E+02  0.52195432556E+03  0.53000766683E+03  0.00000000000E+00 0. -1.
</event>
<event>
 7    1  0.6103724E-006  0.6673387E+02  0.7818608E-02  0.1475379E+00
          2   -1    0    0  502    0  0.00000000000E+00  0.00000000000E+00  0.75738926116E+03  0.75738926116E+03  0.00000000000E+00 0. -1.
          1   -1    0    0  501    0 -0.00000000000E+00 -0.00000000000E+00 -0.33607413887E+03  0.33607413887E+03  0.00000000000E+00 0. -1.
         25    2    1    2    0    0 -0.32703637361E+02  0.56861335673E+02  0.65442595893E+01  0.14131620804E+03  0.12499881571E+03 0.  0.
          2    1    1    2  501    0  0.28439114838E+02  0.99252726002E+01 -0.26619852763E+03  0.26789727584E+03  0.00000000000E+00 0. -1.
          1    1    1    2  502    0  0.42645225231E+01 -0.66786608274E+02  0.68096939033E+03  0.68424991616E+03  0.00000000000E+00 0. -1.
         22    1    3    3    0    0 -0.68886939644E+02  0.32148942387E+02  0.40266154949E+02  0.86025160183E+02  0.00000000000E+00 0.  1.
         22    1    3    3    0    0  0.36183302282E+02  0.24712393286E+02 -0.33721895359E+02  0.55291047852E+02  0.00000000000E+00 0.  1.
</event>
<event>
 7    1  0.6103724E-006  0.4148483E+02  0.7818608E-02  0.1504342E+00
          2   -1    0    0  502    0  0.00000000000E+00  0.00000000000E+00  0.34740115684E+03  0.34740115684E+03  0.00000000000E+00 0. -1.
          1   -1    0    0  501    0 -0.00000000000E+00 -0.00000000000E+00 -0.60694215093E+03  0.60694215093E+03  0.00000000000E+00 0. -1.
         25    2    1    2    0    0 -0.51977798390E+02 -0.58000183132E+02  0.22331393541E+02  0.14896165314E+03  0.12500068080E+03 0.  0.
          2    1    1    2  501    0  0.34510108586E+02  0.22462524502E+02 -0.54134302232E+03  0.54290678796E+03  0.00000000000E+00 0. -1.
          1    1    1    2  502    0  0.17467689804E+02  0.35537658630E+02  0.25947063468E+03  0.26247486666E+03  0.00000000000E+00 0. -1.
         22    1    3    3    0    0  0.12887647965E+02 -0.36073539150E+02 -0.40702891601E+02  0.55893801817E+02  0.00000000000E+00 0.  1.
         22    1    3    3    0    0 -0.64865446355E+02 -0.21926643982E+02  0.63034285142E+02  0.93067851327E+02  0.00000000000E+00 0.  1.
</event>
<event>
 7    1  0.6103724E-006  0.2451574E+03  0.7818608E-02  0.1262889E+00
          2   -1    0    0  502    0  0.00000000000E+00  0.00000000000E+00  0.12979261292E+04  0.12979261292E+04  0.00000000000E+00 0. -1.
          1   -1    0    0  501    0 -0.00000000000E+00 -0.00000000000E+00 -0.41373314708E+03  0.41373314708E+03  0.00000000000E+00 0. -1.
         25    2    1    2    0    0 -0.22202118364E+03  0.18033661452E+03  0.10886800502E+00  0.31215341771E+03  0.12500017524E+03 0.  0.
          2    1    1    2  501    0  0.23568865595E+02 -0.42098691536E+02 -0.24250041215E+03  0.24725339461E+03  0.00000000000E+00 0. -1.
          1    1    1    2  502    0  0.19845231805E+03 -0.13823792299E+03  0.11265845262E+04  0.11522524639E+04  0.00000000000E+00 0. -1.
         22    1    3    3    0    0 -0.20718739422E+03  0.11498597969E+03  0.29864785059E+02  0.23883110608E+03  0.00000000000E+00 0. -1.
         22    1    3    3    0    0 -0.14833789427E+02  0.65350634836E+02 -0.29755917054E+02  0.73322311625E+02  0.00000000000E+00 0. -1.
</event>
<event>
 7    1  0.6103724E-006  0.1001999E+03  0.7818608E-02  0.1386574E+00
          2   -1    0    0  502    0  0.00000000000E+00  0.00000000000E+00  0.16098405538E+04  0.16098405538E+04  0.00000000000E+00 0. -1.
          1   -1    0    0  501    0 -0.00000000000E+00 -0.00000000000E+00 -0.18027886987E+03  0.18027886987E+03  0.00000000000E+00 0. -1.
         25    2    1    2    0    0  0.38607491772E+02 -0.71695316167E+02  0.31125906510E+02  0.15239499158E+03  0.12499861848E+03 0.  0.
          2    1    1    2  501    0 -0.27066402261E+02 -0.28518992679E+02 -0.11468864904E+03  0.12124112048E+03  0.00000000000E+00 0. -1.
          1    1    1    2  502    0 -0.11541089510E+02  0.10021430885E+03  0.15131244264E+04  0.15164833116E+04  0.00000000000E+00 0. -1.
         22    1    3    3    0    0  0.17787977447E+02 -0.89294437162E+02  0.62798801265E+02  0.11060559701E+03  0.00000000000E+00 0. -1.
         22    1    3    3    0    0  0.20819514325E+02  0.17599120995E+02 -0.31672894755E+02  0.41789394572E+02  0.00000000000E+00 0. -1.
</event>
<event>
 7    1  0.6103724E-006  0.6797861E+02  0.7818608E-02  0.1393788E+00
          2   -1    0    0  502    0  0.00000000000E+00  0.00000000000E+00  0.17578016036E+03  0.17578016036E+03  0.00000000000E+00 0. -1.
          1   -1    0    0  501    0 -0.00000000000E+00 -0.00000000000E+00 -0.13951619694E+03  0.13951619694E+03  0.00000000000E+00 0. -1.
         25    2    1    2    0    0  0.34193721910E+02 -0.58763944134E+02 -0.87215266165E+01  0.14256061010E+03  0.12500020311E+03 0.  0.
          2    1    1    2  501    0  0.35034013019E+02  0.41997419809E+02 -0.35542453481E+02  0.65226002011E+02  0.00000000000E+00 0. -1.
          1    1    1    2  502    0 -0.69227734929E+02  0.16766524325E+02  0.80527943524E+02  0.10750974518E+03  0.00000000000E+00 0. -1.
         22    1    3    3    0    0 -0.90125823874E+00 -0.93135015964E+02 -0.71382993396E+01  0.93412519410E+02  0.00000000000E+00 0. -1.
         22    1    3    3    0    0  0.35094980149E+02  0.34371071830E+02 -0.15832272769E+01  0.49148090695E+02  0.00000000000E+00 0. -1.
</event>
<event>
 7    1  0.6103724E-006  0.2887915E+02  0.7818608E-02  0.1641869E+00
          2   -1    0    0  502    0  0.00000000000E+00  0.00000000000E+00  0.43414848924E+03  0.43414848924E+03  0.00000000000E+00 0. -1.
          1   -1    0    0  501    0 -0.00000000000E+00 -0.00000000000E+00 -0.29798018458E+03  0.29798018458E+03  0.00000000000E+00 0. -1.
         25    2    1    2    0    0  0.15038470845E+02  0.17962978897E+02  0.25116572325E+03  0.28151446944E+03  0.12496940327E+03 0.  0.
          2    1    1    2  501    0  0.68318618722E+01 -0.28102290256E+02 -0.28119455449E+03  0.28267789183E+03  0.00000000000E+00 0. -1.
          1    1    1    2  502    0 -0.21870332718E+02  0.10139311359E+02  0.16619713590E+03  0.16793631254E+03  0.00000000000E+00 0. -1.
         22    1    3    3    0    0  0.13506300302E+02  0.35668853111E+02  0.96453010465E+01  0.39341060768E+02  0.00000000000E+00 0. -1.
         22    1    3    3    0    0  0.15321705437E+01 -0.17705874213E+02  0.24152042220E+03  0.24217340867E+03  0.00000000000E+00 0. -1.
</event>
<event>
 7    1  0.6103724E-006  0.6219776E+02  0.7818608E-02  0.1455243E+00
          2   -1    0    0  502    0  0.00000000000E+00  0.00000000000E+00  0.24966574834E+04  0.24966574834E+04  0.00000000000E+00 0. -1.
          1   -1    0    0  501    0 -0.00000000000E+00 -0.00000000000E+00 -0.33423360601E+03  0.33423360601E+03  0.00000000000E+00 0. -1.
         25    2    1    2    0    0  0.46876034105E+02  0.27987810054E+02  0.15954643881E+03  0.20990903501E+03  0.12500422696E+03 0.  0.
          2    1    1    2  501    0 -0.62210874786E+02  0.60884047856E+01 -0.30573888063E+03  0.31206333451E+03  0.00000000000E+00 0. -1.
          1    1    1    2  502    0  0.15334840680E+02 -0.34076214840E+02  0.23086163192E+04  0.23089187199E+04  0.00000000000E+00 0. -1.
         22    1    3    3    0    0  0.65456717917E+02  0.11704197813E+02  0.17040701288E+03  0.18292107644E+03  0.00000000000E+00 0.  1.
         22    1    3    3    0    0 -0.18580683812E+02  0.16283612241E+02 -0.10860574072E+02  0.26987958569E+02  0.00000000000E+00 0.  1.
</event>
<event>
 7    1  0.6103724E-006  0.1171427E+03  0.7818608E-02  0.1309631E+00
          2   -1    0    0  502    0  0.00000000000E+00  0.00000000000E+00  0.52234625836E+03  0.52234625836E+03  0.00000000000E+00 0. -1.
          1   -1    0    0  501    0 -0.00000000000E+00 -0.00000000000E+00 -0.15748346094E+04  0.15748346094E+04  0.00000000000E+00 0. -1.
         25    2    1    2    0    0 -0.72018580528E+02  0.13972383108E+03 -0.58437158896E+03  0.61791933280E+03  0.12499889180E+03 0.  0.
          2    1    1    2  501    0  0.14176567755E+02 -0.11007635022E+03 -0.96841741581E+03  0.97475641532E+03  0.00000000000E+00 0. -1.
          1    1    1    2  502    0  0.57842012773E+02 -0.29647480863E+02  0.50030065376E+03  0.50450511962E+03  0.00000000000E+00 0. -1.
         22    1    3    3    0    0 -0.44541801798E+02  0.43374265584E+02 -0.42602630122E+03  0.43053885812E+03  0.00000000000E+00 0.  1.
         22    1    3    3    0    0 -0.27476778729E+02  0.96349565497E+02 -0.15834528774E+03  0.18738047468E+03  0.00000000000E+00 0.  1.
</event>
<event>
 7    1  0.6103724E-006  0.6661378E+02  0.7818608E-02  0.1376174E+00
          2   -1    0    0  502    0  0.00000000000E+00  0.00000000000E+00  0.20612898415E+04  0.20612898415E+04  0.00000000000E+00 0. -1.
          1   -1    0    0  501    0 -0.00000000000E+00 -0.00000000000E+00 -0.21388230739E+02  0.21388230739E+02  0.00000000000E+00 0. -1.
         25    2    1    2    0    0  0.18586675111E+02  0.35696220958E+02  0.64615529969E+03  0.65936350231E+03  0.12499548865E+03 0.  0.
          2    1    1    2  501    0  0.52389583390E+02 -0.41142771582E+02  0.66380339893E+02  0.94041191111E+02  0.00000000000E+00 0. -1.
          1    1    1    2  502    0 -0.70976258501E+02  0.54465506235E+01  0.13273659712E+04  0.13292733788E+04  0.00000000000E+00 0. -1.
         22    1    3    3    0    0 -0.31093072347E+01 -0.46313465516E+02  0.21862389910E+03  0.22349723519E+03  0.00000000000E+00 0.  1.
         22    1    3    3    0    0  0.21695982346E+02  0.82009686475E+02  0.42753140058E+03  0.43586626712E+03  0.00000000000E+00 0.  1.
</event>
<event>
 7    1  0.6103724E-006  0.1012418E+03  0.7818608E-02  0.1324721E+00
          2   -1    0    0  502    0  0.00000000000E+00  0.00000000000E+00  0.79116004142E+03  0.79116004142E+03  0.00000000000E+00 0. -1.
          1   -1    0    0  501    0 -0.00000000000E+00 -0.00000000000E+00 -0.17737238503E+03  0.17737238503E+03  0.00000000000E+00 0. -1.
         25    2    1    2    0    0  0.46019030377E+02 -0.73451855528E+02  0.13310709249E+03  0.20212795645E+03  0.12500114587E+03 0.  0.
          2    1    1    2  501    0 -0.57756042878E+02 -0.31277848909E+02 -0.13055736235E+03  0.14614817544E+03  0.00000000000E+00 0. -1.
          1    1    1    2  502    0  0.11737012501E+02  0.10472970444E+03  0.61123792625E+03  0.62025629456E+03  0.00000000000E+00 0. -1.
         22    1    3    3    0    0  0.88258507307E+02 -0.43545671213E+02  0.10202780644E+03  0.14175846669E+03  0.00000000000E+00 0.  1.
         22    1    3    3    0    0 -0.42239476929E+02 -0.29906184315E+02  0.31079286050E+02  0.60369489752E+02  0.00000000000E+00 0.  1.
</event>
<event>
 7    1  0.6103724E-006  0.6597846E+02  0.7818608E-02  0.1390767E+00
          2   -1    0    0  502    0  0.00000000000E+00  0.00000000000E+00  0.25981021849E+04  0.25981021849E+04  0.00000000000E+00 0. -1.
          1   -1    0    0  501    0 -0.00000000000E+00 -0.00000000000E+00 -0.33053111502E+02  0.33053111502E+02  0.00000000000E+00 0. -1.
         25    2    1    2    0    0  0.32264335716E+01  0.12205144231E+03  0.13948255843E+04  0.14057278491E+04  0.12500164293E+03 0.  0.
          2    1    1    2  501    0 -0.37407438955E+01 -0.64324200547E+02  0.11724418966E+02  0.65490899681E+02  0.00000000000E+00 0. -1.
          1    1    1    2  502    0  0.51431032386E+00 -0.57727241763E+02  0.11584990701E+04  0.11599365476E+04  0.00000000000E+00 0. -1.
         22    1    3    3    0    0  0.59824580171E+02  0.55823836073E+02  0.85638752243E+03  0.86028766680E+03  0.00000000000E+00 0.  1.
         22    1    3    3    0    0 -0.56598146599E+02  0.66227606238E+02  0.53843806189E+03  0.54544018235E+03  0.00000000000E+00 0.  1.
</event>
<event>
 7    1  0.6103724E-006  0.2282192E+03  0.7818608E-02  0.1342999E+00
          2   -1    0    0  502    0  0.00000000000E+00  0.00000000000E+00  0.33436528766E+04  0.33436528766E+04  0.00000000000E+00 0. -1.
          1   -1    0    0  501    0 -0.00000000000E+00 -0.00000000000E+00 -0.33895740889E+03  0.33895740889E+03  0.00000000000E+00 0. -1.
         25    2    1    2    0    0 -0.11026686274E+03  0.21720704023E+03  0.70636998038E+03  0.75757624913E+03  0.12500217885E+03 0.  0.
          2    1    1    2  501    0 -0.59851686179E+01 -0.24101177227E+02 -0.30799038699E+03  0.30898991482E+03  0.00000000000E+00 0. -1.
          1    1    1    2  502    0  0.11625203135E+03 -0.19310586301E+03  0.26063158743E+04  0.26160441215E+04  0.00000000000E+00 0. -1.
         22    1    3    3    0    0 -0.34763504214E+01  0.11638268635E+02 -0.19825848402E+01  0.12307109804E+02  0.00000000000E+00 0. -1.
         22    1    3    3    0    0 -0.10679051232E+03  0.20556877160E+03  0.70835256522E+03  0.74526913932E+03  0.00000000000E+00 0. -1.
</event>
<event>
 7    1  0.6103724E-006  0.8606129E+02  0.7818608E-02  0.1315354E+00
          2   -1    0    0  502    0  0.00000000000E+00  0.00000000000E+00  0.14148325538E+04  0.14148325538E+04  0.00000000000E+00 0. -1.
          1   -1    0    0  501    0 -0.00000000000E+00 -0.00000000000E+00 -0.33466393202E+03  0.33466393202E+03  0.00000000000E+00 0. -1.
         25    2    1    2    0    0  0.22959183324E+02  0.60644398546E+01  0.25719186688E+03  0.28694320078E+03  0.12499937023E+03 0.  0.
          2    1    1    2  501    0  0.37351852931E+02 -0.77533124480E+02 -0.31204007332E+03  0.32369052144E+03  0.00000000000E+00 0. -1.
          1    1    1    2  502    0 -0.60311036255E+02  0.71468684625E+02  0.11350168282E+04  0.11388627636E+04  0.00000000000E+00 0. -1.
         22    1    3    3    0    0  0.48425546490E+02  0.27272892147E+02  0.24563630149E+03  0.25184526362E+03  0.00000000000E+00 0. -1.
         22    1    3    3    0    0 -0.25466363166E+02 -0.21208452292E+02  0.11555565388E+02  0.35097937161E+02  0.00000000000E+00 0. -1.
</event>
<event>
 7    1  0.6103724E-006  0.1362583E+03  0.7818608E-02  0.1287147E+00
          2   -1    0    0  502    0  0.00000000000E+00  0.00000000000E+00  0.11714262633E+04  0.11714262633E+04  0.00000000000E+00 0. -1.
          1   -1    0    0  501    0 -0.00000000000E+00 -0.00000000000E+00 -0.20856059223E+03  0.20856059223E+03  0.00000000000E+00 0. -1.
         25    2    1    2    0    0  0.10031763854E+03 -0.66967349913E+02  0.77457278052E+03  0.79381102490E+03  0.12499878548E+03 0.  0.
          2    1    1    2  501    0 -0.60592628033E+02  0.12312163563E+03 -0.17162744172E+03  0.21974162666E+03  0.00000000000E+00 0. -1.
          1    1    1    2  502    0 -0.39725010510E+02 -0.56154285719E+02  0.35992033229E+03  0.36643420400E+03  0.00000000000E+00 0. -1.
         22    1    3    3    0    0 -0.25695805293E+02  0.79268219650E+01  0.10617153352E+03  0.10952398571E+03  0.00000000000E+00 0. -1.
         22    1    3    3    0    0  0.12601344384E+03 -0.74894171878E+02  0.66840124700E+03  0.68428703919E+03  0.00000000000E+00 0. -1.
</event>
<event>
 7    1  0.6103724E-006  0.1643282E+03  0.7818608E-02  0.1335844E+00
          2   -1    0    0  502    0  0.00000000000E+00  0.00000000000E+00  0.72927452971E+03  0.72927452971E+03  0.00000000000E+00 0. -1.
          1   -1    0    0  501    0 -0.00000000000E+00 -0.00000000000E+00 -0.13941590292E+04  0.13941590292E+04  0.00000000000E+00 0. -1.
         25    2    1    2    0    0 -0.27041267772E+02  0.16342942055E+03 -0.40626249153E+03  0.45619390440E+03  0.12499304268E+03 0.  0.
          2    1    1    2  501    0  0.36689637129E+02  0.67500518736E+00 -0.95298074072E+03  0.95368699125E+03  0.00000000000E+00 0. -1.
          1    1    1    2  502    0 -0.96483693570E+01 -0.16410442573E+03  0.69435873273E+03  0.71355266329E+03  0.00000000000E+00 0. -1.
         22    1    3    3    0    0 -0.76888190226E+02  0.87233015968E+02 -0.21828391544E+03  0.24732420143E+03  0.00000000000E+00 0.  1.
         22    1    3    3    0    0  0.49846922454E+02  0.76196404580E+02 -0.18797857609E+03  0.20886970297E+03  0.00000000000E+00 0.  1.
</event>
<event>
 7    1  0.1142554E-005  0.6136931E+02  0.7818608E-02  0.1451336E+00
          2   -1    0    0  502    0  0.00000000000E+00  0.00000000000E+00  0.20009264607E+04  0.20009264607E+04  0.00000000000E+00 0. -1.
          1   -1    0    0  501    0 -0.00000000000E+00 -0.00000000000E+00 -0.58443205332E+03  0.58443205332E+03  0.00000000000E+00 0. -1.
         25    2    1    2    0    0  0.70895283829E+02  0.77434304828E+01 -0.22882723902E+03  0.27032112522E+03  0.12500201373E+03 0.  0.
          2    1    1    2  501    0 -0.16144059564E+02 -0.35471922508E+02 -0.33324647179E+03  0.33551765812E+03  0.00000000000E+00 0. -1.
          1    1    1    2  502    0 -0.54751224265E+02  0.27728492025E+02  0.19785681182E+04  0.19795197307E+04  0.00000000000E+00 0. -1.
         22    1    3    3    0    0  0.56745822174E+02  0.58027279480E+02 -0.86045198776E+02  0.11828368328E+03  0.00000000000E+00 0.  1.
         22    1    3    3    0    0  0.14149461655E+02 -0.50283848997E+02 -0.14278204024E+03  0.15203744194E+03  0.00000000000E+00 0.  1.
</event>
<event>
 7    1  0.6103724E-006  0.5441553E+02  0.7818608E-02  0.1456859E+00
          2   -1    0    0  502    0  0.00000000000E+00  0.00000000000E+00  0.11807474733E+04  0.11807474733E+04  0.00000000000E+00 0. -1.
          1   -1    0    0  501    0 -0.00000000000E+00 -0.00000000000E+00 -0.31674003562E+02  0.31674003562E+02  0.00000000000E+00 0. -1.
         25    2    1    2    0    0  0.44123125790E+02 -0.72182375109E+02  0.98699954383E+03  0.99847403639E+03  0.12500062532E+03 0.  0.
          2    1    1    2  501    0 -0.63613662551E+01  0.53319495696E+02  0.81155869956E+01  0.54307442899E+02  0.00000000000E+00 0. -1.
          1    1    1    2  502    0 -0.37761759535E+02  0.18862879414E+02  0.15395833892E+03  0.15963999758E+03  0.00000000000E+00 0. -1.
         22    1    3    3    0    0  0.68888946066E+02 -0.63613869270E+01  0.68061152939E+03  0.68411856287E+03  0.00000000000E+00 0. -1.
         22    1    3    3    0    0 -0.24765820276E+02 -0.65820988182E+02  0.30638801444E+03  0.31435547352E+03  0.00000000000E+00 0. -1.
</event>
<event>
 7    1  0.6103724E-006  0.9835148E+02  0.7818608E-02  0.1362977E+00
          2   -1    0    0  502    0  0.00000000000E+00  0.00000000000E+00  0.70649693635E+03  0.70649693635E+03  0.00000000000E+00 0. -1.
          1   -1    0    0  501    0 -0.00000000000E+00 -0.00000000000E+00 -0.17865646861E+03  0.17865646861E+03  0.00000000000E+00 0. -1.
         25    2    1    2    0    0  0.12988419534E+03  0.11593666048E+02  0.22636334664E+03  0.28960366106E+03  0.12500239402E+03 0.  0.
          2    1    1    2  501    0 -0.88985811452E+02 -0.37905586599E+02 -0.12961337904E+03  0.16172487799E+03  0.00000000000E+00 0. -1.
          1    1    1    2  502    0 -0.40898383883E+02  0.26311920550E+02  0.43109050014E+03  0.43382486591E+03  0.00000000000E+00 0. -1.
         22    1    3    3    0    0  0.26204897914E+02  0.43562365334E+02  0.14596828993E+03  0.15456751927E+03  0.00000000000E+00 0.  1.
         22    1    3    3    0    0  0.10367929742E+03 -0.31968699286E+02  0.80395056712E+02  0.13503614180E+03  0.00000000000E+00 0.  1.
</event>
<event>
 7    1  0.6103724E-006  0.5616552E+02  0.7818608E-02  0.1467428E+00
          2   -1    0    0  502    0  0.00000000000E+00  0.00000000000E+00  0.13647605395E+04  0.13647605395E+04  0.00000000000E+00 0. -1.
          1   -1    0    0  501    0 -0.00000000000E+00 -0.00000000000E+00 -0.27552873644E+02  0.27552873644E+02  0.00000000000E+00 0. -1.
         25    2    1    2    0    0  0.23982799966E+02 -0.71483762266E+02  0.46416657124E+03  0.48658024818E+03  0.12499851638E+03 0.  0.
          2    1    1    2  501    0  0.16700388124E+02  0.34002405935E+02  0.77389699459E+01  0.38664689688E+02  0.00000000000E+00 0. -1.
          1    1    1    2  502    0 -0.40683188090E+02  0.37481356331E+02  0.86530212465E+03  0.86706847526E+03  0.00000000000E+00 0. -1.
         22    1    3    3    0    0  0.40318621048E+02 -0.45921239149E+02  0.77353885483E+02  0.98579790056E+02  0.00000000000E+00 0.  1.
         22    1    3    3    0    0 -0.16335821082E+02 -0.25562523117E+02  0.38681268576E+03  0.38800045812E+03  0.00000000000E+00 0.  1.
</event>
<event>
 7    1  0.6103724E-006  0.5116949E+02  0.7818608E-02  0.1481266E+00
          2   -1    0    0  502    0  0.00000000000E+00  0.00000000000E+00  0.20575267423E+03  0.20575267423E+03  0.00000000000E+00 0. -1.
          1   -1    0    0  501    0 -0.00000000000E+00 -0.00000000000E+00 -0.19520292609E+03  0.19520292609E+03  0.00000000000E+00 0. -1.
         25    2    1    2    0    0  0.81716225051E+02  0.29148796310E+02  0.52512930407E+02  0.16096461455E+03  0.12499922205E+03 0.  0.
          2    1    1    2  501    0 -0.44840731317E+02 -0.21405041932E+02 -0.13272376609E+03  0.14171967080E+03  0.00000000000E+00 0. -1.
          1    1    1    2  502    0 -0.36875493734E+02 -0.77437543775E+01  0.90760583827E+02  0.98271314973E+02  0.00000000000E+00 0. -1.
         22    1    3    3    0    0 -0.19465451512E+02 -0.21442636731E+02  0.36684159363E+02  0.46737757977E+02  0.00000000000E+00 0. -1.
         22    1    3    3    0    0  0.10118167656E+03  0.50591433041E+02  0.15828771044E+02  0.11422685657E+03  0.00000000000E+00 0. -1.
</event>
<event>
 7    1  0.6103724E-006  0.7852625E+02  0.7818608E-02  0.1494768E+00
          2   -1    0    0  502    0  0.00000000000E+00  0.00000000000E+00  0.21738740013E+04  0.21738740013E+04  0.00000000000E+00 0. -1.
          1   -1    0    0  501    0 -0.00000000000E+00 -0.00000000000E+00 -0.17712596868E+03  0.17712596868E+03  0.00000000000E+00 0. -1.
         25    2    1    2    0    0 -0.67578027432E+02  0.12600015983E+02  0.63837675430E+03  0.65411742192E+03  0.12497668198E+03 0.  0.
          2    1    1    2  501    0 -0.12302634680E+02 -0.18650779738E+02 -0.16746291739E+03  0.16894684106E+03  0.00000000000E+00 0. -1.
          1    1    1    2  502    0  0.79880662112E+02  0.60507637546E+01  0.15258341957E+04  0.15279357070E+04  0.00000000000E+00 0. -1.
         22    1    3    3    0    0 -0.37044463715E+02  0.62494212336E+02  0.22033329950E+03  0.23200125374E+03  0.00000000000E+00 0.  1.
         22    1    3    3    0    0 -0.30533563717E+02 -0.49894196353E+02  0.41804345480E+03  0.42211616818E+03  0.00000000000E+00 0.  1.
</event>
<event>
 7    1  0.6103724E-006  0.6223776E+02  0.7818608E-02  0.1485274E+00
          2   -1    0    0  502    0  0.00000000000E+00  0.00000000000E+00  0.20271575790E+04  0.20271575790E+04  0.00000000000E+00 0. -1.
          1   -1    0    0  501    0 -0.00000000000E+00 -0.00000000000E+00 -0.42730318233E+03  0.42730318233E+03  0.00000000000E+00 0. -1.
         25    2    1    2    0    0  0.12410353618E+02  0.32342433221E+02  0.24428006321E+03  0.27658763168E+03  0.12501167488E+03 0.  0.
          2    1    1    2  501    0 -0.21186661018E+01  0.30043293070E+02 -0.41003118269E+03  0.41113581574E+03  0.00000000000E+00 0. -1.
          1    1    1    2  502    0 -0.10291687516E+02 -0.62385726291E+02  0.17656055161E+04  0.17667373139E+04  0.00000000000E+00 0. -1.
         22    1    3    3    0    0 -0.13845807867E+02  0.76611569065E+02  0.15753138451E+03  0.17571902577E+03  0.00000000000E+00 0.  1.
         22    1    3    3    0    0  0.26256161484E+02 -0.44269135844E+02  0.86748678696E+02  0.10086860592E+03  0.00000000000E+00 0.  1.
</event>
<event>
 7    1  0.6103724E-006  0.1187285E+03  0.7818608E-02  0.1364916E+00
          2   -1    0    0  502    0  0.00000000000E+00  0.00000000000E+00  0.40248099877E+03  0.40248099877E+03  0.00000000000E+00 0. -1.
          1   -1    0    0  501    0 -0.00000000000E+00 -0.00000000000E+00 -0.17669307667E+03  0.17669307667E+03  0.00000000000E+00 0. -1.
         25    2    1    2    0    0  0.62061691555E+02 -0.11968635448E+03  0.40363638183E+02  0.18822977930E+03  0.12499899807E+03 0.  0.
          2    1    1    2  501    0 -0.23009001745E+02  0.11290171254E+03 -0.68432228260E+02  0.13401186783E+03  0.00000000000E+00 0. -1.
          1    1    1    2  502    0 -0.39052689811E+02  0.67846419472E+01  0.25385651217E+03  0.25693242832E+03  0.00000000000E+00 0. -1.
         22    1    3    3    0    0 -0.26666492027E+02 -0.12039906136E+02 -0.20811323690E+02  0.35905046031E+02  0.00000000000E+00 0.  1.
         22    1    3    3    0    0  0.88728183582E+02 -0.10764644835E+03  0.61174961873E+02  0.15232473326E+03  0.00000000000E+00 0.  1.
</event>
<event>
 7    1  0.6103724E-006  0.4038604E+02  0.7818608E-02  0.1591674E+00
          2   -1    0    0  502    0  0.00000000000E+00  0.00000000000E+00  0.60248472007E+03  0.60248472007E+03  0.00000000000E+00 0. -1.
          1   -1    0    0  501    0 -0.00000000000E+00 -0.00000000000E+00 -0.20103669442E+03  0.20103669442E+03  0.00000000000E+00 0. -1.
         25    2    1    2    0    0  0.22786699061E+02 -0.18254450866E+02  0.25700750050E+03  0.28727980478E+03  0.12499748913E+03 0.  0.
          2    1    1    2  501    0  0.18699879471E+02  0.13676822952E+02 -0.18385225218E+03  0.18530621039E+03  0.00000000000E+00 0. -1.
          1    1    1    2  502    0 -0.41486578531E+02  0.45776279145E+01  0.32829277733E+03  0.33093539932E+03  0.00000000000E+00 0. -1.
         22    1    3    3    0    0  0.69848976778E+02  0.11550710982E+02  0.16757564843E+03  0.18191727908E+03  0.00000000000E+00 0.  1.
         22    1    3    3    0    0 -0.47062277718E+02 -0.29805161848E+02  0.89431852065E+02  0.10536252569E+03  0.00000000000E+00 0.  1.
</event>
<event>
 7    1  0.6103724E-006  0.7532549E+02  0.7818608E-02  0.1444252E+00
          2   -1    0    0  502    0  0.00000000000E+00  0.00000000000E+00  0.50421429894E+02  0.50421429894E+02  0.00000000000E+00 0. -1.
          1   -1    0    0  501    0 -0.00000000000E+00 -0.00000000000E+00 -0.25593009687E+04  0.25593009687E+04  0.00000000000E+00 0. -1.
         25    2    1    2    0    0 -0.11705256279E+02  0.49565735767E+02 -0.19310606295E+03  0.23560282783E+03  0.12499986299E+03 0.  0.
          2    1    1    2  501    0 -0.21685165255E+02  0.25480340466E+02 -0.22867632183E+04  0.22870079822E+04  0.00000000000E+00 0. -1.
          1    1    1    2  502    0  0.33390421534E+02 -0.75046076232E+02 -0.29010257488E+02  0.87111588481E+02  0.00000000000E+00 0. -1.
         22    1    3    3    0    0  0.43791573727E+02  0.32813233243E+02 -0.15943292827E+03  0.16856235885E+03  0.00000000000E+00 0. -1.
         22    1    3    3    0    0 -0.55496830006E+02  0.16752502524E+02 -0.33673134678E+02  0.67040468977E+02  0.00000000000E+00 0. -1.
</event>
<event>
 7    1  0.6103724E-006  0.7794370E+02  0.7818608E-02  0.1422446E+00
          2   -1    0    0  502    0  0.00000000000E+00  0.00000000000E+00  0.46576668557E+03  0.46576668557E+03  0.00000000000E+00 0. -1.
          1   -1    0    0  501    0 -0.00000000000E+00 -0.00000000000E+00 -0.83429788442E+03  0.83429788442E+03  0.00000000000E+00 0. -1.
         25    2    1    2    0    0  0.14025013133E+02  0.38800668896E+02 -0.25878758987E+02  0.13415324015E+03  0.12500075510E+03 0.  0.
          2    1    1    2  501    0 -0.28343529061E+02 -0.74126119726E+02 -0.75130508407E+03  0.75548485532E+03  0.00000000000E+00 0. -1.
          1    1    1    2  502    0  0.14318515927E+02  0.35325450830E+02  0.40865264420E+03  0.41042647452E+03  0.00000000000E+00 0. -1.
         22    1    3    3    0    0  0.39280324180E+02  0.50521197150E+02 -0.61625558409E+02  0.88842808816E+02  0.00000000000E+00 0. -1.
         22    1    3    3    0    0 -0.25255311047E+02 -0.11720528254E+02  0.35746799422E+02  0.45310431333E+02  0.00000000000E+00 0. -1.
</event>
<event>
 7    1  0.6103724E-006  0.4693533E+02  0.7818608E-02  0.1531229E+00
          2   -1    0    0  502    0  0.00000000000E+00  0.00000000000E+00  0.18546378808E+03  0.18546378808E+03  0.00000000000E+00 0. -1.
          1   -1    0    0  501    0 -0.00000000000E+00 -0.00000000000E+00 -0.40797989453E+03  0.40797989453E+03  0.00000000000E+00 0. -1.
         25    2    1    2    0    0 -0.31903899443E+02  0.57459112551E+01 -0.25105832173E+03  0.28232405213E+03  0.12500286079E+03 0.  0.
          2    1    1    2  501    0  0.49690451302E+02  0.17442960677E+02 -0.13504096357E+03  0.14494640275E+03  0.00000000000E+00 0. -1.
          1    1    1    2  502    0 -0.17786551858E+02 -0.23188871932E+02  0.16358317886E+03  0.16617322773E+03  0.00000000000E+00 0. -1.
         22    1    3    3    0    0  0.19705638204E+02 -0.27869708256E+02 -0.19832766463E+03  0.20124337349E+03  0.00000000000E+00 0.  1.
         22    1    3    3    0    0 -0.51609537647E+02  0.33615619511E+02 -0.52730657100E+02  0.81080678644E+02  0.00000000000E+00 0.  1.
</event>
<event>
 7    1  0.6103724E-006  0.4127920E+02  0.7818608E-02  0.1526158E+00
          2   -1    0    0  502    0  0.00000000000E+00  0.00000000000E+00  0.17564250184E+02  0.17564250184E+02  0.00000000000E+00 0. -1.
          1   -1    0    0  501    0 -0.00000000000E+00 -0.00000000000E+00 -0.81351418349E+03  0.81351418349E+03  0.00000000000E+00 0. -1.
         25    2    1    2    0    0 -0.48315519819E+01  0.20671960182E+02 -0.59739912661E+03  0.61070492627E+03  0.12499646662E+03 0.  0.
          2    1    1    2  501    0 -0.35272027723E+02 -0.30453324335E+02 -0.14770202998E+03  0.15487869628E+03  0.00000000000E+00 0. -1.
          1    1    1    2  502    0  0.40103579705E+02  0.97813641529E+01 -0.50848776726E+02  0.65494811126E+02  0.00000000000E+00 0. -1.
         22    1    3    3    0    0  0.54283691490E+02  0.45594999846E+00 -0.16217596556E+03  0.17102038141E+03  0.00000000000E+00 0.  1.
         22    1    3    3    0    0 -0.59115243472E+02  0.20216010183E+02 -0.43522316104E+03  0.43968454486E+03  0.00000000000E+00 0.  1.
</event>
<event>
 7    1  0.6103724E-006  0.1628194E+03  0.7818608E-02  0.1344036E+00
          2   -1    0    0  502    0  0.00000000000E+00  0.00000000000E+00  0.25465233122E+03  0.25465233122E+03  0.00000000000E+00 0. -1.
          1   -1    0    0  501    0 -0.00000000000E+00 -0.00000000000E+00 -0.90137293292E+03  0.90137293292E+03  0.00000000000E+00 0. -1.
         25    2    1    2    0    0  0.18274762896E+02  0.15315178382E+03 -0.16404944164E+03  0.25754006625E+03  0.12500092230E+03 0.  0.
          2    1    1    2  501    0  0.14271304000E+02 -0.16459317985E+03 -0.67917288473E+03  0.69897810575E+03  0.00000000000E+00 0. -1.
          1    1    1    2  502    0 -0.32546066896E+02  0.11441396033E+02  0.19650172467E+03  0.19950709213E+03  0.00000000000E+00 0. -1.
         22    1    3    3    0    0  0.34504363403E+02  0.87023121020E+02 -0.16470018872E+03  0.18944584147E+03  0.00000000000E+00 0.  1.
         22    1    3    3    0    0 -0.16229600507E+02  0.66128662798E+02  0.65074708190E+00  0.68094224776E+02  0.00000000000E+00 0.  1.
</event>
<event>
 7    1  0.6103724E-006  0.1063238E+03  0.7818608E-02  0.1432108E+00
          2   -1    0    0  502    0  0.00000000000E+00  0.00000000000E+00  0.51977160815E+02  0.51977160815E+02  0.00000000000E+00 0. -1.
          1   -1    0    0  501    0 -0.00000000000E+00 -0.00000000000E+00 -0.21793985184E+04  0.21793985184E+04  0.00000000000E+00 0. -1.
         25    2    1    2    0    0  0.80544338168E+02  0.49074638971E+02 -0.73233732502E+03  0.74889162487E+03  0.12499999033E+03 0.  0.
          2    1    1    2  501    0 -0.80139779373E+02 -0.75033380125E+02 -0.14326333233E+04  0.14368335434E+04  0.00000000000E+00 0. -1.
          1    1    1    2  502    0 -0.40455879510E+00  0.25958741154E+02  0.37549290771E+02  0.45650510923E+02  0.00000000000E+00 0. -1.
         22    1    3    3    0    0  0.57608786196E+02  0.80704029520E+02 -0.32771122904E+03  0.34238364778E+03  0.00000000000E+00 0.  1.
         22    1    3    3    0    0  0.22935551972E+02 -0.31629390549E+02 -0.40462609598E+03  0.40650797709E+03  0.00000000000E+00 0.  1.
</event>
<event>
 7    1  0.6103724E-006  0.3511343E+02  0.7818608E-02  0.1620656E+00
          2   -1    0    0  502    0  0.00000000000E+00  0.00000000000E+00  0.10074944056E+04  0.10074944056E+04  0.00000000000E+00 0. -1.
          1   -1    0    0  501    0 -0.00000000000E+00 -0.00000000000E+00 -0.61269691737E+03  0.61269691737E+03  0.00000000000E+00 0. -1.
         25    2    1    2    0    0 -0.24791553806E+01 -0.44279189449E+02 -0.46639156380E+03  0.48488711012E+03  0.12501050334E+03 0.  0.
          2    1    1    2  501    0 -0.16744976835E+02  0.14898326775E+02 -0.13583016349E+03  0.13766694485E+03  0.00000000000E+00 0. -1.
          1    1    1    2  502    0  0.19224132216E+02  0.29380862674E+02  0.99701921553E+03  0.99763726800E+03  0.00000000000E+00 0. -1.
         22    1    3    3    0    0 -0.58777435649E+01  0.40211020328E+02 -0.23589121101E+03  0.23936611594E+03  0.00000000000E+00 0. -1.
         22    1    3    3    0    0  0.33985881843E+01 -0.84490209777E+02 -0.23050035279E+03  0.24552099418E+03  0.00000000000E+00 0. -1.
</event>
<event>
 7    1  0.6103724E-006  0.3209541E+02  0.7818608E-02  0.1584206E+00
          2   -1    0    0  502    0  0.00000000000E+00  0.00000000000E+00  0.30295970597E+03  0.30295970597E+03  0.00000000000E+00 0. -1.
          1   -1    0    0  501    0 -0.00000000000E+00 -0.00000000000E+00 -0.15864593277E+04  0.15864593277E+04  0.00000000000E+00 0. -1.
         25    2    1    2    0    0 -0.55260027803E+01 -0.22668640026E+00 -0.26341403114E+03  0.29162159622E+03  0.12500246193E+03 0.  0.
          2    1    1    2  501    0 -0.55270253111E+01 -0.30008720322E+02 -0.13078660670E+04  0.13082219692E+04  0.00000000000E+00 0. -1.
          1    1    1    2  502    0  0.11053028091E+02  0.30235406722E+02  0.28778047641E+03  0.28957546832E+03  0.00000000000E+00 0. -1.
         22    1    3    3    0    0 -0.23322259623E+02  0.57997712630E+02 -0.10923554653E+03  0.12585732832E+03  0.00000000000E+00 0.  1.
         22    1    3    3    0    0  0.17796256842E+02 -0.58224399030E+02 -0.15417848460E+03  0.16576426791E+03  0.00000000000E+00 0.  1.
</event>
<event>
 7    1  0.6103724E-006  0.1688336E+03  0.7818608E-02  0.1277861E+00
          2   -1    0    0  502    0  0.00000000000E+00  0.00000000000E+00  0.23641926778E+04  0.23641926778E+04  0.00000000000E+00 0. -1.
          1   -1    0    0  501    0 -0.00000000000E+00 -0.00000000000E+00 -0.17359817969E+03  0.17359817969E+03  0.00000000000E+00 0. -1.
         25    2    1    2    0    0  0.66615461529E+02  0.17126520486E+03  0.11565808021E+03  0.25054140921E+03  0.12499926440E+03 0.  0.
          2    1    1    2  501    0  0.42752945567E+02 -0.42976515804E+02 -0.93956328389E+02  0.11181496729E+03  0.00000000000E+00 0. -1.
          1    1    1    2  502    0 -0.10936840710E+03 -0.12828868905E+03  0.21688927463E+04  0.21754344810E+04  0.00000000000E+00 0. -1.
         22    1    3    3    0    0 -0.36425635245E+02  0.50096150176E+02  0.20761973101E+02  0.65326186882E+02  0.00000000000E+00 0. -1.
         22    1    3    3    0    0  0.10304109677E+03  0.12116905468E+03  0.94896107112E+02  0.18521522233E+03  0.00000000000E+00 0. -1.
</event>
<event>
 7    1  0.6103724E-006  0.1033029E+03  0.7818608E-02  0.1314544E+00
          2   -1    0    0  502    0  0.00000000000E+00  0.00000000000E+00  0.10210551706E+03  0.10210551706E+03  0.00000000000E+00 0. -1.
          1   -1    0    0  501    0 -0.00000000000E+00 -0.00000000000E+00 -0.12392492729E+04  0.12392492729E+04  0.00000000000E+00 0. -1.
         25    2    1    2    0    0  0.54934319422E+02  0.24521548826E+02 -0.10642308794E+03  0.17484040412E+03  0.12499682980E+03 0.  0.
          2    1    1    2  501    0 -0.50791486753E+02 -0.94901723516E+02 -0.10768797154E+04  0.10822458287E+04  0.00000000000E+00 0. -1.
          1    1    1    2  502    0 -0.41428326688E+01  0.70380174690E+02  0.46159047536E+02  0.84268557133E+02  0.00000000000E+00 0. -1.
         22    1    3    3    0    0  0.18929092611E+02  0.53056777351E+02 -0.11504529845E+03  0.12809665439E+03  0.00000000000E+00 0. -1.
         22    1    3    3    0    0  0.36005226811E+02 -0.28535228525E+02  0.86222105136E+01  0.46743749730E+02  0.00000000000E+00 0. -1.
</event>
<event>
 7    1  0.6103724E-006  0.7475161E+02  0.7818608E-02  0.1400354E+00
          2   -1    0    0  502    0  0.00000000000E+00  0.00000000000E+00  0.60862874513E+03  0.60862874513E+03  0.00000000000E+00 0. -1.
          1   -1    0    0  501    0 -0.00000000000E+00 -0.00000000000E+00 -0.72302690226E+03  0.72302690226E+03  0.00000000000E+00 0. -1.
         25    2    1    2    0    0  0.11865129824E+02 -0.38059213541E+02 -0.13257058301E+03  0.18651860668E+03  0.12499978446E+03 0.  0.
          2    1    1    2  501    0 -0.55629527678E+02  0.55753509173E+02 -0.55976312227E+03  0.56527679166E+03  0.00000000000E+00 0. -1.
          1    1    1    2  502    0  0.43764397854E+02 -0.17694295632E+02  0.57793554815E+03  0.57986024905E+03  0.00000000000E+00 0. -1.
         22    1    3    3    0    0  0.22765719545E+02  0.42360168060E+02 -0.65363688457E+02  0.81148466364E+02  0.00000000000E+00 0. -1.
         22    1    3    3    0    0 -0.10900589721E+02 -0.80419381602E+02 -0.67206894557E+02  0.10537014031E+03  0.00000000000E+00 0. -1.
</event>
<event>
 7    1  0.6103724E-006  0.9747505E+02  0.7818608E-02  0.1294654E+00
          2   -1    0    0  502    0  0.00000000000E+00  0.00000000000E+00  0.12195685188E+03  0.12195685188E+03  0.00000000000E+00 0. -1.
          1   -1    0    0  501    0 -0.00000000000E+00 -0.00000000000E+00 -0.79279990504E+03  0.79279990504E+03  0.00000000000E+00 0. -1.
         25    2    1    2    0    0  0.18080008847E+02 -0.52882785027E+01 -0.20893269042E+03  0.24418751229E+03  0.12497927596E+03 0.  0.
          2    1    1    2  501    0 -0.29010318552E+02 -0.93057971729E+02 -0.53736305388E+03  0.54613225172E+03  0.00000000000E+00 0. -1.
          1    1    1    2  502    0  0.10930309704E+02  0.98346250232E+02  0.75452691142E+02  0.12443699291E+03  0.00000000000E+00 0. -1.
         22    1    3    3    0    0  0.27087665273E+02  0.57182334662E+02 -0.10496257347E+03  0.12255897697E+03  0.00000000000E+00 0. -1.
         22    1    3    3    0    0 -0.90076564261E+01 -0.62470613164E+02 -0.10397011695E+03  0.12162853531E+03  0.00000000000E+00 0. -1.
</event>
<event>
 7    1  0.6103724E-006  0.3742738E+02  0.7818608E-02  0.1575612E+00
          2   -1    0    0  502    0  0.00000000000E+00  0.00000000000E+00  0.11112086095E+03  0.11112086095E+03  0.00000000000E+00 0. -1.
          1   -1    0    0  501    0 -0.00000000000E+00 -0.00000000000E+00 -0.16388820434E+03  0.16388820434E+03  0.00000000000E+00 0. -1.
         25    2    1    2    0    0  0.16383551570E+02  0.96552349885E-02 -0.37987570180E+00  0.12605907082E+03  0.12498929624E+03 0.  0.
          2    1    1    2  501    0  0.19116322752E+02 -0.19897707398E+02 -0.89634602119E+02  0.93785470369E+02  0.00000000000E+00 0. -1.
          1    1    1    2  502    0 -0.35499874323E+02  0.19888052163E+02  0.37247134428E+02  0.55164524097E+02  0.00000000000E+00 0. -1.
         22    1    3    3    0    0 -0.35221676744E+02 -0.35723971299E+02  0.27687084239E+02  0.57300464847E+02  0.00000000000E+00 0.  1.
         22    1    3    3    0    0  0.51605228315E+02  0.35733626534E+02 -0.28066959941E+02  0.68758605970E+02  0.00000000000E+00 0.  1.
</event>
<event>
 7    1  0.6103724E-006  0.8315303E+02  0.7818608E-02  0.1405394E+00
          2   -1    0    0  502    0  0.00000000000E+00  0.00000000000E+00  0.18093233073E+04  0.18093233073E+04  0.00000000000E+00 0. -1.
          1   -1    0    0  501    0 -0.00000000000E+00 -0.00000000000E+00 -0.61013090065E+03  0.61013090065E+03  0.00000000000E+00 0. -1.
         25    2    1    2    0    0 -0.47902050186E+02  0.10850610724E+03  0.22171999223E+03  0.28080786057E+03  0.12500047152E+03 0.  0.
          2    1    1    2  501    0  0.18594951290E+01 -0.40740827538E+02 -0.57879194672E+03  0.58022701621E+03  0.00000000000E+00 0. -1.
          1    1    1    2  502    0  0.46042555057E+02 -0.67765279706E+02  0.15562643611E+04  0.15584193311E+04  0.00000000000E+00 0. -1.
         22    1    3    3    0    0 -0.93207631291E+01  0.96916059300E+02  0.60495765110E+02  0.11462694610E+03  0.00000000000E+00 0.  1.
         22    1    3    3    0    0 -0.38581287057E+02  0.11590047943E+02  0.16122422712E+03  0.16618091447E+03  0.00000000000E+00 0.  1.
</event>
<event>
 7    1  0.6103724E-006  0.1044339E+03  0.7818608E-02  0.1272400E+00
          2   -1    0    0  502    0  0.00000000000E+00  0.00000000000E+00  0.26626407030E+04  0.26626407030E+04  0.00000000000E+00 0. -1.
          1   -1    0    0  501    0 -0.00000000000E+00 -0.00000000000E+00 -0.59881120757E+03  0.59881120757E+03  0.00000000000E+00 0. -1.
         25    2    1    2    0    0 -0.71283590223E+02 -0.11426294211E+03  0.79252414545E+03  0.81354617087E+03  0.12500192339E+03 0.  0.
          2    1    1    2  501    0 -0.30974325419E+02  0.99832701152E+02 -0.58220843739E+03  0.59151723696E+03  0.00000000000E+00 0. -1.
          1    1    1    2  502    0  0.10225791564E+03  0.14430240957E+02  0.18535137873E+04  0.18563885027E+04  0.00000000000E+00 0. -1.
         22    1    3    3    0    0  0.20682080916E+02 -0.43029241163E+02  0.43410437437E+03  0.43672173282E+03  0.00000000000E+00 0. -1.
         22    1    3    3    0    0 -0.91965671140E+02 -0.71233700946E+02  0.35841977107E+03  0.37682443805E+03  0.00000000000E+00 0. -1.
</event>
<event>
 7    1  0.6103724E-006  0.1438026E+03  0.7818608E-02  0.1267766E+00
          2   -1    0    0  502    0  0.00000000000E+00  0.00000000000E+00  0.71970543123E+03  0.71970543123E+03  0.00000000000E+00 0. -1.
          1   -1    0    0  501    0 -0.00000000000E+00 -0.00000000000E+00 -0.13291627539E+03  0.13291627539E+03  0.00000000000E+00 0. -1.
         25    2    1    2    0    0 -0.11107550439E+03  0.55602671012E+02  0.18027230444E+02  0.17714162519E+03  0.12499899856E+03 0.  0.
          2    1    1    2  501    0  0.12680741283E+03 -0.13244438999E+03  0.11823607681E+03  0.21817746504E+03  0.00000000000E+00 0. -1.
          1    1    1    2  502    0 -0.15731908446E+02  0.76841718983E+02  0.45052584858E+03  0.45730261639E+03  0.00000000000E+00 0. -1.
         22    1    3    3    0    0  0.24504581894E+02  0.45138637278E+01  0.20451210841E+02  0.32235097711E+02  0.00000000000E+00 0.  1.
         22    1    3    3    0    0 -0.13558008628E+03  0.51088807284E+02 -0.24239803970E+01  0.14490652748E+03  0.00000000000E+00 0.  1.
</event>
<event>
 7    1  0.6103724E-006  0.3456441E+02  0.7818608E-02  0.1563893E+00
          2   -1    0    0  502    0  0.00000000000E+00  0.00000000000E+00  0.46281494312E+03  0.46281494312E+03  0.00000000000E+00 0. -1.
          1   -1    0    0  501    0 -0.00000000000E+00 -0.00000000000E+00 -0.69368033199E+03  0.69368033199E+03  0.00000000000E+00 0. -1.
         25    2    1    2    0    0 -0.18135697125E+02  0.61032367562E+02  0.51166934220E+02  0.14932056436E+03  0.12499888953E+03 0.  0.
          2    1    1    2  501    0  0.17592067074E+02 -0.26911546232E+02 -0.64339825265E+03  0.64420107393E+03  0.00000000000E+00 0. -1.
          1    1    1    2  502    0  0.54363005130E+00 -0.34120821330E+02  0.36136592956E+03  0.36297363682E+03  0.00000000000E+00 0. -1.
         22    1    3    3    0    0 -0.52457543981E+02  0.83708081058E+02  0.40926454064E+02  0.10692900167E+03  0.00000000000E+00 0.  1.
         22    1    3    3    0    0  0.34321846856E+02 -0.22675713496E+02  0.10240480156E+02  0.42391562698E+02  0.00000000000E+00 0.  1.
</event>
<event>
 7    1  0.6103724E-006  0.3222650E+03  0.7818608E-02  0.1217398E+00
          2   -1    0    0  502    0  0.00000000000E+00  0.00000000000E+00  0.20181914275E+04  0.20181914275E+04  0.00000000000E+00 0. -1.
          1   -1    0    0  501    0 -0.00000000000E+00 -0.00000000000E+00 -0.99615196515E+03  0.99615196515E+03  0.00000000000E+00 0. -1.
         25    2    1    2    0    0 -0.94948727228E+02  0.30846166932E+03  0.94329603155E+02  0.35872807053E+03  0.12499556918E+03 0.  0.
          2    1    1    2  501    0 -0.53900433434E+02 -0.22103568501E+02 -0.84841217575E+03  0.85040992729E+03  0.00000000000E+00 0. -1.
          1    1    1    2  502    0  0.14884916066E+03 -0.28635810081E+03  0.17761220350E+04  0.18052053949E+04  0.00000000000E+00 0. -1.
         22    1    3    3    0    0 -0.91601670007E+02  0.27737527851E+03  0.38359814579E+02  0.29461735599E+03  0.00000000000E+00 0.  1.
         22    1    3    3    0    0 -0.33470572204E+01  0.31086390809E+02  0.55969788576E+02  0.64110714540E+02  0.00000000000E+00 0.  1.
</event>
<event>
 7    1  0.6103724E-006  0.8062750E+02  0.7818608E-02  0.1350229E+00
          2   -1    0    0  502    0  0.00000000000E+00  0.00000000000E+00  0.10583303508E+03  0.10583303508E+03  0.00000000000E+00 0. -1.
          1   -1    0    0  501    0 -0.00000000000E+00 -0.00000000000E+00 -0.73404990977E+03  0.73404990977E+03  0.00000000000E+00 0. -1.
         25    2    1    2    0    0 -0.12900583316E+03  0.88828091274E+01 -0.12804444691E+03  0.22077617866E+03  0.12500132556E+03 0.  0.
          2    1    1    2  501    0  0.69109659950E+02 -0.36759217161E+02 -0.53753734723E+03  0.54320694474E+03  0.00000000000E+00 0. -1.
          1    1    1    2  502    0  0.59896173210E+02  0.27876408034E+02  0.37364919447E+02  0.75899821444E+02  0.00000000000E+00 0. -1.
         22    1    3    3    0    0 -0.10239124602E+03 -0.32778486087E+02 -0.31040755760E+02  0.11190140719E+03  0.00000000000E+00 0.  1.
         22    1    3    3    0    0 -0.26614587138E+02  0.41661295214E+02 -0.97003691146E+02  0.10887477147E+03  0.00000000000E+00 0.  1.
</event>
<event>
 7    1  0.6103724E-006  0.7179055E+02  0.7818608E-02  0.1470371E+00
          2   -1    0    0  502    0  0.00000000000E+00  0.00000000000E+00  0.72139643224E+03  0.72139643224E+03  0.00000000000E+00 0. -1.
          1   -1    0    0  501    0 -0.00000000000E+00 -0.00000000000E+00 -0.12220628107E+04  0.12220628107E+04  0.00000000000E+00 0. -1.
         25    2    1    2    0    0 -0.96394717915E+02  0.15707688032E+01 -0.58213138830E+03  0.60315481532E+03  0.12499747616E+03 0.  0.
          2    1    1    2  501    0  0.67453250909E+02 -0.36787184764E+01 -0.62730939607E+03  0.63093625068E+03  0.00000000000E+00 0. -1.
          1    1    1    2  502    0  0.28941467005E+02  0.21079496731E+01  0.70877440591E+03  0.70936817693E+03  0.00000000000E+00 0. -1.
         22    1    3    3    0    0 -0.79522749907E+02 -0.44429112547E+01 -0.57962155862E+03  0.58506816562E+03  0.00000000000E+00 0.  1.
         22    1    3    3    0    0 -0.16871968008E+02  0.60136800579E+01 -0.25098296836E+01  0.18086649699E+02  0.00000000000E+00 0.  1.
</event>
<event>
 7    1  0.6103724E-006  0.8589151E+02  0.7818608E-02  0.1343236E+00
          2   -1    0    0  502    0  0.00000000000E+00  0.00000000000E+00  0.33628157227E+03  0.33628157227E+03  0.00000000000E+00 0. -1.
          1   -1    0    0  501    0 -0.00000000000E+00 -0.00000000000E+00 -0.24834412977E+03  0.24834412977E+03  0.00000000000E+00 0. -1.
         25    2    1    2    0    0 -0.92556845050E+02  0.10339550246E+03  0.41583759187E+02  0.19134105911E+03  0.12499916951E+03 0.  0.
          2    1    1    2  501    0  0.58719312872E+02 -0.29801569276E+02 -0.15923570539E+03  0.17231396086E+03  0.00000000000E+00 0. -1.
          1    1    1    2  502    0  0.33837532178E+02 -0.73593933188E+02  0.20558938870E+03  0.22097068207E+03  0.00000000000E+00 0. -1.
         22    1    3    3    0    0  0.89740297978E+00  0.92695417389E+02  0.21198028599E+02  0.95092597785E+02  0.00000000000E+00 0.  1.
         22    1    3    3    0    0 -0.93454248030E+02  0.10700085075E+02  0.20385730587E+02  0.96248461323E+02  0.00000000000E+00 0.  1.
</event>
<event>
 7    1  0.6103724E-006  0.3287971E+02  0.7818608E-02  0.1571785E+00
          2   -1    0    0  502    0  0.00000000000E+00  0.00000000000E+00  0.22330497195E+04  0.22330497195E+04  0.00000000000E+00 0. -1.
          1   -1    0    0  501    0 -0.00000000000E+00 -0.00000000000E+00 -0.59090152515E+03  0.59090152515E+03  0.00000000000E+00 0. -1.
         25    2    1    2    0    0  0.28818906617E+02 -0.46594100217E+02 -0.12158049820E+03  0.18278169585E+03  0.12500316493E+03 0.  0.
          2    1    1    2  501    0 -0.29090324330E+02  0.13726379345E+02 -0.43800800878E+03  0.43918751828E+03  0.00000000000E+00 0. -1.
          1    1    1    2  502    0  0.27141771288E+00  0.32867720872E+02  0.22017367013E+04  0.22019820305E+04  0.00000000000E+00 0. -1.
         22    1    3    3    0    0  0.73265013951E+02 -0.13845493644E+02 -0.40964984685E+02  0.85074026199E+02  0.00000000000E+00 0. -1.
         22    1    3    3    0    0 -0.44446107334E+02 -0.32748606574E+02 -0.80615513514E+02  0.97707669652E+02  0.00000000000E+00 0. -1.
</event>
<event>
 7    1  0.6103724E-006  0.1010059E+03  0.7818608E-02  0.1287685E+00
          2   -1    0    0  502    0  0.00000000000E+00  0.00000000000E+00  0.29470775030E+04  0.29470775030E+04  0.00000000000E+00 0. -1.
          1   -1    0    0  501    0 -0.00000000000E+00 -0.00000000000E+00 -0.91259389289E+02  0.91259389289E+02  0.00000000000E+00 0. -1.
         25    2    1    2    0    0  0.11740400148E+03 -0.33514329315E+02  0.60129712079E+03  0.62617132717E+03  0.12500157464E+03 0.  0.
          2    1    1    2  501    0 -0.86704071320E+02 -0.53555209143E+02 -0.44563609868E+02  0.11122801686E+03  0.00000000000E+00 0. -1.
          1    1    1    2  502    0 -0.30699930157E+02  0.87069538458E+02  0.22990846027E+04  0.23009375482E+04  0.00000000000E+00 0. -1.
         22    1    3    3    0    0  0.98738470543E+02  0.29917290962E+02  0.43818190059E+03  0.45016408994E+03  0.00000000000E+00 0. -1.
         22    1    3    3    0    0  0.18665530934E+02 -0.63431620277E+02  0.16311522020E+03  0.17600723723E+03  0.00000000000E+00 0. -1.
</event>
<event>
 7    1  0.6103724E-006  0.5250401E+02  0.7818608E-02  0.1505857E+00
          2   -1    0    0  502    0  0.00000000000E+00  0.00000000000E+00  0.10274404054E+03  0.10274404054E+03  0.00000000000E+00 0. -1.
          1   -1    0    0  501    0 -0.00000000000E+00 -0.00000000000E+00 -0.39028222007E+03  0.39028222007E+03  0.00000000000E+00 0. -1.
         25    2    1    2    0    0 -0.43290434603E+02 -0.62674022323E+02 -0.14727531176E+02  0.14712544147E+03  0.12500760198E+03 0.  0.
          2    1    1    2  501    0  0.40920414943E+02  0.31798739895E+02 -0.30015119715E+03  0.30459215579E+03  0.00000000000E+00 0. -1.
          1    1    1    2  502    0  0.23700196604E+01  0.30875282428E+02  0.27340548796E+02  0.41308663337E+02  0.00000000000E+00 0. -1.
         22    1    3    3    0    0 -0.51673257409E+02 -0.92439876852E+02  0.11569492979E+02  0.10653219951E+03  0.00000000000E+00 0.  1.
         22    1    3    3    0    0  0.83828228055E+01  0.29765854529E+02 -0.26297024156E+02  0.40593241968E+02  0.00000000000E+00 0.  1.
</event>
<event>
 7    1  0.6103724E-006  0.2897343E+02  0.7818608E-02  0.1614481E+00
          2   -1    0    0  502    0  0.00000000000E+00  0.00000000000E+00  0.60112506286E+03  0.60112506286E+03  0.00000000000E+00 0. -1.
          1   -1    0    0  501    0 -0.00000000000E+00 -0.00000000000E+00 -0.97997999305E+03  0.97997999305E+03  0.00000000000E+00 0. -1.
         25    2    1    2    0    0  0.44113914089E+02 -0.13266106120E+02 -0.36257089450E+03  0.38627498508E+03  0.12501473341E+03 0.  0.
          2    1    1    2  501    0 -0.16717728359E+02  0.22670492779E+02 -0.60487315456E+03  0.60552866719E+03  0.00000000000E+00 0. -1.
          1    1    1    2  502    0 -0.27396185731E+02 -0.94043866581E+01  0.58858911887E+03  0.58930140364E+03  0.00000000000E+00 0. -1.
         22    1    3    3    0    0  0.77180989212E+02 -0.11718640788E+02 -0.33253764530E+03  0.34157798111E+03  0.00000000000E+00 0. -1.
         22    1    3    3    0    0 -0.33067075123E+02 -0.15474653322E+01 -0.30033249198E+02  0.44697003966E+02  0.00000000000E+00 0. -1.
</event>
<event>
 7    1  0.6103724E-006  0.8495734E+02  0.7818608E-02  0.1316407E+00
          2   -1    0    0  502    0  0.00000000000E+00  0.00000000000E+00  0.33665360234E+03  0.33665360234E+03  0.00000000000E+00 0. -1.
          1   -1    0    0  501    0 -0.00000000000E+00 -0.00000000000E+00 -0.65468198436E+03  0.65468198436E+03  0.00000000000E+00 0. -1.
         25    2    1    2    0    0  0.13234157079E+02 -0.31033714829E+02 -0.20297729561E+03  0.24075468410E+03  0.12499920405E+03 0.  0.
          2    1    1    2  501    0 -0.96812820068E+02  0.42042107885E+02 -0.42058703788E+03  0.43362854772E+03  0.00000000000E+00 0. -1.
          1    1    1    2  502    0  0.83578662988E+02 -0.11008393056E+02  0.30553595146E+03  0.31695235488E+03  0.00000000000E+00 0. -1.
         22    1    3    3    0    0 -0.20321878964E+02 -0.47037072316E+02 -0.19643348685E+03  0.20300635382E+03  0.00000000000E+00 0. -1.
         22    1    3    3    0    0  0.33556036043E+02  0.16003357487E+02 -0.65438087605E+01  0.37748330279E+02  0.00000000000E+00 0. -1.
</event>
<event>
 7    1  0.6103724E-006  0.1547323E+03  0.7818608E-02  0.1232572E+00
          2   -1    0    0  502    0  0.00000000000E+00  0.00000000000E+00  0.85809322775E+03  0.85809322775E+03  0.00000000000E+00 0. -1.
          1   -1    0    0  501    0 -0.00000000000E+00 -0.00000000000E+00 -0.11402228584E+04  0.11402228584E+04  0.00000000000E+00 0. -1.
         25    2    1    2    0    0 -0.12241320239E+03  0.13059598695E+03 -0.60536430903E+03  0.64353018747E+03  0.12499940646E+03 0.  0.
          2    1    1    2  501    0  0.20780735269E+02 -0.15069594249E+03 -0.50124623479E+03  0.52382143325E+03  0.00000000000E+00 0. -1.
          1    1    1    2  502    0  0.10163246712E+03  0.20099955548E+02  0.82448091318E+03  0.83096446542E+03  0.00000000000E+00 0. -1.
         22    1    3    3    0    0 -0.23505354369E+02  0.11280658227E+03 -0.27347761624E+03  0.29676225042E+03  0.00000000000E+00 0.  1.
         22    1    3    3    0    0 -0.98907848019E+02  0.17789404672E+02 -0.33188669279E+03  0.34676793705E+03  0.00000000000E+00 0.  1.
</event>
<event>
 7    1  0.6103724E-006  0.3223851E+03  0.7818608E-02  0.1263846E+00
          2   -1    0    0  502    0  0.00000000000E+00  0.00000000000E+00  0.10370376536E+04  0.10370376536E+04  0.00000000000E+00 0. -1.
          1   -1    0    0  501    0 -0.00000000000E+00 -0.00000000000E+00 -0.79198940848E+03  0.79198940848E+03  0.00000000000E+00 0. -1.
         25    2    1    2    0    0 -0.28836820693E+03  0.78113855729E+02  0.82907895826E+02  0.33429941813E+03  0.12499753815E+03 0.  0.
          2    1    1    2  501    0 -0.22492251801E+02  0.28552721090E+02 -0.63315667075E+03  0.63419912409E+03  0.00000000000E+00 0. -1.
          1    1    1    2  502    0  0.31086045873E+03 -0.10666657682E+03  0.79529702007E+03  0.86052851989E+03  0.00000000000E+00 0. -1.
         22    1    3    3    0    0 -0.26786359078E+03  0.71140099613E+02  0.11123732049E+03  0.29863951264E+03  0.00000000000E+00 0. -1.
         22    1    3    3    0    0 -0.20504616152E+02  0.69737561163E+01 -0.28329424661E+02  0.35659905490E+02  0.00000000000E+00 0. -1.
</event>
<event>
 7    1  0.6103724E-006  0.6940244E+02  0.7818608E-02  0.1447366E+00
          2   -1    0    0  502    0  0.00000000000E+00  0.00000000000E+00  0.70068214411E+03  0.70068214411E+03  0.00000000000E+00 0. -1.
          1   -1    0    0  501    0 -0.00000000000E+00 -0.00000000000E+00 -0.16098522346E+04  0.16098522346E+04  0.00000000000E+00 0. -1.
         25    2    1    2    0    0 -0.36386241370E+02 -0.14162560677E+02  0.94756469675E+02  0.16164261786E+03  0.12500004271E+03 0.  0.
          2    1    1    2  501    0  0.52362883815E+02  0.45848267587E+02 -0.15750900597E+04  0.15766269791E+04  0.00000000000E+00 0. -1.
          1    1    1    2  502    0 -0.15976642445E+02 -0.31685706911E+02  0.57116349956E+03  0.57226478168E+03  0.00000000000E+00 0. -1.
         22    1    3    3    0    0 -0.19619177439E+02  0.50561586414E+02  0.73779373139E+02  0.91568455512E+02  0.00000000000E+00 0. -1.
         22    1    3    3    0    0 -0.16767063931E+02 -0.64724147090E+02  0.20977096536E+02  0.70074162346E+02  0.00000000000E+00 0. -1.
</event>
<event>
 7    1  0.6103724E-006  0.4042438E+02  0.7818608E-02  0.1523605E+00
          2   -1    0    0  502    0  0.00000000000E+00  0.00000000000E+00  0.25198577782E+03  0.25198577782E+03  0.00000000000E+00 0. -1.
          1   -1    0    0  501    0 -0.00000000000E+00 -0.00000000000E+00 -0.90973370726E+02  0.90973370726E+02  0.00000000000E+00 0. -1.
         25    2    1    2    0    0  0.32313153797E+02  0.48238717191E+02  0.11597185079E+03  0.18012731312E+03  0.12500106005E+03 0.  0.
          2    1    1    2  501    0 -0.34582368949E+02 -0.88150660485E+01 -0.49125886262E+02  0.60720658203E+02  0.00000000000E+00 0. -1.
          1    1    1    2  502    0  0.22692151519E+01 -0.39423651143E+02  0.94166442572E+02  0.10211117722E+03  0.00000000000E+00 0. -1.
         22    1    3    3    0    0 -0.29842346548E+02  0.33543368319E+02 -0.31039921936E+01  0.45003977304E+02  0.00000000000E+00 0. -1.
         22    1    3    3    0    0  0.62155500344E+02  0.14695348872E+02  0.11907584298E+03  0.13512333582E+03  0.00000000000E+00 0. -1.
</event>
<event>
 7    1  0.6103724E-006  0.1937726E+03  0.7818608E-02  0.1281675E+00
          2   -1    0    0  502    0  0.00000000000E+00  0.00000000000E+00  0.38864346304E+03  0.38864346304E+03  0.00000000000E+00 0. -1.
          1   -1    0    0  501    0 -0.00000000000E+00 -0.00000000000E+00 -0.94680918098E+03  0.94680918098E+03  0.00000000000E+00 0. -1.
         25    2    1    2    0    0  0.35081987467E+02  0.23901679863E+03  0.63534543056E+02  0.27932345599E+03  0.12500071613E+03 0.  0.
          2    1    1    2  501    0 -0.30458601181E+02 -0.18829179218E+03 -0.82488862161E+03  0.84665386283E+03  0.00000000000E+00 0. -1.
          1    1    1    2  502    0 -0.46233862857E+01 -0.50725006451E+02  0.20318836061E+03  0.20947532520E+03  0.00000000000E+00 0. -1.
         22    1    3    3    0    0 -0.19164912309E+02  0.71794575555E+01 -0.18399984784E+02  0.27520863262E+02  0.00000000000E+00 0.  1.
         22    1    3    3    0    0  0.54246899776E+02  0.23183734107E+03  0.81934527841E+02  0.25180259273E+03  0.00000000000E+00 0.  1.
</event>
<event>
 7    1  0.6103724E-006  0.8858493E+02  0.7818608E-02  0.1410758E+00
          2   -1    0    0  502    0  0.00000000000E+00  0.00000000000E+00  0.73964024384E+03  0.73964024384E+03  0.00000000000E+00 0. -1.
          1   -1    0    0  501    0 -0.00000000000E+00 -0.00000000000E+00 -0.12257944830E+04  0.12257944830E+04  0.00000000000E+00 0. -1.
         25    2    1    2    0    0  0.64154405339E+02 -0.30772387324E+02 -0.85299518298E+02  0.16722337470E+03  0.12499968671E+03 0.  0.
          2    1    1    2  501    0  0.24870356928E+02  0.27000199607E+02 -0.10963836535E+04  0.10969980224E+04  0.00000000000E+00 0. -1.
          1    1    1    2  502    0 -0.89024762267E+02  0.37721877169E+01  0.69552893264E+03  0.70121332977E+03  0.00000000000E+00 0. -1.
         22    1    3    3    0    0 -0.33971623334E+02 -0.30052735847E+02 -0.21643092072E+02  0.50255960425E+02  0.00000000000E+00 0.  1.
         22    1    3    3    0    0  0.98126028674E+02 -0.71965147752E+00 -0.63656426226E+02  0.11696741427E+03  0.00000000000E+00 0.  1.
</event>
<event>
 7    1  0.6103724E-006  0.4166138E+02  0.7818608E-02  0.1539880E+00
          2   -1    0    0  502    0  0.00000000000E+00  0.00000000000E+00  0.11914602778E+02  0.11914602778E+02  0.00000000000E+00 0. -1.
          1   -1    0    0  501    0 -0.00000000000E+00 -0.00000000000E+00 -0.11993374276E+04  0.11993374276E+04  0.00000000000E+00 0. -1.
         25    2    1    2    0    0 -0.68316838372E+02  0.11015866792E+02 -0.70476543441E+03  0.71910233983E+03  0.12500127152E+03 0.  0.
          2    1    1    2  501    0  0.37265185074E+02 -0.90929411788E+01 -0.42418511443E+03  0.42591593877E+03  0.00000000000E+00 0. -1.
          1    1    1    2  502    0  0.31051653298E+02 -0.19229256131E+01 -0.58472275957E+02  0.66233751751E+02  0.00000000000E+00 0. -1.
         22    1    3    3    0    0 -0.10190786200E+02 -0.25511173768E+02 -0.53878725472E+03  0.53948714346E+03  0.00000000000E+00 0.  1.
         22    1    3    3    0    0 -0.58126052173E+02  0.36527040560E+02 -0.16597817969E+03  0.17961519637E+03  0.00000000000E+00 0.  1.
</event>
<event>
 7    1  0.6103724E-006  0.4314318E+02  0.7818608E-02  0.1524920E+00
          2   -1    0    0  502    0  0.00000000000E+00  0.00000000000E+00  0.62036309902E+03  0.62036309902E+03  0.00000000000E+00 0. -1.
          1   -1    0    0  501    0 -0.00000000000E+00 -0.00000000000E+00 -0.18822094727E+04  0.18822094727E+04  0.00000000000E+00 0. -1.
         25    2    1    2    0    0 -0.13978965010E+02  0.85284083922E+01 -0.13574775857E+03  0.18526769054E+03  0.12501407117E+03 0.  0.
          2    1    1    2  501    0 -0.28491011075E+02 -0.16943171566E+02 -0.17207551011E+04  0.17210743524E+04  0.00000000000E+00 0. -1.
          1    1    1    2  502    0  0.42469976085E+02  0.84147631740E+01  0.59465648596E+03  0.59623052874E+03  0.00000000000E+00 0. -1.
         22    1    3    3    0    0 -0.17954573047E+02 -0.52607405851E+02 -0.30285518557E+02  0.63301804697E+02  0.00000000000E+00 0. -1.
         22    1    3    3    0    0  0.39756080365E+01  0.61135814243E+02 -0.10546224001E+03  0.12196588585E+03  0.00000000000E+00 0. -1.
</event>
<event>
 7    1  0.6103724E-006  0.7873672E+02  0.7818608E-02  0.1382849E+00
          2   -1    0    0  502    0  0.00000000000E+00  0.00000000000E+00  0.39425133481E+04  0.39425133481E+04  0.00000000000E+00 0. -1.
          1   -1    0    0  501    0 -0.00000000000E+00 -0.00000000000E+00 -0.37508119260E+03  0.37508119260E+03  0.00000000000E+00 0. -1.
         25    2    1    2    0    0  0.16827338089E+02 -0.11905620021E+03  0.13907283339E+03  0.22231256761E+03  0.12499634641E+03 0.  0.
          2    1    1    2  501    0  0.12707038849E+02  0.76782702469E+02 -0.32874092391E+03  0.33782783676E+03  0.00000000000E+00 0. -1.
          1    1    1    2  502    0 -0.29534376937E+02  0.42273497743E+02  0.37571002460E+04  0.37574541363E+04  0.00000000000E+00 0. -1.
         22    1    3    3    0    0  0.11349642815E+01 -0.58295635502E+02 -0.11281150443E+02  0.59387992202E+02  0.00000000000E+00 0. -1.
         22    1    3    3    0    0  0.15692373807E+02 -0.60760564710E+02  0.15035398383E+03  0.16292457541E+03  0.00000000000E+00 0. -1.
</event>
<event>
 7    1  0.6103724E-006  0.1450368E+03  0.7818608E-02  0.1384704E+00
          2   -1    0    0  502    0  0.00000000000E+00  0.00000000000E+00  0.82747560972E+03  0.82747560972E+03  0.00000000000E+00 0. -1.
          1   -1    0    0  501    0 -0.00000000000E+00 -0.00000000000E+00 -0.46494778763E+03  0.46494778763E+03  0.00000000000E+00 0. -1.
         25    2    1    2    0    0  0.11033644969E+03  0.49434449096E+02  0.28985743205E+02  0.17630418741E+03  0.12500038520E+03 0.  0.
          2    1    1    2  501    0  0.20816581868E+02  0.18088063872E+02 -0.38328268150E+03  0.38427349905E+03  0.00000000000E+00 0. -1.
          1    1    1    2  502    0 -0.13115303156E+03 -0.67522512967E+02  0.71682476038E+03  0.73184571089E+03  0.00000000000E+00 0. -1.
         22    1    3    3    0    0  0.90694971077E+02 -0.21905130854E+02  0.39961672491E+02  0.10150048180E+03  0.00000000000E+00 0.  1.
         22    1    3    3    0    0  0.19641478610E+02  0.71339579949E+02 -0.10975929287E+02  0.74803705611E+02  0.00000000000E+00 0.  1.
</event>
<event>
 7    1  0.6103724E-006  0.7464168E+02  0.7818608E-02  0.1457284E+00
          2   -1    0    0  502    0  0.00000000000E+00  0.00000000000E+00  0.17256893696E+04  0.17256893696E+04  0.00000000000E+00 0. -1.
          1   -1    0    0  501    0 -0.00000000000E+00 -0.00000000000E+00 -0.36754637646E+02  0.36754637646E+02  0.00000000000E+00 0. -1.
         25    2    1    2    0    0 -0.77004430002E+02 -0.48591970067E+02  0.22671322827E+03  0.27443601067E+03  0.12500149714E+03 0.  0.
          2    1    1    2  501    0  0.46459360712E+02  0.51438091248E+02  0.81681148859E+02  0.10712683841E+03  0.00000000000E+00 0. -1.
          1    1    1    2  502    0  0.30545069289E+02 -0.28461211814E+01  0.13805403548E+04  0.13808811581E+04  0.00000000000E+00 0. -1.
         22    1    3    3    0    0 -0.99436671382E+02 -0.51805440068E+02  0.11562833656E+03  0.16106324054E+03  0.00000000000E+00 0.  1.
         22    1    3    3    0    0  0.22432241380E+02  0.32134700015E+01  0.11108489171E+03  0.11337277013E+03  0.00000000000E+00 0.  1.
</event>
<event>
 7    1  0.6103724E-006  0.4460128E+02  0.7818608E-02  0.1514889E+00
          2   -1    0    0  502    0  0.00000000000E+00  0.00000000000E+00  0.29158055781E+03  0.29158055781E+03  0.00000000000E+00 0. -1.
          1   -1    0    0  501    0 -0.00000000000E+00 -0.00000000000E+00 -0.21482576422E+04  0.21482576422E+04  0.00000000000E+00 0. -1.
         25    2    1    2    0    0 -0.13454767659E+02 -0.69726239984E+01  0.24677112438E+01  0.12593935174E+03  0.12499992984E+03 0.  0.
          2    1    1    2  501    0  0.43816836981E+02 -0.89614156417E+01 -0.20849879180E+04  0.20854675352E+04  0.00000000000E+00 0. -1.
          1    1    1    2  502    0 -0.30362069322E+02  0.15934039640E+02  0.22584312237E+03  0.22843131308E+03  0.00000000000E+00 0. -1.
         22    1    3    3    0    0  0.23480449072E+02 -0.51396598634E+02  0.27659981316E+02  0.62912768228E+02  0.00000000000E+00 0. -1.
         22    1    3    3    0    0 -0.36935216731E+02  0.44423974636E+02 -0.25192270072E+02  0.63026583509E+02  0.00000000000E+00 0. -1.
</event>
<event>
 7    1  0.6103724E-006  0.6419598E+02  0.7818608E-02  0.1538808E+00
          2   -1    0    0  502    0  0.00000000000E+00  0.00000000000E+00  0.12313653931E+04  0.12313653931E+04  0.00000000000E+00 0. -1.
          1   -1    0    0  501    0 -0.00000000000E+00 -0.00000000000E+00 -0.75575384875E+03  0.75575384875E+03  0.00000000000E+00 0. -1.
         25    2    1    2    0    0 -0.79746754755E+02 -0.27035756907E+02  0.45402217190E+02  0.15741915444E+03  0.12501580626E+03 0.  0.
          2    1    1    2  501    0  0.19229509251E+02  0.66033571821E+01 -0.69869473113E+03  0.69899049039E+03  0.00000000000E+00 0. -1.
          1    1    1    2  502    0  0.60517245504E+02  0.20432399725E+02  0.11289040583E+04  0.11307095970E+04  0.00000000000E+00 0. -1.
         22    1    3    3    0    0  0.69831253000E+01 -0.42078632103E+02 -0.20628908272E+02  0.47380662460E+02  0.00000000000E+00 0. -1.
         22    1    3    3    0    0 -0.86729880055E+02  0.15042875196E+02  0.66031125461E+02  0.11003849198E+03  0.00000000000E+00 0. -1.
</event>
<event>
 7    1  0.6103724E-006  0.1587921E+03  0.7818608E-02  0.1271392E+00
          2   -1    0    0  502    0  0.00000000000E+00  0.00000000000E+00  0.15967223937E+04  0.15967223937E+04  0.00000000000E+00 0. -1.
          1   -1    0    0  501    0 -0.00000000000E+00 -0.00000000000E+00 -0.12712972596E+03  0.12712972596E+03  0.00000000000E+00 0. -1.
         25    2    1    2    0    0 -0.10459768362E+03 -0.59492811689E+02  0.53112482748E+03  0.55874791187E+03  0.12500230633E+03 0.  0.
          2    1    1    2  501    0 -0.68501467729E+02  0.33259960336E+01 -0.94201531327E+02  0.11652228042E+03  0.00000000000E+00 0. -1.
          1    1    1    2  502    0  0.17309915135E+03  0.56166815656E+02  0.10326693716E+04  0.10485819274E+04  0.00000000000E+00 0. -1.
         22    1    3    3    0    0 -0.26996665384E+02 -0.22061002693E+02  0.40205565887E+03  0.40356444418E+03  0.00000000000E+00 0.  1.
         22    1    3    3    0    0 -0.77601018234E+02 -0.37431808996E+02  0.12906916862E+03  0.15518346769E+03  0.00000000000E+00 0.  1.
</event>
<event>
 7    1  0.6103724E-006  0.1463609E+03  0.7818608E-02  0.1340218E+00
          2   -1    0    0  502    0  0.00000000000E+00  0.00000000000E+00  0.82682328409E+03  0.82682328409E+03  0.00000000000E+00 0. -1.
          1   -1    0    0  501    0 -0.00000000000E+00 -0.00000000000E+00 -0.25661105393E+04  0.25661105393E+04  0.00000000000E+00 0. -1.
         25    2    1    2    0    0  0.17883673558E+03  0.15212373482E+02  0.25879229155E+03  0.33883808948E+03  0.12499522558E+03 0.  0.
          2    1    1    2  501    0 -0.14269206507E+03 -0.31546344334E+02 -0.25232255633E+04  0.25274539443E+04  0.00000000000E+00 0. -1.
          1    1    1    2  502    0 -0.36144670514E+02  0.16333970852E+02  0.52514601657E+03  0.52664178958E+03  0.00000000000E+00 0. -1.
         22    1    3    3    0    0  0.15786314548E+03 -0.37126373060E+02  0.18619640678E+03  0.24691748050E+03  0.00000000000E+00 0. -1.
         22    1    3    3    0    0  0.20973590109E+02  0.52338746543E+02  0.72595884767E+02  0.91920608988E+02  0.00000000000E+00 0. -1.
</event>
<event>
 7    1  0.6103724E-006  0.1053510E+03  0.7818608E-02  0.1312472E+00
          2   -1    0    0  502    0  0.00000000000E+00  0.00000000000E+00  0.46175835517E+03  0.46175835517E+03  0.00000000000E+00 0. -1.
          1   -1    0    0  501    0 -0.00000000000E+00 -0.00000000000E+00 -0.67895662632E+03  0.67895662632E+03  0.00000000000E+00 0. -1.
         25    2    1    2    0    0 -0.15988937115E+03  0.63239409309E+02 -0.63116481283E+02  0.22174795249E+03  0.12499852129E+03 0.  0.
          2    1    1    2  501    0  0.67854738288E+02 -0.18892704596E+02 -0.52731809100E+03  0.53200147452E+03  0.00000000000E+00 0. -1.
          1    1    1    2  502    0  0.92034632867E+02 -0.44346704714E+02  0.37323630114E+03  0.38696555448E+03  0.00000000000E+00 0. -1.
         22    1    3    3    0    0 -0.10248994358E+03  0.74646121034E+02  0.11050627009E+02  0.12727273187E+03  0.00000000000E+00 0.  1.
         22    1    3    3    0    0 -0.57399427571E+02 -0.11406711725E+02 -0.74167108292E+02  0.94475220615E+02  0.00000000000E+00 0.  1.
</event>
<event>
 7    1  0.6103724E-006  0.3529668E+02  0.7818608E-02  0.1548734E+00
          2   -1    0    0  502    0  0.00000000000E+00  0.00000000000E+00  0.51448146957E+03  0.51448146957E+03  0.00000000000E+00 0. -1.
          1   -1    0    0  501    0 -0.00000000000E+00 -0.00000000000E+00 -0.47252747137E+03  0.47252747137E+03  0.00000000000E+00 0. -1.
         25    2    1    2    0    0 -0.71258658360E+01  0.24128812622E+02  0.11357935723E+03  0.17075954242E+03  0.12500229349E+03 0.  0.
          2    1    1    2  501    0  0.34665507193E+02 -0.85068529423E+00 -0.44238418630E+03  0.44374112874E+03  0.00000000000E+00 0. -1.
          1    1    1    2  502    0 -0.27539641357E+02 -0.23278127328E+02  0.37075882726E+03  0.37250826978E+03  0.00000000000E+00 0. -1.
         22    1    3    3    0    0 -0.60208825250E+02 -0.11810705600E+02  0.40348646089E+02  0.73434383268E+02  0.00000000000E+00 0.  1.
         22    1    3    3    0    0  0.53082959414E+02  0.35939518222E+02  0.73230711142E+02  0.97325159155E+02  0.00000000000E+00 0.  1.
</event>
<event>
 7    1  0.6103724E-006  0.1007523E+03  0.7818608E-02  0.1394305E+00
          2   -1    0    0  502    0  0.00000000000E+00  0.00000000000E+00  0.23963371110E+04  0.23963371110E+04  0.00000000000E+00 0. -1.
          1   -1    0    0  501    0 -0.00000000000E+00 -0.00000000000E+00 -0.17364452813E+04  0.17364452813E+04  0.00000000000E+00 0. -1.
         25    2    1    2    0    0  0.40316764653E+02  0.95068371865E+02  0.11444014601E+03  0.19845684269E+03  0.12500053820E+03 0.  0.
          2    1    1    2  501    0 -0.40037534296E+01 -0.10071199715E+03 -0.16927871011E+04  0.16957851002E+04  0.00000000000E+00 0. -1.
          1    1    1    2  502    0 -0.36313011223E+02  0.56436252855E+01  0.22382387849E+04  0.22385404494E+04  0.00000000000E+00 0. -1.
         22    1    3    3    0    0  0.68059674074E+02  0.49170191602E+02  0.11786828081E+03  0.14471613109E+03  0.00000000000E+00 0.  1.
         22    1    3    3    0    0 -0.27742909421E+02  0.45898180263E+02 -0.34281348023E+01  0.53740711596E+02  0.00000000000E+00 0.  1.
</event>
<event>
 7    1  0.6103724E-006  0.9465721E+02  0.7818608E-02  0.1387789E+00
          2   -1    0    0  502    0  0.00000000000E+00  0.00000000000E+00  0.56614588958E+03  0.56614588958E+03  0.00000000000E+00 0. -1.
          1   -1    0    0  501    0 -0.00000000000E+00 -0.00000000000E+00 -0.18866960373E+04  0.18866960373E+04  0.00000000000E+00 0. -1.
         25    2    1    2    0    0  0.61105097736E+02  0.42090042244E+02 -0.28236314209E+03  0.31758210872E+03  0.12499618853E+03 0.  0.
          2    1    1    2  501    0 -0.51343022228E+02 -0.82131640388E+02 -0.15844682739E+04  0.15874260371E+04  0.00000000000E+00 0. -1.
          1    1    1    2  502    0 -0.97620755084E+01  0.40041598144E+02  0.54628126822E+03  0.54783378110E+03  0.00000000000E+00 0. -1.
         22    1    3    3    0    0 -0.36824347110E+02  0.10053240238E+02 -0.46262385141E+02  0.59977566291E+02  0.00000000000E+00 0.  1.
         22    1    3    3    0    0  0.97929444846E+02  0.32036802006E+02 -0.23610075695E+03  0.25760454243E+03  0.00000000000E+00 0.  1.
</event>
<event>
 7    1  0.6103724E-006  0.1629686E+03  0.7818608E-02  0.1334447E+00
          2   -1    0    0  502    0  0.00000000000E+00  0.00000000000E+00  0.16398946615E+04  0.16398946615E+04  0.00000000000E+00 0. -1.
          1   -1    0    0  501    0 -0.00000000000E+00 -0.00000000000E+00 -0.56716734625E+03  0.56716734625E+03  0.00000000000E+00 0. -1.
         25    2    1    2    0    0  0.56395651306E+02 -0.12607721147E+03  0.57487784805E+03  0.60430622456E+03  0.12500216050E+03 0.  0.
          2    1    1    2  501    0  0.11049248440E+02 -0.35788826406E+02 -0.54448609746E+03  0.54577287979E+03  0.00000000000E+00 0. -1.
          1    1    1    2  502    0 -0.67444899746E+02  0.16186603788E+03  0.10423355646E+04  0.10569829034E+04  0.00000000000E+00 0. -1.
         22    1    3    3    0    0 -0.34200625861E+02 -0.10137294904E+02  0.72118239249E+02  0.80457988973E+02  0.00000000000E+00 0. -1.
         22    1    3    3    0    0  0.90596277166E+02 -0.11593991657E+03  0.50275960880E+03  0.52384823559E+03  0.00000000000E+00 0. -1.
</event>
<event>
 7    1  0.6103724E-006  0.8796691E+02  0.7818608E-02  0.1362588E+00
          2   -1    0    0  502    0  0.00000000000E+00  0.00000000000E+00  0.14682294672E+03  0.14682294672E+03  0.00000000000E+00 0. -1.
          1   -1    0    0  501    0 -0.00000000000E+00 -0.00000000000E+00 -0.22882330676E+04  0.22882330676E+04  0.00000000000E+00 0. -1.
         25    2    1    2    0    0  0.32829189474E+02  0.46827059155E+02 -0.78756199855E+03  0.79946899077E+03  0.12500494588E+03 0.  0.
          2    1    1    2  501    0 -0.87315264993E+02 -0.44195694204E+02 -0.14877681475E+04  0.14909833250E+04  0.00000000000E+00 0. -1.
          1    1    1    2  502    0  0.54486075519E+02 -0.26313649517E+01  0.13392002511E+03  0.14460369854E+03  0.00000000000E+00 0. -1.
         22    1    3    3    0    0  0.77800735295E+02  0.10381384220E+02 -0.40267186952E+03  0.41025036509E+03  0.00000000000E+00 0. -1.
         22    1    3    3    0    0 -0.44971545821E+02  0.36445674935E+02 -0.38489012903E+03  0.38921862569E+03  0.00000000000E+00 0. -1.
</event>
<event>
 7    1  0.6103724E-006  0.5194469E+02  0.7818608E-02  0.1484774E+00
          2   -1    0    0  502    0  0.00000000000E+00  0.00000000000E+00  0.67795122618E+03  0.67795122618E+03  0.00000000000E+00 0. -1.
          1   -1    0    0  501    0 -0.00000000000E+00 -0.00000000000E+00 -0.23654814919E+03  0.23654814919E+03  0.00000000000E+00 0. -1.
         25    2    1    2    0    0  0.25165750470E+02  0.25539270818E+02  0.10857547043E+03  0.16940384977E+03  0.12499384860E+03 0.  0.
          2    1    1    2  501    0  0.27820875519E+02 -0.23181169503E+02 -0.20322458843E+03  0.20642577619E+03  0.00000000000E+00 0. -1.
          1    1    1    2  502    0 -0.52986625988E+02 -0.23581013146E+01  0.53605219499E+03  0.53866974941E+03  0.00000000000E+00 0. -1.
         22    1    3    3    0    0  0.19000450985E+02  0.29569863651E+02 -0.20118843656E+02  0.40498911640E+02  0.00000000000E+00 0. -1.
         22    1    3    3    0    0  0.61652994841E+01 -0.40305928337E+01  0.12869431408E+03  0.12890493813E+03  0.00000000000E+00 0. -1.
</event>
<event>
 7    1  0.6103724E-006  0.3617707E+02  0.7818608E-02  0.1568745E+00
          2   -1    0    0  502    0  0.00000000000E+00  0.00000000000E+00  0.92038214891E+03  0.92038214891E+03  0.00000000000E+00 0. -1.
          1   -1    0    0  501    0 -0.00000000000E+00 -0.00000000000E+00 -0.42628478843E+03  0.42628478843E+03  0.00000000000E+00 0. -1.
         25    2    1    2    0    0  0.19574529319E+02  0.14702307658E+02 -0.28878187422E+03  0.31562431218E+03  0.12499766204E+03 0.  0.
          2    1    1    2  501    0 -0.40226912277E+02  0.67743376700E+01 -0.12047660248E+03  0.12719554971E+03  0.00000000000E+00 0. -1.
          1    1    1    2  502    0  0.20652382959E+02 -0.21476645328E+02  0.90335583718E+03  0.90384707544E+03  0.00000000000E+00 0. -1.
         22    1    3    3    0    0 -0.19701340087E+02 -0.75553845510E+01 -0.26258158948E+03  0.26342801250E+03  0.00000000000E+00 0.  1.
         22    1    3    3    0    0  0.39275869406E+02  0.22257692209E+02 -0.26200284741E+02  0.52196299683E+02  0.00000000000E+00 0.  1.
</event>
<event>
 7    1  0.6103724E-006  0.1017667E+03  0.7818608E-02  0.1360832E+00
          2   -1    0    0  502    0  0.00000000000E+00  0.00000000000E+00  0.10654900122E+04  0.10654900122E+04  0.00000000000E+00 0. -1.
          1   -1    0    0  501    0 -0.00000000000E+00 -0.00000000000E+00 -0.13773256486E+04  0.13773256486E+04  0.00000000000E+00 0. -1.
         25    2    1    2    0    0 -0.13861355438E+02  0.13292526771E+03  0.38005067620E+03  0.42181057286E+03  0.12499751567E+03 0.  0.
          2    1    1    2  501    0  0.30034012784E+02 -0.37252126497E+02 -0.13524785385E+04  0.13533247800E+04  0.00000000000E+00 0. -1.
          1    1    1    2  502    0 -0.16172657346E+02 -0.95673141218E+02  0.66059222585E+03  0.66768030797E+03  0.00000000000E+00 0. -1.
         22    1    3    3    0    0  0.43533355471E+02  0.64122446438E+01  0.86707201477E+02  0.97233783778E+02  0.00000000000E+00 0.  1.
         22    1    3    3    0    0 -0.57394710909E+02  0.12651302307E+03  0.29334347472E+03  0.32457678908E+03  0.00000000000E+00 0.  1.
</event>
<event>
 7    1  0.6103724E-006  0.6353356E+02  0.7818608E-02  0.1394175E+00
          2   -1    0    0  502    0  0.00000000000E+00  0.00000000000E+00  0.18208034940E+03  0.18208034940E+03  0.00000000000E+00 0. -1.
          1   -1    0    0  501    0 -0.00000000000E+00 -0.00000000000E+00 -0.25007924812E+03  0.25007924812E+03  0.00000000000E+00 0. -1.
         25    2    1    2    0    0  0.10297515447E+01 -0.76170619932E+01 -0.66534271209E+02  0.14181125756E+03  0.12499817400E+03 0.  0.
          2    1    1    2  501    0  0.17859166671E+02  0.68277777107E+02 -0.12946273794E+03  0.14744967004E+03  0.00000000000E+00 0. -1.
          1    1    1    2  502    0 -0.18888918216E+02 -0.60660715114E+02  0.12799811043E+03  0.14289866992E+03  0.00000000000E+00 0. -1.
         22    1    3    3    0    0 -0.54238969429E+02 -0.32131065145E+02 -0.45689545100E+02  0.77857598753E+02  0.00000000000E+00 0.  1.
         22    1    3    3    0    0  0.55268720973E+02  0.24514003152E+02 -0.20844726109E+02  0.63953658810E+02  0.00000000000E+00 0.  1.
</event>
<event>
 7    1  0.6103724E-006  0.9489216E+02  0.7818608E-02  0.1457032E+00
          2   -1    0    0  502    0  0.00000000000E+00  0.00000000000E+00  0.32476317066E+03  0.32476317066E+03  0.00000000000E+00 0. -1.
          1   -1    0    0  501    0 -0.00000000000E+00 -0.00000000000E+00 -0.63535764266E+03  0.63535764266E+03  0.00000000000E+00 0. -1.
         25    2    1    2    0    0 -0.37026717628E+02 -0.10009336876E+03 -0.50140777221E+03  0.52765930736E+03  0.12499972125E+03 0.  0.
          2    1    1    2  501    0 -0.13595101444E+02  0.19990140184E+02 -0.11230482554E+03  0.11487735341E+03  0.00000000000E+00 0. -1.
          1    1    1    2  502    0  0.50621819073E+02  0.80103228575E+02  0.30311812575E+03  0.31758415256E+03  0.00000000000E+00 0. -1.
         22    1    3    3    0    0 -0.50655842958E+02 -0.12758302924E+02 -0.33673589984E+03  0.34076363503E+03  0.00000000000E+00 0.  1.
         22    1    3    3    0    0  0.13629125330E+02 -0.87335065835E+02 -0.16467187238E+03  0.18689567232E+03  0.00000000000E+00 0.  1.
</event>
<event>
 7    1  0.6103724E-006  0.6709673E+02  0.7818608E-02  0.1405670E+00
          2   -1    0    0  502    0  0.00000000000E+00  0.00000000000E+00  0.22353007821E+03  0.22353007821E+03  0.00000000000E+00 0. -1.
          1   -1    0    0  501    0 -0.00000000000E+00 -0.00000000000E+00 -0.30809932079E+03  0.30809932079E+03  0.00000000000E+00 0. -1.
         25    2    1    2    0    0  0.10780660280E+03 -0.17132800902E+02  0.84720163802E+02  0.18633121412E+03  0.12500407484E+03 0.  0.
          2    1    1    2  501    0 -0.49669020510E+02  0.87473274011E+01 -0.24462482063E+03  0.24976955419E+03  0.00000000000E+00 0. -1.
          1    1    1    2  502    0 -0.58137582292E+02  0.83854735010E+01  0.75335414249E+02  0.95528630685E+02  0.00000000000E+00 0. -1.
         22    1    3    3    0    0  0.79313758308E+02 -0.69062271566E+02  0.66208496252E+02  0.12427322554E+03  0.00000000000E+00 0. -1.
         22    1    3    3    0    0  0.28492844495E+02  0.51929470664E+02  0.18511667550E+02  0.62057988578E+02  0.00000000000E+00 0. -1.
</event>
<event>
 7    1  0.6103724E-006  0.6055022E+02  0.7818608E-02  0.1507563E+00
          2   -1    0    0  502    0  0.00000000000E+00  0.00000000000E+00  0.23428281296E+04  0.23428281296E+04  0.00000000000E+00 0. -1.
          1   -1    0    0  501    0 -0.00000000000E+00 -0.00000000000E+00 -0.21636570577E+03  0.21636570577E+03  0.00000000000E+00 0. -1.
         25    2    1    2    0    0 -0.42801622568E+02  0.11636538210E+02 -0.25408496991E+02  0.13504081132E+03  0.12499216411E+03 0.  0.
          2    1    1    2  501    0 -0.17243602028E+02 -0.20176470388E+02 -0.13444150495E+03  0.13703630913E+03  0.00000000000E+00 0. -1.
          1    1    1    2  502    0  0.60045224595E+02  0.85399321775E+01  0.22863124258E+04  0.22871167149E+04  0.00000000000E+00 0. -1.
         22    1    3    3    0    0  0.49051165964E+01  0.62128375595E+02 -0.19611373576E+02  0.65334532955E+02  0.00000000000E+00 0.  1.
         22    1    3    3    0    0 -0.47706739164E+02 -0.50491837385E+02 -0.57971234154E+01  0.69706278369E+02  0.00000000000E+00 0.  1.
</event>
<event>
 7    1  0.6103724E-006  0.3403340E+03  0.7818608E-02  0.1212990E+00
          2   -1    0    0  502    0  0.00000000000E+00  0.00000000000E+00  0.31767011118E+04  0.31767011118E+04  0.00000000000E+00 0. -1.
          1   -1    0    0  501    0 -0.00000000000E+00 -0.00000000000E+00 -0.55636850609E+02  0.55636850609E+02  0.00000000000E+00 0. -1.
         25    2    1    2    0    0 -0.91195440645E+02 -0.29249638601E+03  0.99574655083E+03  0.10492891690E+04  0.12500329001E+03 0.  0.
          2    1    1    2  501    0 -0.37519249817E+02 -0.43965472966E+02  0.49183306687E+02  0.75892388133E+02  0.00000000000E+00 0. -1.
          1    1    1    2  502    0  0.12871469046E+03  0.33646185897E+03  0.20761344037E+04  0.21071564053E+04  0.00000000000E+00 0. -1.
         22    1    3    3    0    0 -0.72365550781E+02 -0.74834224351E+02  0.22036915573E+03  0.24372012406E+03  0.00000000000E+00 0. -1.
         22    1    3    3    0    0 -0.18829889864E+02 -0.21766216166E+03  0.77537739510E+03  0.80556904496E+03  0.00000000000E+00 0. -1.
</event>
<event>
 7    1  0.6103724E-006  0.3682228E+02  0.7818608E-02  0.1566799E+00
          2   -1    0    0  502    0  0.00000000000E+00  0.00000000000E+00  0.15147683062E+03  0.15147683062E+03  0.00000000000E+00 0. -1.
          1   -1    0    0  501    0 -0.00000000000E+00 -0.00000000000E+00 -0.16968354193E+03  0.16968354193E+03  0.00000000000E+00 0. -1.
         25    2    1    2    0    0  0.87481089588E+01 -0.20360930890E+02 -0.20900854381E+02  0.12866699994E+03  0.12500901665E+03 0.  0.
          2    1    1    2  501    0 -0.26536178676E+02 -0.13188875861E+02 -0.88702780060E+02  0.93521646775E+02  0.00000000000E+00 0. -1.
          1    1    1    2  502    0  0.17788069717E+02  0.33549806751E+02  0.91396923134E+02  0.98971725840E+02  0.00000000000E+00 0. -1.
         22    1    3    3    0    0  0.23915215804E+02 -0.35449138302E+02 -0.66062362052E+02  0.78694438388E+02  0.00000000000E+00 0.  1.
         22    1    3    3    0    0 -0.15167106846E+02  0.15088207412E+02  0.45161507671E+02  0.49972561552E+02  0.00000000000E+00 0.  1.
</event>
<event>
 7    1  0.6103724E-006  0.1205930E+03  0.7818608E-02  0.1346261E+00
          2   -1    0    0  502    0  0.00000000000E+00  0.00000000000E+00  0.39264725982E+03  0.39264725982E+03  0.00000000000E+00 0. -1.
          1   -1    0    0  501    0 -0.00000000000E+00 -0.00000000000E+00 -0.11228540301E+04  0.11228540301E+04  0.00000000000E+00 0. -1.
         25    2    1    2    0    0 -0.67283131064E+02 -0.76289721237E+02  0.22040721529E+03  0.27304067832E+03  0.12499892069E+03 0.  0.
          2    1    1    2  501    0  0.10771573615E+03  0.54998476093E+02 -0.10895298214E+04  0.10962220322E+04  0.00000000000E+00 0. -1.
          1    1    1    2  502    0 -0.40432605089E+02  0.21291245145E+02  0.13891583581E+03  0.14623857942E+03  0.00000000000E+00 0. -1.
         22    1    3    3    0    0 -0.74253011282E+02 -0.13523083334E+02  0.48034223537E+02  0.89463233220E+02  0.00000000000E+00 0.  1.
         22    1    3    3    0    0  0.69698802180E+01 -0.62766637904E+02  0.17237299175E+03  0.18357744510E+03  0.00000000000E+00 0.  1.
</event>
<event>
 7    1  0.6103724E-006  0.8573566E+02  0.7818608E-02  0.1376826E+00
          2   -1    0    0  502    0  0.00000000000E+00  0.00000000000E+00  0.20768353319E+04  0.20768353319E+04  0.00000000000E+00 0. -1.
          1   -1    0    0  501    0 -0.00000000000E+00 -0.00000000000E+00 -0.17528464310E+04  0.17528464310E+04  0.00000000000E+00 0. -1.
         25    2    1    2    0    0 -0.39472097062E+02  0.32028047405E+02  0.82728076193E+03  0.83821401253E+03  0.12500171792E+03 0.  0.
          2    1    1    2  501    0 -0.47883619095E+02  0.13476295969E+02 -0.17450752775E+04  0.17457841148E+04  0.00000000000E+00 0. -1.
          1    1    1    2  502    0  0.87355716157E+02 -0.45504343374E+02  0.12417834165E+04  0.12456836356E+04  0.00000000000E+00 0. -1.
         22    1    3    3    0    0  0.12752988932E+02 -0.32727906697E+02  0.96138728342E+02  0.10235433401E+03  0.00000000000E+00 0.  1.
         22    1    3    3    0    0 -0.52225085994E+02  0.64755954102E+02  0.73114203359E+03  0.73585967852E+03  0.00000000000E+00 0.  1.
</event>
<event>
 7    1  0.6103724E-006  0.1184083E+03  0.7818608E-02  0.1357150E+00
          2   -1    0    0  502    0  0.00000000000E+00  0.00000000000E+00  0.49298216200E+03  0.49298216200E+03  0.00000000000E+00 0. -1.
          1   -1    0    0  501    0 -0.00000000000E+00 -0.00000000000E+00 -0.35673859364E+04  0.35673859364E+04  0.00000000000E+00 0. -1.
         25    2    1    2    0    0 -0.24570833508E+02  0.10398204765E+03  0.55633515278E+02  0.17359799735E+03  0.12500073827E+03 0.  0.
          2    1    1    2  501    0  0.66583080954E+02 -0.98110074689E+02 -0.35062093971E+04  0.35082136807E+04  0.00000000000E+00 0. -1.
          1    1    1    2  502    0 -0.42012247445E+02 -0.58719729595E+01  0.37617210739E+03  0.37855642034E+03  0.00000000000E+00 0. -1.
         22    1    3    3    0    0 -0.61229845633E+02  0.44040155741E+02 -0.11647087699E+02  0.76316996572E+02  0.00000000000E+00 0. -1.
         22    1    3    3    0    0  0.36659012125E+02  0.59941891908E+02  0.67280602977E+02  0.97281000778E+02  0.00000000000E+00 0. -1.
</event>
<event>
 7    1  0.6103724E-006  0.1056149E+03  0.7818608E-02  0.1417622E+00
          2   -1    0    0  502    0  0.00000000000E+00  0.00000000000E+00  0.44899347966E+03  0.44899347966E+03  0.00000000000E+00 0. -1.
          1   -1    0    0  501    0 -0.00000000000E+00 -0.00000000000E+00 -0.22449405941E+03  0.22449405941E+03  0.00000000000E+00 0. -1.
         25    2    1    2    0    0  0.58470737121E+02 -0.84124043496E+02 -0.20197579754E+02  0.16287761443E+03  0.12500197303E+03 0.  0.
          2    1    1    2  501    0 -0.24178858802E+02 -0.16359931417E+02 -0.12376197220E+03  0.12715852442E+03  0.00000000000E+00 0. -1.
          1    1    1    2  502    0 -0.34291878319E+02  0.10048397491E+03  0.36845897220E+03  0.38345140022E+03  0.00000000000E+00 0. -1.
         22    1    3    3    0    0  0.39519987081E+02 -0.53761677215E+02 -0.73120294139E+02  0.98988508075E+02  0.00000000000E+00 0. -1.
         22    1    3    3    0    0  0.18950750040E+02 -0.30362366281E+02  0.52922714385E+02  0.63889106358E+02  0.00000000000E+00 0. -1.
</event>
<event>
 7    1  0.6103724E-006  0.7533468E+02  0.7818608E-02  0.1381715E+00
          2   -1    0    0  502    0  0.00000000000E+00  0.00000000000E+00  0.34182403796E+02  0.34182403796E+02  0.00000000000E+00 0. -1.
          1   -1    0    0  501    0 -0.00000000000E+00 -0.00000000000E+00 -0.13924128421E+04  0.13924128421E+04  0.00000000000E+00 0. -1.
         25    2    1    2    0    0 -0.44510606351E+02  0.79965711942E+02 -0.53937819558E+03  0.56118554521E+03  0.12499867648E+03 0.  0.
          2    1    1    2  501    0  0.68433916347E+02 -0.31112380323E+02 -0.80602281379E+03  0.80952081966E+03  0.00000000000E+00 0. -1.
          1    1    1    2  502    0 -0.23923309996E+02 -0.48853331619E+02 -0.12829428889E+02  0.55888880979E+02  0.00000000000E+00 0. -1.
         22    1    3    3    0    0  0.32144114045E+02 -0.22557779925E+00 -0.50378280360E+02  0.59760070993E+02  0.00000000000E+00 0. -1.
         22    1    3    3    0    0 -0.76654720396E+02  0.80191289741E+02 -0.48899991522E+03  0.50142547422E+03  0.00000000000E+00 0. -1.
</event>
<event>
 7    1  0.6103724E-006  0.6366115E+02  0.7818608E-02  0.1480233E+00
          2   -1    0    0  502    0  0.00000000000E+00  0.00000000000E+00  0.30008222098E+02  0.30008222098E+02  0.00000000000E+00 0. -1.
          1   -1    0    0  501    0 -0.00000000000E+00 -0.00000000000E+00 -0.22653025392E+04  0.22653025392E+04  0.00000000000E+00 0. -1.
         25    2    1    2    0    0  0.22013185111E+02  0.31478026514E+02 -0.10278351216E+04  0.10361202980E+04  0.12499915325E+03 0.  0.
          2    1    1    2  501    0  0.29522748497E+02  0.76895925395E+01 -0.11923236113E+04  0.11927138452E+04  0.00000000000E+00 0. -1.
          1    1    1    2  502    0 -0.51535933608E+02 -0.39167619054E+02 -0.15135584167E+02  0.66476618019E+02  0.00000000000E+00 0. -1.
         22    1    3    3    0    0 -0.15550302912E+02  0.45169390784E+02 -0.15104953384E+03  0.15842363289E+03  0.00000000000E+00 0. -1.
         22    1    3    3    0    0  0.37563488023E+02 -0.13691364270E+02 -0.87678558778E+03  0.87769666516E+03  0.00000000000E+00 0. -1.
</event>
<event>
 7    1  0.6103724E-006  0.4323310E+03  0.7818608E-02  0.1218536E+00
          2   -1    0    0  502    0  0.00000000000E+00  0.00000000000E+00  0.18094391975E+04  0.18094391975E+04  0.00000000000E+00 0. -1.
          1   -1    0    0  501    0 -0.00000000000E+00 -0.00000000000E+00 -0.29638833392E+03  0.29638833392E+03  0.00000000000E+00 0. -1.
         25    2    1    2    0    0  0.75389680798E+02 -0.45213038912E+03  0.11474077859E+04  0.12418837126E+04  0.12500014331E+03 0.  0.
          2    1    1    2  501    0 -0.40993645056E+02  0.42647947444E+03 -0.63093229198E+02  0.43306578787E+03  0.00000000000E+00 0. -1.
          1    1    1    2  502    0 -0.34396035742E+02  0.25650914687E+02  0.42873630689E+03  0.43087803094E+03  0.00000000000E+00 0. -1.
         22    1    3    3    0    0  0.57685359528E+02 -0.26767066782E+03  0.83391329374E+03  0.87771667900E+03  0.00000000000E+00 0. -1.
         22    1    3    3    0    0  0.17704321270E+02 -0.18445972130E+03  0.31349449217E+03  0.36416703364E+03  0.00000000000E+00 0. -1.
</event>
<event>
 7    1  0.6103724E-006  0.1289059E+03  0.7818608E-02  0.1360273E+00
          2   -1    0    0  502    0  0.00000000000E+00  0.00000000000E+00  0.47415027461E+04  0.47415027461E+04  0.00000000000E+00 0. -1.
          1   -1    0    0  501    0 -0.00000000000E+00 -0.00000000000E+00 -0.78760728173E+03  0.78760728173E+03  0.00000000000E+00 0. -1.
         25    2    1    2    0    0  0.98564877540E+02  0.12187772272E+03  0.81665017725E+03  0.84090119549E+03  0.12501237616E+03 0.  0.
          2    1    1    2  501    0 -0.37959381127E+01 -0.37764364208E+02 -0.77399073220E+03  0.77492077652E+03  0.00000000000E+00 0. -1.
          1    1    1    2  502    0 -0.94768939428E+02 -0.84113358515E+02  0.39112360193E+04  0.39132880558E+04  0.00000000000E+00 0. -1.
         22    1    3    3    0    0  0.69046187867E+02 -0.15875379008E+01  0.37773357897E+03  0.38399551171E+03  0.00000000000E+00 0. -1.
         22    1    3    3    0    0  0.29518689673E+02  0.12346526062E+03  0.43891659828E+03  0.45690568378E+03  0.00000000000E+00 0. -1.
</event>
<event>
 7    1  0.6103724E-006  0.7551408E+02  0.7818608E-02  0.1379442E+00
          2   -1    0    0  502    0  0.00000000000E+00  0.00000000000E+00  0.24367851310E+04  0.24367851310E+04  0.00000000000E+00 0. -1.
          1   -1    0    0  501    0 -0.00000000000E+00 -0.00000000000E+00 -0.35513974810E+03  0.35513974810E+03  0.00000000000E+00 0. -1.
         25    2    1    2    0    0  0.95166223904E+02  0.84390584118E+02  0.10781943674E+04  0.10928430998E+04  0.12499826414E+03 0.  0.
          2    1    1    2  501    0 -0.65005667407E+02 -0.38061423224E+02 -0.34316299457E+03  0.35133353039E+03  0.00000000000E+00 0. -1.
          1    1    1    2  502    0 -0.30160556497E+02 -0.46329160894E+02  0.13466140100E+04  0.13477482488E+04  0.00000000000E+00 0. -1.
         22    1    3    3    0    0  0.81266596669E+02  0.35325596427E+02  0.96045883263E+03  0.96453788245E+03  0.00000000000E+00 0.  1.
         22    1    3    3    0    0  0.13899627235E+02  0.49064987690E+02  0.11773553480E+03  0.12830521739E+03  0.00000000000E+00 0.  1.
</event>
<event>
 7    1  0.6103724E-006  0.1280313E+03  0.7818608E-02  0.1423677E+00
          2   -1    0    0  502    0  0.00000000000E+00  0.00000000000E+00  0.63342764657E+03  0.63342764657E+03  0.00000000000E+00 0. -1.
          1   -1    0    0  501    0 -0.00000000000E+00 -0.00000000000E+00 -0.19291160460E+03  0.19291160460E+03  0.00000000000E+00 0. -1.
         25    2    1    2    0    0 -0.44798133399E+02 -0.97622954985E+02  0.26903251093E+02  0.16698891023E+03  0.12499758847E+03 0.  0.
          2    1    1    2  501    0 -0.10748224075E+02 -0.20319991911E+02 -0.11378224006E+03  0.11608111192E+03  0.00000000000E+00 0. -1.
          1    1    1    2  502    0  0.55546357474E+02  0.11794294690E+03  0.52739503093E+03  0.54326922902E+03  0.00000000000E+00 0. -1.
         22    1    3    3    0    0  0.20446798183E+02  0.19706653782E+02  0.15251299334E+02  0.32233924530E+02  0.00000000000E+00 0.  1.
         22    1    3    3    0    0 -0.65244931582E+02 -0.11732960877E+03  0.11651951759E+02  0.13475498570E+03  0.00000000000E+00 0.  1.
</event>
<event>
 7    1  0.6103724E-006  0.5260388E+02  0.7818608E-02  0.1446312E+00
          2   -1    0    0  502    0  0.00000000000E+00  0.00000000000E+00  0.30749522133E+04  0.30749522133E+04  0.00000000000E+00 0. -1.
          1   -1    0    0  501    0 -0.00000000000E+00 -0.00000000000E+00 -0.11428625435E+02  0.11428625435E+02  0.00000000000E+00 0. -1.
         25    2    1    2    0    0 -0.50130889670E+02  0.15182000872E+02  0.18572869346E+04  0.18622252838E+04  0.12499860312E+03 0.  0.
          2    1    1    2  501    0  0.26609152846E+01 -0.47109446486E+02  0.59247687550E+02  0.75740800751E+02  0.00000000000E+00 0. -1.
          1    1    1    2  502    0  0.47469974385E+02  0.31927445614E+02  0.11469889657E+04  0.11484147542E+04  0.00000000000E+00 0. -1.
         22    1    3    3    0    0  0.24508994821E+02  0.29319896010E+02  0.11924658433E+04  0.11930780086E+04  0.00000000000E+00 0. -1.
         22    1    3    3    0    0 -0.74639884491E+02 -0.14137895137E+02  0.66482109127E+03  0.66914727515E+03  0.00000000000E+00 0. -1.
</event>
<event>
 7    1  0.6103724E-006  0.7056308E+03  0.7818608E-02  0.1092233E+00
          2   -1    0    0  502    0  0.00000000000E+00  0.00000000000E+00  0.25049634852E+04  0.25049634852E+04  0.00000000000E+00 0. -1.
          1   -1    0    0  501    0 -0.00000000000E+00 -0.00000000000E+00 -0.13795586508E+04  0.13795586508E+04  0.00000000000E+00 0. -1.
         25    2    1    2    0    0 -0.88982927708E+02 -0.69705870441E+03  0.59224259339E+03  0.92746277158E+03  0.12500841741E+03 0.  0.
          2    1    1    2  501    0 -0.26880307963E+02  0.70666024403E+03 -0.11065563501E+04  0.13132243553E+04  0.00000000000E+00 0. -1.
          1    1    1    2  502    0  0.11586323567E+03 -0.96015396163E+01  0.16397185912E+04  0.16438350091E+04  0.00000000000E+00 0. -1.
         22    1    3    3    0    0 -0.42652894325E+02 -0.37549997682E+03  0.39849553224E+03  0.54919777057E+03  0.00000000000E+00 0.  1.
         22    1    3    3    0    0 -0.46330033384E+02 -0.32155872759E+03  0.19374706115E+03  0.37826500101E+03  0.00000000000E+00 0.  1.
</event>
<event>
 7    1  0.6103724E-006  0.8083537E+02  0.7818608E-02  0.1364940E+00
          2   -1    0    0  502    0  0.00000000000E+00  0.00000000000E+00  0.17387399903E+03  0.17387399903E+03  0.00000000000E+00 0. -1.
          1   -1    0    0  501    0 -0.00000000000E+00 -0.00000000000E+00 -0.18282964204E+03  0.18282964204E+03  0.00000000000E+00 0. -1.
         25    2    1    2    0    0  0.38162325192E+02  0.63900715061E+02  0.83156906749E+02  0.16756306090E+03  0.12499057480E+03 0.  0.
          2    1    1    2  501    0 -0.40310382098E+02  0.41989030244E+02 -0.22520745815E+02  0.62411453738E+02  0.00000000000E+00 0. -1.
          1    1    1    2  502    0  0.21480569056E+01 -0.10588974530E+03 -0.69591803944E+02  0.12672912643E+03  0.00000000000E+00 0. -1.
         22    1    3    3    0    0  0.56030645187E+01 -0.34109003743E+02 -0.63229752331E+00  0.34571928909E+02  0.00000000000E+00 0.  1.
         22    1    3    3    0    0  0.32559260673E+02  0.98009718804E+02  0.83789204272E+02  0.13299113199E+03  0.00000000000E+00 0.  1.
</event>
<event>
 7    1  0.6103724E-006  0.8100031E+02  0.7818608E-02  0.1375745E+00
          2   -1    0    0  502    0  0.00000000000E+00  0.00000000000E+00  0.26498528215E+04  0.26498528215E+04  0.00000000000E+00 0. -1.
          1   -1    0    0  501    0 -0.00000000000E+00 -0.00000000000E+00 -0.50975337770E+03  0.50975337770E+03  0.00000000000E+00 0. -1.
         25    2    1    2    0    0 -0.44407057747E+02 -0.14833691214E+02  0.28278111447E+03  0.31270148310E+03  0.12500013464E+03 0.  0.
          2    1    1    2  501    0 -0.36205396679E+01 -0.52997218014E+02 -0.49263067327E+03  0.49548642128E+03  0.00000000000E+00 0. -1.
          1    1    1    2  502    0  0.48027597415E+02  0.67830909228E+02  0.23499490026E+04  0.23514182948E+04  0.00000000000E+00 0. -1.
         22    1    3    3    0    0 -0.27501521402E+02  0.31102905126E+02  0.25084114037E+03  0.25425381431E+03  0.00000000000E+00 0.  1.
         22    1    3    3    0    0 -0.16905536345E+02 -0.45936596340E+02  0.31939974101E+02  0.58447668798E+02  0.00000000000E+00 0.  1.
</event>
<event>
 7    1  0.6103724E-006  0.1402038E+03  0.7818608E-02  0.1238365E+00
          2   -1    0    0  502    0  0.00000000000E+00  0.00000000000E+00  0.28360395565E+04  0.28360395565E+04  0.00000000000E+00 0. -1.
          1   -1    0    0  501    0 -0.00000000000E+00 -0.00000000000E+00 -0.35893633020E+04  0.35893633020E+04  0.00000000000E+00 0. -1.
         25    2    1    2    0    0 -0.14787023431E+03 -0.18893414747E+03  0.24784410910E+03  0.36689642434E+03  0.12499826199E+03 0.  0.
          2    1    1    2  501    0  0.60338604756E+02  0.12608615981E+03 -0.35273042566E+04  0.35300727734E+04  0.00000000000E+00 0. -1.
          1    1    1    2  502    0  0.87531629556E+02  0.62847987654E+02  0.25261364020E+04  0.25284336608E+04  0.00000000000E+00 0. -1.
         22    1    3    3    0    0 -0.87033708805E+01  0.14378697587E+02 -0.84033534257E+00  0.16828599837E+02  0.00000000000E+00 0.  1.
         22    1    3    3    0    0 -0.13916686343E+03 -0.20331284505E+03  0.24868444445E+03  0.35006782450E+03  0.00000000000E+00 0.  1.
</event>
<event>
 7    1  0.6103724E-006  0.1252477E+03  0.7818608E-02  0.1322289E+00
          2   -1    0    0  502    0  0.00000000000E+00  0.00000000000E+00  0.55496646447E+03  0.55496646447E+03  0.00000000000E+00 0. -1.
          1   -1    0    0  501    0 -0.00000000000E+00 -0.00000000000E+00 -0.10410461112E+04  0.10410461112E+04  0.00000000000E+00 0. -1.
         25    2    1    2    0    0  0.39673603686E+02 -0.13406882672E+03 -0.32351617471E+03  0.37394654415E+03  0.12499942982E+03 0.  0.
          2    1    1    2  501    0  0.39533453807E+02  0.37154360223E+02 -0.68383219609E+03  0.68598091290E+03  0.00000000000E+00 0. -1.
          1    1    1    2  502    0 -0.79207057493E+02  0.96914466501E+02  0.52126872404E+03  0.53608511865E+03  0.00000000000E+00 0. -1.
         22    1    3    3    0    0  0.51288165238E+02  0.29142617933E+00 -0.69834423562E+02  0.86645297258E+02  0.00000000000E+00 0. -1.
         22    1    3    3    0    0 -0.11614561552E+02 -0.13436025290E+03 -0.25368175115E+03  0.28730124689E+03  0.00000000000E+00 0. -1.
</event>
<event>
 7    1  0.6103724E-006  0.1464298E+03  0.7818608E-02  0.1398439E+00
          2   -1    0    0  502    0  0.00000000000E+00  0.00000000000E+00  0.39169204169E+03  0.39169204169E+03  0.00000000000E+00 0. -1.
          1   -1    0    0  501    0 -0.00000000000E+00 -0.00000000000E+00 -0.21515010286E+04  0.21515010286E+04  0.00000000000E+00 0. -1.
         25    2    1    2    0    0 -0.25669060303E+02  0.13495893758E+03  0.28949439328E+03  0.34395157007E+03  0.12499145300E+03 0.  0.
          2    1    1    2  501    0  0.40735039309E+01 -0.14645933566E+03 -0.21196776592E+04  0.21247353505E+04  0.00000000000E+00 0. -1.
          1    1    1    2  502    0  0.21595556372E+02  0.11500398082E+02  0.70374279006E+02  0.74506149791E+02  0.00000000000E+00 0. -1.
         22    1    3    3    0    0 -0.64235181988E+02  0.25150288183E+02  0.11826323246E+03  0.13691197082E+03  0.00000000000E+00 0.  1.
         22    1    3    3    0    0  0.38566121684E+02  0.10980864939E+03  0.17123116082E+03  0.20703959925E+03  0.00000000000E+00 0.  1.
</event>
<event>
 7    1  0.6103724E-006  0.6201731E+02  0.7818608E-02  0.1403015E+00
          2   -1    0    0  502    0  0.00000000000E+00  0.00000000000E+00  0.47417448387E+03  0.47417448387E+03  0.00000000000E+00 0. -1.
          1   -1    0    0  501    0 -0.00000000000E+00 -0.00000000000E+00 -0.21846788471E+04  0.21846788471E+04  0.00000000000E+00 0. -1.
         25    2    1    2    0    0  0.76466742392E+01  0.47318449764E+02 -0.24029003179E+03  0.27506601372E+03  0.12499802083E+03 0.  0.
          2    1    1    2  501    0 -0.55260910207E+02 -0.71034896462E+01 -0.19244698574E+04  0.19252762036E+04  0.00000000000E+00 0. -1.
          1    1    1    2  502    0  0.47614235968E+02 -0.40214960118E+02  0.45425552600E+03  0.45851111370E+03  0.00000000000E+00 0. -1.
         22    1    3    3    0    0  0.35125146513E+02  0.67571217432E+02 -0.22522869762E+03  0.23775536077E+03  0.00000000000E+00 0. -1.
         22    1    3    3    0    0 -0.27478472274E+02 -0.20252767668E+02 -0.15061334169E+02  0.37310652952E+02  0.00000000000E+00 0. -1.
</event>
<event>
 7    1  0.6103724E-006  0.9764034E+02  0.7818608E-02  0.1294919E+00
          2   -1    0    0  502    0  0.00000000000E+00  0.00000000000E+00  0.13015243173E+04  0.13015243173E+04  0.00000000000E+00 0. -1.
          1   -1    0    0  501    0 -0.00000000000E+00 -0.00000000000E+00 -0.55743257755E+03  0.55743257755E+03  0.00000000000E+00 0. -1.
         25    2    1    2    0    0  0.71270861338E+01  0.12913494539E+03  0.60346041385E+03  0.62969295789E+03  0.12498848210E+03 0.  0.
          2    1    1    2  501    0 -0.71136086205E+02 -0.66921033748E+02 -0.53698456901E+03  0.54579409568E+03  0.00000000000E+00 0. -1.
          1    1    1    2  502    0  0.64009000071E+02 -0.62213911644E+02  0.67761589489E+03  0.68346984125E+03  0.00000000000E+00 0. -1.
         22    1    3    3    0    0  0.46037332448E+02  0.12979598786E+03  0.51409441119E+03  0.53222128674E+03  0.00000000000E+00 0.  1.
         22    1    3    3    0    0 -0.38910246314E+02 -0.66104247271E+00  0.89366002667E+02  0.97471671156E+02  0.00000000000E+00 0.  1.
</event>
<event>
 7    1  0.6103724E-006  0.1031023E+03  0.7818608E-02  0.1295634E+00
          2   -1    0    0  502    0  0.00000000000E+00  0.00000000000E+00  0.12093852980E+03  0.12093852980E+03  0.00000000000E+00 0. -1.
          1   -1    0    0  501    0 -0.00000000000E+00 -0.00000000000E+00 -0.39571362953E+03  0.39571362953E+03  0.00000000000E+00 0. -1.
         25    2    1    2    0    0  0.44090682597E+02 -0.14886733069E+01 -0.75552504519E+02  0.15257643117E+03  0.12500072787E+03 0.  0.
          2    1    1    2  501    0 -0.12727083855E+03 -0.10033166910E+02 -0.23914981257E+03  0.27109253703E+03  0.00000000000E+00 0. -1.
          1    1    1    2  502    0  0.83180155950E+02  0.11521840217E+02  0.39927217366E+02  0.92983191129E+02  0.00000000000E+00 0. -1.
         22    1    3    3    0    0  0.51413404974E+01 -0.57074991324E+02 -0.59946957863E+02  0.82931452259E+02  0.00000000000E+00 0.  1.
         22    1    3    3    0    0  0.38949342100E+02  0.55586318017E+02 -0.15605546656E+02  0.69644978909E+02  0.00000000000E+00 0.  1.
</event>
<event>
 7    1  0.6103724E-006  0.1607494E+03  0.7818608E-02  0.1322848E+00
          2   -1    0    0  502    0  0.00000000000E+00  0.00000000000E+00  0.21937727700E+04  0.21937727700E+04  0.00000000000E+00 0. -1.
          1   -1    0    0  501    0 -0.00000000000E+00 -0.00000000000E+00 -0.69713535077E+03  0.69713535077E+03  0.00000000000E+00 0. -1.
         25    2    1    2    0    0 -0.66932980631E+02  0.17891673855E+03 -0.91705163732E+01  0.22847386985E+03  0.12499995041E+03 0.  0.
          2    1    1    2  501    0  0.76801586782E+02 -0.13803003651E+03 -0.56730984632E+03  0.58888983387E+03  0.00000000000E+00 0. -1.
          1    1    1    2  502    0 -0.98686061510E+01 -0.40886702041E+02  0.20731177819E+04  0.20735444170E+04  0.00000000000E+00 0. -1.
         22    1    3    3    0    0 -0.18675791665E+02  0.34627032593E+02 -0.56757802884E+02  0.69059863660E+02  0.00000000000E+00 0.  1.
         22    1    3    3    0    0 -0.48257188965E+02  0.14428970595E+03  0.47587286510E+02  0.15941400619E+03  0.00000000000E+00 0.  1.
</event>
<event>
 7    1  0.6103724E-006  0.6241527E+02  0.7818608E-02  0.1413565E+00
          2   -1    0    0  502    0  0.00000000000E+00  0.00000000000E+00  0.10940796828E+04  0.10940796828E+04  0.00000000000E+00 0. -1.
          1   -1    0    0  501    0 -0.00000000000E+00 -0.00000000000E+00 -0.15106278199E+03  0.15106278199E+03  0.00000000000E+00 0. -1.
         25    2    1    2    0    0 -0.93525905587E+02 -0.60594675457E+02  0.17582111947E+03  0.24280886986E+03  0.12499708606E+03 0.  0.
          2    1    1    2  501    0  0.49427182180E+02  0.35025860367E+02 -0.10897499474E+03  0.12468122037E+03  0.00000000000E+00 0. -1.
          1    1    1    2  502    0  0.44098723407E+02  0.25568815090E+02  0.87617077607E+03  0.87765237454E+03  0.00000000000E+00 0. -1.
         22    1    3    3    0    0 -0.83551330508E+02 -0.97792816405E+02  0.14148634633E+03  0.19121361345E+03  0.00000000000E+00 0.  1.
         22    1    3    3    0    0 -0.99745750794E+01  0.37198140949E+02  0.34334773138E+02  0.51595256415E+02  0.00000000000E+00 0.  1.
</event>
<event>
 7    1  0.6103724E-006  0.1386402E+03  0.7818608E-02  0.1313018E+00
          2   -1    0    0  502    0  0.00000000000E+00  0.00000000000E+00  0.10361866087E+04  0.10361866087E+04  0.00000000000E+00 0. -1.
          1   -1    0    0  501    0 -0.00000000000E+00 -0.00000000000E+00 -0.87042136159E+02  0.87042136159E+02  0.00000000000E+00 0. -1.
         25    2    1    2    0    0 -0.52476314203E+02  0.10074481129E+03  0.15293867634E+03  0.22785520143E+03  0.12499789414E+03 0.  0.
          2    1    1    2  501    0  0.10278827980E+03 -0.11821919668E+03  0.77646892428E+02  0.17484349811E+03  0.00000000000E+00 0. -1.
          1    1    1    2  502    0 -0.50311965601E+02  0.17474385386E+02  0.71855890374E+03  0.72053004530E+03  0.00000000000E+00 0. -1.
         22    1    3    3    0    0 -0.75760029305E+02  0.14659900417E+02  0.90815992617E+02  0.11917230901E+03  0.00000000000E+00 0.  1.
         22    1    3    3    0    0  0.23283715102E+02  0.86084910876E+02  0.62122683728E+02  0.10868289241E+03  0.00000000000E+00 0.  1.
</event>
<event>
 7    1  0.6103724E-006  0.5751876E+02  0.7818608E-02  0.1515503E+00
          2   -1    0    0  502    0  0.00000000000E+00  0.00000000000E+00  0.18230012956E+04  0.18230012956E+04  0.00000000000E+00 0. -1.
          1   -1    0    0  501    0 -0.00000000000E+00 -0.00000000000E+00 -0.25307043288E+02  0.25307043288E+02  0.00000000000E+00 0. -1.
         25    2    1    2    0    0  0.61690456310E+02  0.51278190000E+02  0.84584204961E+03  0.85878235652E+03  0.12499279101E+03 0.  0.
          2    1    1    2  501    0 -0.15834771873E+02 -0.21222500675E+02 -0.83464589818E+01  0.27763247518E+02  0.00000000000E+00 0. -1.
          1    1    1    2  502    0 -0.45855684436E+02 -0.30055689325E+02  0.96019866172E+03  0.96176273489E+03  0.00000000000E+00 0. -1.
         22    1    3    3    0    0  0.92287541307E+02  0.65593122824E+01  0.46608077067E+03  0.47517502001E+03  0.00000000000E+00 0.  1.
         22    1    3    3    0    0 -0.30597084997E+02  0.44718877718E+02  0.37976127895E+03  0.38360733651E+03  0.00000000000E+00 0.  1.
</event>
<event>
 7    1  0.6103724E-006  0.1050266E+03  0.7818608E-02  0.1318061E+00
          2   -1    0    0  502    0  0.00000000000E+00  0.00000000000E+00  0.35017959883E+03  0.35017959883E+03  0.00000000000E+00 0. -1.
          1   -1    0    0  501    0 -0.00000000000E+00 -0.00000000000E+00 -0.49443774947E+03  0.49443774947E+03  0.00000000000E+00 0. -1.
         25    2    1    2    0    0  0.14602871562E+02 -0.91799514041E+02 -0.51119352271E+02  0.16394548601E+03  0.12499815827E+03 0.  0.
          2    1    1    2  501    0 -0.79569462350E+02  0.74667637914E+02 -0.37518657255E+03  0.39073203057E+03  0.00000000000E+00 0. -1.
          1    1    1    2  502    0  0.64966590788E+02  0.17131876127E+02  0.28204777418E+03  0.28993983172E+03  0.00000000000E+00 0. -1.
         22    1    3    3    0    0 -0.15902325584E+02 -0.88768560986E+02 -0.80940533409E+02  0.12117801503E+03  0.00000000000E+00 0. -1.
         22    1    3    3    0    0  0.30505197145E+02 -0.30309530551E+01  0.29821181138E+02  0.42767470977E+02  0.00000000000E+00 0. -1.
</event>
<event>
 7    1  0.6103724E-006  0.5929654E+02  0.7818608E-02  0.1551009E+00
          2   -1    0    0  502    0  0.00000000000E+00  0.00000000000E+00  0.10441584624E+03  0.10441584624E+03  0.00000000000E+00 0. -1.
          1   -1    0    0  501    0 -0.00000000000E+00 -0.00000000000E+00 -0.44530642972E+03  0.44530642972E+03  0.00000000000E+00 0. -1.
         25    2    1    2    0    0  0.27769582256E+02  0.57167025634E+02  0.77206134441E+01  0.14044365493E+03  0.12500237526E+03 0.  0.
          2    1    1    2  501    0 -0.41578708268E+02 -0.42230753269E+02 -0.37290966082E+03  0.37758951341E+03  0.00000000000E+00 0. -1.
          1    1    1    2  502    0  0.13809126012E+02 -0.14936272365E+02  0.24298463901E+02  0.31689107613E+02  0.00000000000E+00 0. -1.
         22    1    3    3    0    0 -0.16720104903E+02  0.58912803435E+02  0.49988805816E+02  0.79051635173E+02  0.00000000000E+00 0.  1.
         22    1    3    3    0    0  0.44489687158E+02 -0.17457778015E+01 -0.42268192372E+02  0.61392019758E+02  0.00000000000E+00 0.  1.
</event>
<event>
 7    1  0.6103724E-006  0.9369999E+02  0.7818608E-02  0.1373794E+00
          2   -1    0    0  502    0  0.00000000000E+00  0.00000000000E+00  0.70047722269E+02  0.70047722269E+02  0.00000000000E+00 0. -1.
          1   -1    0    0  501    0 -0.00000000000E+00 -0.00000000000E+00 -0.18971513253E+04  0.18971513253E+04  0.00000000000E+00 0. -1.
         25    2    1    2    0    0  0.69738820838E+02  0.11792129816E+03 -0.49280439511E+03  0.52654553770E+03  0.12500038294E+03 0.  0.
          2    1    1    2  501    0 -0.25592332963E+02 -0.39019049669E+02 -0.13483484406E+04  0.13491556511E+04  0.00000000000E+00 0. -1.
          1    1    1    2  502    0 -0.44146487875E+02 -0.78902248488E+02  0.14049232705E+02  0.91497858706E+02  0.00000000000E+00 0. -1.
         22    1    3    3    0    0  0.70044217944E+02  0.12024602893E+03 -0.49998610930E+03  0.51899076045E+03  0.00000000000E+00 0. -1.
         22    1    3    3    0    0 -0.30539710666E+00 -0.23247307730E+01  0.71817141870E+01  0.75547772451E+01  0.00000000000E+00 0. -1.
</event>
<event>
 7    1  0.6103724E-006  0.7692944E+02  0.7818608E-02  0.1480801E+00
          2   -1    0    0  502    0  0.00000000000E+00  0.00000000000E+00  0.96913769701E+03  0.96913769701E+03  0.00000000000E+00 0. -1.
          1   -1    0    0  501    0 -0.00000000000E+00 -0.00000000000E+00 -0.14680766218E+04  0.14680766218E+04  0.00000000000E+00 0. -1.
         25    2    1    2    0    0  0.73226650681E+02 -0.54273123772E+02  0.70122012079E+03  0.71808291509E+03  0.12500280321E+03 0.  0.
          2    1    1    2  501    0 -0.71148828821E+02  0.29214224165E+02 -0.14580200635E+04  0.14600473048E+04  0.00000000000E+00 0. -1.
          1    1    1    2  502    0 -0.20778218598E+01  0.25058899607E+02  0.25786101787E+03  0.25908409896E+03  0.00000000000E+00 0. -1.
         22    1    3    3    0    0  0.43032306806E+02 -0.62884222773E+01  0.58640299334E+02  0.73006906453E+02  0.00000000000E+00 0.  1.
         22    1    3    3    0    0  0.30194343875E+02 -0.47984701494E+02  0.64257982145E+03  0.64507600863E+03  0.00000000000E+00 0.  1.
</event>
<event>
 7    1  0.6103724E-006  0.1016958E+03  0.7818608E-02  0.1374337E+00
          2   -1    0    0  502    0  0.00000000000E+00  0.00000000000E+00  0.96428292377E+02  0.96428292377E+02  0.00000000000E+00 0. -1.
          1   -1    0    0  501    0 -0.00000000000E+00 -0.00000000000E+00 -0.92297149862E+03  0.92297149862E+03  0.00000000000E+00 0. -1.
         25    2    1    2    0    0 -0.57342586115E+02 -0.52975191335E+02 -0.48587352979E+03  0.50773295820E+03  0.12500050726E+03 0.  0.
          2    1    1    2  501    0  0.93434865383E+02  0.75983856913E+02 -0.41158116600E+03  0.42883875383E+03  0.00000000000E+00 0. -1.
          1    1    1    2  502    0 -0.36092279269E+02 -0.23008665578E+02  0.70911489549E+02  0.82828078962E+02  0.00000000000E+00 0. -1.
         22    1    3    3    0    0 -0.52403158823E+02  0.28522948982E+02 -0.27946301976E+03  0.28576078998E+03  0.00000000000E+00 0.  1.
         22    1    3    3    0    0 -0.49394272921E+01 -0.81498140317E+02 -0.20641051002E+03  0.22197216822E+03  0.00000000000E+00 0.  1.
</event>
<event>
 7    1  0.6103724E-006  0.6577906E+02  0.7818608E-02  0.1518067E+00
          2   -1    0    0  502    0  0.00000000000E+00  0.00000000000E+00  0.67444673784E+03  0.67444673784E+03  0.00000000000E+00 0. -1.
          1   -1    0    0  501    0 -0.00000000000E+00 -0.00000000000E+00 -0.13907005920E+04  0.13907005920E+04  0.00000000000E+00 0. -1.
         25    2    1    2    0    0 -0.47829341849E+02  0.19871789645E+02 -0.47000936405E+03  0.48909866902E+03  0.12500468699E+03 0.  0.
          2    1    1    2  501    0 -0.17763125280E+02 -0.14227662424E+02 -0.90937420652E+03  0.90965894844E+03  0.00000000000E+00 0. -1.
          1    1    1    2  502    0  0.65592467129E+02 -0.56441272217E+01  0.66312971644E+03  0.66638971236E+03  0.00000000000E+00 0. -1.
         22    1    3    3    0    0  0.15458836983E+02  0.50562211486E+02 -0.10714772286E+03  0.11948283302E+03  0.00000000000E+00 0. -1.
         22    1    3    3    0    0 -0.63288178832E+02 -0.30690421841E+02 -0.36286164119E+03  0.36961583600E+03  0.00000000000E+00 0. -1.
</event>
<event>
 7    1  0.6103724E-006  0.1800323E+03  0.7818608E-02  0.1244076E+00
          2   -1    0    0  502    0  0.00000000000E+00  0.00000000000E+00  0.57027177699E+03  0.57027177699E+03  0.00000000000E+00 0. -1.
          1   -1    0    0  501    0 -0.00000000000E+00 -0.00000000000E+00 -0.67422310486E+03  0.67422310486E+03  0.00000000000E+00 0. -1.
         25    2    1    2    0    0 -0.56335267599E+02  0.14523142697E+03 -0.95924625039E+02  0.22156723490E+03  0.12499870455E+03 0.  0.
          2    1    1    2  501    0  0.69289717325E+02  0.38359129073E+02 -0.49554061847E+03  0.50182964467E+03  0.00000000000E+00 0. -1.
          1    1    1    2  502    0 -0.12954449725E+02 -0.18359055604E+03  0.48751391564E+03  0.52109800228E+03  0.00000000000E+00 0. -1.
         22    1    3    3    0    0 -0.52941147783E+02  0.12908444246E+03 -0.12552714286E+03  0.18767690856E+03  0.00000000000E+00 0.  1.
         22    1    3    3    0    0 -0.33941198163E+01  0.16146984509E+02  0.29602517819E+02  0.33890326338E+02  0.00000000000E+00 0.  1.
</event>
<event>
 7    1  0.6103724E-006  0.1914593E+03  0.7818608E-02  0.1282905E+00
          2   -1    0    0  502    0  0.00000000000E+00  0.00000000000E+00  0.14400991005E+03  0.14400991005E+03  0.00000000000E+00 0. -1.
          1   -1    0    0  501    0 -0.00000000000E+00 -0.00000000000E+00 -0.54037731039E+03  0.54037731039E+03  0.00000000000E+00 0. -1.
         25    2    1    2    0    0  0.20710509901E+03  0.38173745234E+02 -0.81705906673E+02  0.25816758547E+03  0.12499956055E+03 0.  0.
          2    1    1    2  501    0 -0.17163038693E+03 -0.74748803517E+02 -0.32421479314E+03  0.37437895966E+03  0.00000000000E+00 0. -1.
          1    1    1    2  502    0 -0.35474712084E+02  0.36575058283E+02  0.95532994737E+01  0.51840675311E+02  0.00000000000E+00 0. -1.
         22    1    3    3    0    0  0.62618302578E+02  0.73083328887E+02 -0.33386235152E+02  0.10186690079E+03  0.00000000000E+00 0.  1.
         22    1    3    3    0    0  0.14448679643E+03 -0.34909583653E+02 -0.48319671521E+02  0.15630068468E+03  0.00000000000E+00 0.  1.
</event>
<event>
 7    1  0.6103724E-006  0.2267053E+03  0.7818608E-02  0.1189110E+00
          2   -1    0    0  502    0  0.00000000000E+00  0.00000000000E+00  0.22944150926E+03  0.22944150926E+03  0.00000000000E+00 0. -1.
          1   -1    0    0  501    0 -0.00000000000E+00 -0.00000000000E+00 -0.19672319942E+04  0.19672319942E+04  0.00000000000E+00 0. -1.
         25    2    1    2    0    0 -0.13908940859E+03 -0.16703361326E+03 -0.51834719472E+03  0.57580774813E+03  0.12499862795E+03 0.  0.
          2    1    1    2  501    0 -0.75881529537E+02  0.82929583240E+02 -0.13506672552E+04  0.13553366211E+04  0.00000000000E+00 0. -1.
          1    1    1    2  502    0  0.21497093813E+03  0.84104030017E+02  0.13122396501E+03  0.26552913418E+03  0.00000000000E+00 0. -1.
         22    1    3    3    0    0 -0.27900007574E+02 -0.22243757849E+02 -0.12144131847E+02  0.37691844266E+02  0.00000000000E+00 0. -1.
         22    1    3    3    0    0 -0.11118940102E+03 -0.14478985541E+03 -0.50620306287E+03  0.53811590386E+03  0.00000000000E+00 0. -1.
</event>
<event>
 7    1  0.6103724E-006  0.3800438E+03  0.7818608E-02  0.1153952E+00
          2   -1    0    0  502    0  0.00000000000E+00  0.00000000000E+00  0.87796355582E+03  0.87796355582E+03  0.00000000000E+00 0. -1.
          1   -1    0    0  501    0 -0.00000000000E+00 -0.00000000000E+00 -0.18019062432E+04  0.18019062432E+04  0.00000000000E+00 0. -1.
         25    2    1    2    0    0  0.44271477640E+02 -0.34107171459E+03  0.34046755435E+03  0.49983317723E+03  0.12500068507E+03 0.  0.
          2    1    1    2  501    0 -0.14351419270E+03  0.35446605298E+03 -0.16951801245E+04  0.17377796640E+04  0.00000000000E+00 0. -1.
          1    1    1    2  502    0  0.99242715056E+02 -0.13394338392E+02  0.43076988276E+03  0.44225695776E+03  0.00000000000E+00 0. -1.
         22    1    3    3    0    0  0.51307817427E+02 -0.30561456261E+03  0.23669634879E+03  0.38994604055E+03  0.00000000000E+00 0. -1.
         22    1    3    3    0    0 -0.70363397871E+01 -0.35457151974E+02  0.10377120556E+03  0.10988713668E+03  0.00000000000E+00 0. -1.
</event>
<event>
 7    1  0.6103724E-006  0.1484927E+03  0.7818608E-02  0.1340136E+00
          2   -1    0    0  502    0  0.00000000000E+00  0.00000000000E+00  0.11086980068E+04  0.11086980068E+04  0.00000000000E+00 0. -1.
          1   -1    0    0  501    0 -0.00000000000E+00 -0.00000000000E+00 -0.17115977587E+03  0.17115977587E+03  0.00000000000E+00 0. -1.
         25    2    1    2    0    0  0.17498990026E+03 -0.21754852341E+02  0.38325112834E+03  0.44000092707E+03  0.12499859862E+03 0.  0.
          2    1    1    2  501    0 -0.33368953417E+02  0.20422311111E+02 -0.13273925222E+03  0.13838448946E+03  0.00000000000E+00 0. -1.
          1    1    1    2  502    0 -0.14162094684E+03  0.13325412294E+01  0.68702635480E+03  0.70147236612E+03  0.00000000000E+00 0. -1.
         22    1    3    3    0    0 -0.16929521902E+02  0.12186007965E+02  0.45442690664E+02  0.50001456346E+02  0.00000000000E+00 0. -1.
         22    1    3    3    0    0  0.19191942216E+03 -0.33940860306E+02  0.33780843768E+03  0.38999947073E+03  0.00000000000E+00 0. -1.
</event>
<event>
 7    1  0.6103724E-006  0.1051058E+03  0.7818608E-02  0.1270763E+00
          2   -1    0    0  502    0  0.00000000000E+00  0.00000000000E+00  0.61654155581E+03  0.61654155581E+03  0.00000000000E+00 0. -1.
          1   -1    0    0  501    0 -0.00000000000E+00 -0.00000000000E+00 -0.19879174553E+03  0.19879174553E+03  0.00000000000E+00 0. -1.
         25    2    1    2    0    0  0.21783309113E+01  0.92837037206E+01  0.14893341295E+01  0.12537268170E+03  0.12500063568E+03 0.  0.
          2    1    1    2  501    0  0.69287829739E+02  0.79034381869E+02 -0.10966718132E+03  0.15190170350E+03  0.00000000000E+00 0. -1.
          1    1    1    2  502    0 -0.71466160650E+02 -0.88318085589E+02  0.52592765746E+03  0.53805891615E+03  0.00000000000E+00 0. -1.
         22    1    3    3    0    0  0.71461498121E+01 -0.28358883414E+02 -0.52069632541E+02  0.59720518740E+02  0.00000000000E+00 0.  1.
         22    1    3    3    0    0 -0.49678189009E+01  0.37642587134E+02  0.53558966671E+02  0.65652162963E+02  0.00000000000E+00 0.  1.
</event>
<event>
 7    1  0.6103724E-006  0.5211095E+02  0.7818608E-02  0.1523105E+00
          2   -1    0    0  502    0  0.00000000000E+00  0.00000000000E+00  0.14500819708E+03  0.14500819708E+03  0.00000000000E+00 0. -1.
          1   -1    0    0  501    0 -0.00000000000E+00 -0.00000000000E+00 -0.10922854449E+03  0.10922854449E+03  0.00000000000E+00 0. -1.
         25    2    1    2    0    0 -0.43347964581E+02  0.27610742307E+02 -0.75903166923E+00  0.13515614551E+03  0.12500083366E+03 0.  0.
          2    1    1    2  501    0  0.24514834273E+02 -0.48028361058E+02 -0.18845296494E+02  0.57121324961E+02  0.00000000000E+00 0. -1.
          1    1    1    2  502    0  0.18833130308E+02  0.20417618751E+02  0.55383980748E+02  0.61959271107E+02  0.00000000000E+00 0. -1.
         22    1    3    3    0    0 -0.57368128822E+01 -0.24940556969E+02  0.47868710575E+02  0.54280345025E+02  0.00000000000E+00 0.  1.
         22    1    3    3    0    0 -0.37611151699E+02  0.52551299276E+02 -0.48627742244E+02  0.80875800481E+02  0.00000000000E+00 0.  1.
</event>
<event>
 7    1  0.6103724E-006  0.8951920E+02  0.7818608E-02  0.1311769E+00
          2   -1    0    0  502    0  0.00000000000E+00  0.00000000000E+00  0.24963675689E+04  0.24963675689E+04  0.00000000000E+00 0. -1.
          1   -1    0    0  501    0 -0.00000000000E+00 -0.00000000000E+00 -0.91212306190E+02  0.91212306190E+02  0.00000000000E+00 0. -1.
         25    2    1    2    0    0 -0.11409964506E+03  0.59813058079E+02  0.66046134046E+03  0.68441967277E+03  0.12499910125E+03 0.  0.
          2    1    1    2  501    0  0.27736198086E+02 -0.78675669348E+02 -0.55886282069E+02  0.10041132484E+03  0.00000000000E+00 0. -1.
          1    1    1    2  502    0  0.86363446978E+02  0.18862611269E+02  0.18005802043E+04  0.18027488775E+04  0.00000000000E+00 0. -1.
         22    1    3    3    0    0 -0.55875235564E+02  0.19652332379E+02  0.55047795511E+03  0.55365533970E+03  0.00000000000E+00 0.  1.
         22    1    3    3    0    0 -0.58224409501E+02  0.40160725700E+02  0.10998338536E+03  0.13076433308E+03  0.00000000000E+00 0.  1.
</event>
<event>
 7    1  0.6103724E-006  0.1126210E+03  0.7818608E-02  0.1281189E+00
          2   -1    0    0  502    0  0.00000000000E+00  0.00000000000E+00  0.14359164546E+04  0.14359164546E+04  0.00000000000E+00 0. -1.
          1   -1    0    0  501    0 -0.00000000000E+00 -0.00000000000E+00 -0.40646910152E+03  0.40646910152E+03  0.00000000000E+00 0. -1.
         25    2    1    2    0    0  0.89995824634E+02 -0.15672817689E+03 -0.17429259741E+03  0.28048125352E+03  0.12501541579E+03 0.  0.
          2    1    1    2  501    0 -0.31158512190E+02  0.91232235204E+02 -0.16458934395E+03  0.19074544756E+03  0.00000000000E+00 0. -1.
          1    1    1    2  502    0 -0.58837312444E+02  0.65495941685E+02  0.13683292944E+04  0.13711588550E+04  0.00000000000E+00 0. -1.
         22    1    3    3    0    0  0.35324492385E+01 -0.11296109756E+03 -0.51888555592E+02  0.12435879527E+03  0.00000000000E+00 0. -1.
         22    1    3    3    0    0  0.86463375396E+02 -0.43767079327E+02 -0.12240404182E+03  0.15612245825E+03  0.00000000000E+00 0. -1.
</event>
<event>
 7    1  0.6103724E-006  0.2182991E+03  0.7818608E-02  0.1253144E+00
          2   -1    0    0  502    0  0.00000000000E+00  0.00000000000E+00  0.30534709618E+04  0.30534709618E+04  0.00000000000E+00 0. -1.
          1   -1    0    0  501    0 -0.00000000000E+00 -0.00000000000E+00 -0.51263085886E+03  0.51263085886E+03  0.00000000000E+00 0. -1.
         25    2    1    2    0    0 -0.21703636554E+03  0.52731579466E+02  0.43577430134E+03  0.50538101685E+03  0.12500130820E+03 0.  0.
          2    1    1    2  501    0  0.19082334998E+03 -0.10631020981E+03 -0.45249682768E+03  0.50246272564E+03  0.00000000000E+00 0. -1.
          1    1    1    2  502    0  0.26213015564E+02  0.53578630341E+02  0.25575626293E+04  0.25582580782E+04  0.00000000000E+00 0. -1.
         22    1    3    3    0    0 -0.21034211196E+03  0.75192627479E+02  0.34024708943E+03  0.40702065937E+03  0.00000000000E+00 0.  1.
         22    1    3    3    0    0 -0.66942535767E+01 -0.22461048013E+02  0.95527211908E+02  0.98360357481E+02  0.00000000000E+00 0.  1.
</event>
<event>
 7    1  0.1552620E-005  0.1000408E+03  0.7818608E-02  0.1306115E+00
          2   -1    0    0  502    0  0.00000000000E+00  0.00000000000E+00  0.18781635724E+04  0.18781635724E+04  0.00000000000E+00 0. -1.
          1   -1    0    0  501    0 -0.00000000000E+00 -0.00000000000E+00 -0.12077096895E+04  0.12077096895E+04  0.00000000000E+00 0. -1.
         25    2    1    2    0    0  0.92441636775E+01  0.21309904411E+02 -0.41555620757E+03  0.43457086247E+03  0.12500122508E+03 0.  0.
          2    1    1    2  501    0  0.57625515759E+02  0.53430519676E+02 -0.77932311058E+03  0.78327519505E+03  0.00000000000E+00 0. -1.
          1    1    1    2  502    0 -0.66869679437E+02 -0.74740424087E+02  0.18653332011E+04  0.18680272043E+04  0.00000000000E+00 0. -1.
         22    1    3    3    0    0  0.66458695266E+02  0.68373304791E+01 -0.25149427071E+03  0.26021697766E+03  0.00000000000E+00 0.  1.
         22    1    3    3    0    0 -0.57214531589E+02  0.14472573932E+02 -0.16406193686E+03  0.17435388481E+03  0.00000000000E+00 0.  1.
</event>
<event>
 7    1  0.6103724E-006  0.1040669E+03  0.7818608E-02  0.1401662E+00
          2   -1    0    0  502    0  0.00000000000E+00  0.00000000000E+00  0.43844434361E+03  0.43844434361E+03  0.00000000000E+00 0. -1.
          1   -1    0    0  501    0 -0.00000000000E+00 -0.00000000000E+00 -0.14832293887E+04  0.14832293887E+04  0.00000000000E+00 0. -1.
         25    2    1    2    0    0  0.48519909206E+02  0.99220390988E+02  0.15916674124E+03  0.23056063881E+03  0.12500115629E+03 0.  0.
          2    1    1    2  501    0 -0.15167748312E+02 -0.10294380801E+03 -0.14444960821E+04  0.14482390754E+04  0.00000000000E+00 0. -1.
          1    1    1    2  502    0 -0.33352160894E+02  0.37234170259E+01  0.24054429575E+03  0.24287401815E+03  0.00000000000E+00 0. -1.
         22    1    3    3    0    0 -0.48185043532E+01  0.10605277696E+03  0.72463257359E+02  0.12853533814E+03  0.00000000000E+00 0. -1.
         22    1    3    3    0    0  0.53338413559E+02 -0.68323859710E+01  0.86703483881E+02  0.10202530067E+03  0.00000000000E+00 0. -1.
</event>
<event>
 7    1  0.6103724E-006  0.5322860E+02  0.7818608E-02  0.1533354E+00
          2   -1    0    0  502    0  0.00000000000E+00  0.00000000000E+00  0.20282968610E+04  0.20282968610E+04  0.00000000000E+00 0. -1.
          1   -1    0    0  501    0 -0.00000000000E+00 -0.00000000000E+00 -0.26202468502E+03  0.26202468502E+03  0.00000000000E+00 0. -1.
         25    2    1    2    0    0 -0.21835841560E+02  0.29624458032E+02  0.90668550198E+03  0.91600073614E+03  0.12499734646E+03 0.  0.
          2    1    1    2  501    0  0.46882516239E+02 -0.25332621655E+02 -0.25446219506E+03  0.25998215470E+03  0.00000000000E+00 0. -1.
          1    1    1    2  502    0 -0.25046674679E+02 -0.42918363765E+01  0.11140488691E+04  0.11143386552E+04  0.00000000000E+00 0. -1.
         22    1    3    3    0    0 -0.49545045198E+02  0.61977949409E+02  0.72783645842E+03  0.73214881543E+03  0.00000000000E+00 0. -1.
         22    1    3    3    0    0  0.27709203638E+02 -0.32353491377E+02  0.17884904356E+03  0.18385192072E+03  0.00000000000E+00 0. -1.
</event>
<event>
 7    1  0.6103724E-006  0.8273634E+02  0.7818608E-02  0.1372888E+00
          2   -1    0    0  502    0  0.00000000000E+00  0.00000000000E+00  0.72898128315E+02  0.72898128315E+02  0.00000000000E+00 0. -1.
          1   -1    0    0  501    0 -0.00000000000E+00 -0.00000000000E+00 -0.10909293349E+04  0.10909293349E+04  0.00000000000E+00 0. -1.
         25    2    1    2    0    0 -0.41986401889E+02 -0.11546135144E+03 -0.70925620840E+03  0.73059213292E+03  0.12500525551E+03 0.  0.
          2    1    1    2  501    0  0.28191053354E+02  0.64037163612E+02 -0.35554731926E+03  0.36236637543E+03  0.00000000000E+00 0. -1.
          1    1    1    2  502    0  0.13795348535E+02  0.51424187826E+02  0.46772321118E+02  0.70868954822E+02  0.00000000000E+00 0. -1.
         22    1    3    3    0    0 -0.13147368793E+02 -0.42557183889E+02 -0.56202844866E+03  0.56379069194E+03  0.00000000000E+00 0.  1.
         22    1    3    3    0    0 -0.28839033096E+02 -0.72904167549E+02 -0.14722775974E+03  0.16680144098E+03  0.00000000000E+00 0.  1.
</event>
<event>
 7    1  0.6103724E-006  0.8118967E+02  0.7818608E-02  0.1341764E+00
          2   -1    0    0  502    0  0.00000000000E+00  0.00000000000E+00  0.32949278758E+03  0.32949278758E+03  0.00000000000E+00 0. -1.
          1   -1    0    0  501    0 -0.00000000000E+00 -0.00000000000E+00 -0.41279112373E+03  0.41279112373E+03  0.00000000000E+00 0. -1.
         25    2    1    2    0    0  0.13195009802E+03  0.51949253083E+02 -0.17785871933E+03  0.25955307043E+03  0.12499807625E+03 0.  0.
          2    1    1    2  501    0 -0.66448137074E+02 -0.25735438616E+02 -0.18297895556E+03  0.19636437024E+03  0.00000000000E+00 0. -1.
          1    1    1    2  502    0 -0.65501960948E+02 -0.26213814467E+02  0.27753933874E+03  0.28636647064E+03  0.00000000000E+00 0. -1.
         22    1    3    3    0    0  0.14211314350E+03  0.58115982823E+02 -0.18883237977E+03  0.24337477409E+03  0.00000000000E+00 0.  1.
         22    1    3    3    0    0 -0.10163045480E+02 -0.61667297395E+01  0.10973660438E+02  0.16178296342E+02  0.00000000000E+00 0.  1.
</event>
<event>
 7    1  0.6103724E-006  0.9436671E+02  0.7818608E-02  0.1326597E+00
          2   -1    0    0  502    0  0.00000000000E+00  0.00000000000E+00  0.18323237078E+03  0.18323237078E+03  0.00000000000E+00 0. -1.
          1   -1    0    0  501    0 -0.00000000000E+00 -0.00000000000E+00 -0.10054376418E+04  0.10054376418E+04  0.00000000000E+00 0. -1.
         25    2    1    2    0    0  0.31210962341E+02 -0.54083428344E+01 -0.13676232501E+03  0.18796742938E+03  0.12499778647E+03 0.  0.
          2    1    1    2  501    0  0.65189808692E+02 -0.23528086729E+02 -0.82540429229E+03  0.82830883598E+03  0.00000000000E+00 0. -1.
          1    1    1    2  502    0 -0.96400771032E+02  0.28936429563E+02  0.13996134630E+03  0.17239374719E+03  0.00000000000E+00 0. -1.
         22    1    3    3    0    0  0.48066744379E+02 -0.31238244675E+02 -0.14510299355E+03  0.15601640485E+03  0.00000000000E+00 0. -1.
         22    1    3    3    0    0 -0.16855782038E+02  0.25829901841E+02  0.83406685337E+01  0.31951024535E+02  0.00000000000E+00 0. -1.
</event>
<event>
 7    1  0.6103724E-006  0.5919336E+02  0.7818608E-02  0.1503477E+00
          2   -1    0    0  502    0  0.00000000000E+00  0.00000000000E+00  0.28963923964E+03  0.28963923964E+03  0.00000000000E+00 0. -1.
          1   -1    0    0  501    0 -0.00000000000E+00 -0.00000000000E+00 -0.24903581689E+03  0.24903581689E+03  0.00000000000E+00 0. -1.
         25    2    1    2    0    0 -0.11165732513E+02 -0.34903242383E+02  0.33255981424E+02  0.13444003127E+03  0.12500100718E+03 0.  0.
          2    1    1    2  501    0  0.35052529875E+02  0.49351636041E+02 -0.19283631267E+03  0.20211409480E+03  0.00000000000E+00 0. -1.
          1    1    1    2  502    0 -0.23886797363E+02 -0.14448393658E+02  0.20018375399E+03  0.20212093046E+03  0.00000000000E+00 0. -1.
         22    1    3    3    0    0 -0.95465322164E+01 -0.69759847625E+02  0.58361496130E+02  0.91452921487E+02  0.00000000000E+00 0.  1.
         22    1    3    3    0    0 -0.16192002964E+01  0.34856605242E+02 -0.25105514706E+02  0.42987109780E+02  0.00000000000E+00 0.  1.
</event>
<event>
 7    1  0.6103724E-006  0.5223456E+02  0.7818608E-02  0.1466137E+00
          2   -1    0    0  502    0  0.00000000000E+00  0.00000000000E+00  0.11702898500E+04  0.11702898500E+04  0.00000000000E+00 0. -1.
          1   -1    0    0  501    0 -0.00000000000E+00 -0.00000000000E+00 -0.26827206493E+03  0.26827206493E+03  0.00000000000E+00 0. -1.
         25    2    1    2    0    0 -0.15612737917E+02 -0.61998983708E+02  0.30158911520E+03  0.33267809998E+03  0.12502436654E+03 0.  0.
          2    1    1    2  501    0  0.38344075127E+02  0.14833618944E+02 -0.25024530877E+03  0.25360011614E+03  0.00000000000E+00 0. -1.
          1    1    1    2  502    0 -0.22731337210E+02  0.47165364764E+02  0.85067397863E+03  0.85228369880E+03  0.00000000000E+00 0. -1.
         22    1    3    3    0    0 -0.54752315895E+02 -0.16960448782E+02  0.56701501668E+02  0.80625884244E+02  0.00000000000E+00 0.  1.
         22    1    3    3    0    0  0.39139577978E+02 -0.45038534926E+02  0.24488761354E+03  0.25205221573E+03  0.00000000000E+00 0.  1.
</event>
<event>
 7    1  0.6103724E-006  0.1728272E+03  0.7818608E-02  0.1290469E+00
          2   -1    0    0  502    0  0.00000000000E+00  0.00000000000E+00  0.16361905493E+04  0.16361905493E+04  0.00000000000E+00 0. -1.
          1   -1    0    0  501    0 -0.00000000000E+00 -0.00000000000E+00 -0.41272396002E+02  0.41272396002E+02  0.00000000000E+00 0. -1.
         25    2    1    2    0    0 -0.10423083284E+03 -0.79954583484E+02  0.24481355963E+03  0.30465640147E+03  0.12500016819E+03 0.  0.
          2    1    1    2  501    0 -0.31276130490E+02 -0.42249447586E+02  0.15078306284E+03  0.15968326211E+03  0.00000000000E+00 0. -1.
          1    1    1    2  502    0  0.13550696333E+03  0.12220403107E+03  0.11993215308E+04  0.12131232817E+04  0.00000000000E+00 0. -1.
         22    1    3    3    0    0  0.94621897072E+01  0.17847800128E+02  0.34478478910E+01  0.20493039271E+02  0.00000000000E+00 0. -1.
         22    1    3    3    0    0 -0.11369302255E+03 -0.97802383612E+02  0.24136571174E+03  0.28416336220E+03  0.00000000000E+00 0. -1.
</event>
<event>
 7    1  0.6103724E-006  0.1180372E+03  0.7818608E-02  0.1313617E+00
          2   -1    0    0  502    0  0.00000000000E+00  0.00000000000E+00  0.18786986758E+04  0.18786986758E+04  0.00000000000E+00 0. -1.
          1   -1    0    0  501    0 -0.00000000000E+00 -0.00000000000E+00 -0.24325985670E+03  0.24325985670E+03  0.00000000000E+00 0. -1.
         25    2    1    2    0    0  0.90559335180E+01 -0.13454561644E+03 -0.43551409640E+00  0.18388699724E+03  0.12501881957E+03 0.  0.
          2    1    1    2  501    0  0.46764293919E+02  0.10706216912E+03 -0.12788448797E+03  0.17321561566E+03  0.00000000000E+00 0. -1.
          1    1    1    2  502    0 -0.55820227437E+02  0.27483447315E+02  0.17637588212E+04  0.17648559196E+04  0.00000000000E+00 0. -1.
         22    1    3    3    0    0  0.89889173643E+01 -0.15648722045E+03 -0.15138575171E+02  0.15747452892E+03  0.00000000000E+00 0.  1.
         22    1    3    3    0    0  0.67016153712E-01  0.21941604014E+02  0.14703061075E+02  0.26412468321E+02  0.00000000000E+00 0.  1.
</event>
<event>
 7    1  0.6103724E-006  0.6873412E+02  0.7818608E-02  0.1378233E+00
          2   -1    0    0  502    0  0.00000000000E+00  0.00000000000E+00  0.95624145366E+03  0.95624145366E+03  0.00000000000E+00 0. -1.
          1   -1    0    0  501    0 -0.00000000000E+00 -0.00000000000E+00 -0.16762116131E+03  0.16762116131E+03  0.00000000000E+00 0. -1.
         25    2    1    2    0    0 -0.80577481669E+01  0.12530811150E+03  0.33490142294E+03  0.37888032911E+03  0.12499716232E+03 0.  0.
          2    1    1    2  501    0  0.46344131688E+01 -0.61162334605E+02 -0.13735482293E+03  0.15042824317E+03  0.00000000000E+00 0. -1.
          1    1    1    2  502    0  0.34233349981E+01 -0.64145776891E+02  0.59107369234E+03  0.59455404270E+03  0.00000000000E+00 0. -1.
         22    1    3    3    0    0 -0.48142549792E+02  0.58350433132E+02  0.25974148845E+03  0.27053302751E+03  0.00000000000E+00 0.  1.
         22    1    3    3    0    0  0.40084801625E+02  0.66957678363E+02  0.75159934485E+02  0.10834730160E+03  0.00000000000E+00 0.  1.
</event>
<event>
 7    1  0.6103724E-006  0.1497832E+03  0.7818608E-02  0.1340288E+00
          2   -1    0    0  502    0  0.00000000000E+00  0.00000000000E+00  0.18205926174E+04  0.18205926174E+04  0.00000000000E+00 0. -1.
          1   -1    0    0  501    0 -0.00000000000E+00 -0.00000000000E+00 -0.82574350949E+02  0.82574350949E+02  0.00000000000E+00 0. -1.
         25    2    1    2    0    0 -0.11917545143E+03  0.11552761417E+03  0.29272866164E+03  0.35897825619E+03  0.12500360482E+03 0.  0.
          2    1    1    2  501    0  0.80801586750E+02 -0.12080033691E+03  0.58191506053E+02  0.15654989363E+03  0.00000000000E+00 0. -1.
          1    1    1    2  502    0  0.38373864675E+02  0.52727227352E+01  0.13870980988E+04  0.13876388186E+04  0.00000000000E+00 0. -1.
         22    1    3    3    0    0 -0.11904820963E+03  0.31634571241E+02  0.15934439517E+03  0.20140471341E+03  0.00000000000E+00 0. -1.
         22    1    3    3    0    0 -0.12724179443E+00  0.83893042931E+02  0.13338426647E+03  0.15757354278E+03  0.00000000000E+00 0. -1.
</event>
<event>
 7    1  0.6103724E-006  0.8374118E+02  0.7818608E-02  0.1348508E+00
          2   -1    0    0  502    0  0.00000000000E+00  0.00000000000E+00  0.79746098488E+02  0.79746098488E+02  0.00000000000E+00 0. -1.
          1   -1    0    0  501    0 -0.00000000000E+00 -0.00000000000E+00 -0.13243920737E+04  0.13243920737E+04  0.00000000000E+00 0. -1.
         25    2    1    2    0    0  0.19350624188E+02  0.12993630421E+03 -0.89089090797E+02  0.20203026556E+03  0.12498588838E+03 0.  0.
          2    1    1    2  501    0 -0.40864490962E+01 -0.64421235791E+02 -0.11272963991E+04  0.11291430229E+04  0.00000000000E+00 0. -1.
          1    1    1    2  502    0 -0.15264175092E+02 -0.65515068420E+02 -0.28260485322E+02  0.72964883759E+02  0.00000000000E+00 0. -1.
         22    1    3    3    0    0  0.45167210386E+02 -0.34446958926E+01 -0.26127923621E+02  0.52293510272E+02  0.00000000000E+00 0.  1.
         22    1    3    3    0    0 -0.25816586197E+02  0.13338100010E+03 -0.62961167175E+02  0.14973675529E+03  0.00000000000E+00 0.  1.
</event>
<event>
 7    1  0.6103724E-006  0.8142162E+02  0.7818608E-02  0.1341909E+00
          2   -1    0    0  502    0  0.00000000000E+00  0.00000000000E+00  0.70744425443E+03  0.70744425443E+03  0.00000000000E+00 0. -1.
          1   -1    0    0  501    0 -0.00000000000E+00 -0.00000000000E+00 -0.56300521192E+03  0.56300521192E+03  0.00000000000E+00 0. -1.
         25    2    1    2    0    0  0.56032405167E+02 -0.91439279029E+02  0.15371365491E+03  0.22528491778E+03  0.12499853716E+03 0.  0.
          2    1    1    2  501    0  0.21414215353E+02  0.66921041956E+02 -0.52166443880E+03  0.52637513352E+03  0.00000000000E+00 0. -1.
          1    1    1    2  502    0 -0.77446620520E+02  0.24518237073E+02  0.51238982640E+03  0.51878941506E+03  0.00000000000E+00 0. -1.
         22    1    3    3    0    0  0.90834941622E+00 -0.10199920855E+03  0.67164333811E+02  0.12212989552E+03  0.00000000000E+00 0.  1.
         22    1    3    3    0    0  0.55124055750E+02  0.10559929518E+02  0.86549321101E+02  0.10315502226E+03  0.00000000000E+00 0.  1.
</event>
<event>
 7    1  0.6103724E-006  0.1532409E+03  0.7818608E-02  0.1279403E+00
          2   -1    0    0  502    0  0.00000000000E+00  0.00000000000E+00  0.46126838108E+04  0.46126838108E+04  0.00000000000E+00 0. -1.
          1   -1    0    0  501    0 -0.00000000000E+00 -0.00000000000E+00 -0.26387783620E+03  0.26387783620E+03  0.00000000000E+00 0. -1.
         25    2    1    2    0    0 -0.79630613839E+02 -0.12151955726E+03  0.76251303021E+02  0.20627631444E+03  0.12501047648E+03 0.  0.
          2    1    1    2  501    0  0.23391255732E+02  0.15570436058E+03 -0.16741762543E+03  0.22982528158E+03  0.00000000000E+00 0. -1.
          1    1    1    2  502    0  0.56239358107E+02 -0.34184803323E+02  0.44399722970E+04  0.44404600510E+04  0.00000000000E+00 0. -1.
         22    1    3    3    0    0 -0.78266769639E+02 -0.25797851565E+02 -0.23023842982E+01  0.82440993132E+02  0.00000000000E+00 0. -1.
         22    1    3    3    0    0 -0.13638441999E+01 -0.95721705691E+02  0.78553687319E+02  0.12383532131E+03  0.00000000000E+00 0. -1.
</event>
<event>
 7    1  0.6103724E-006  0.1101745E+03  0.7818608E-02  0.1318675E+00
          2   -1    0    0  502    0  0.00000000000E+00  0.00000000000E+00  0.10966293549E+04  0.10966293549E+04  0.00000000000E+00 0. -1.
          1   -1    0    0  501    0 -0.00000000000E+00 -0.00000000000E+00 -0.29387184651E+03  0.29387184651E+03  0.00000000000E+00 0. -1.
         25    2    1    2    0    0 -0.15424779332E+02 -0.16799681754E+03  0.80259855236E+02  0.22478056092E+03  0.12499520665E+03 0.  0.
          2    1    1    2  501    0  0.14898334609E+02  0.10430209940E+03 -0.20793785714E+03  0.23310735884E+03  0.00000000000E+00 0. -1.
          1    1    1    2  502    0  0.52644472251E+00  0.63694718140E+02  0.93043551028E+03  0.93261328162E+03  0.00000000000E+00 0. -1.
         22    1    3    3    0    0  0.13414425871E+02 -0.11485312111E+03 -0.10081159417E+02  0.11607246024E+03  0.00000000000E+00 0.  1.
         22    1    3    3    0    0 -0.28839205203E+02 -0.53143696428E+02  0.90341014652E+02  0.10870810069E+03  0.00000000000E+00 0.  1.
</event>
<event>
 7    1  0.6103724E-006  0.8251794E+02  0.7818608E-02  0.1434225E+00
          2   -1    0    0  502    0  0.00000000000E+00  0.00000000000E+00  0.42043973948E+04  0.42043973948E+04  0.00000000000E+00 0. -1.
          1   -1    0    0  501    0 -0.00000000000E+00 -0.00000000000E+00 -0.92640924453E+03  0.92640924453E+03  0.00000000000E+00 0. -1.
         25    2    1    2    0    0  0.86842827996E+02 -0.58053448146E+02  0.75796602678E+02  0.17967323875E+03  0.12500187250E+03 0.  0.
          2    1    1    2  501    0 -0.87928701378E+01  0.31725543915E+02 -0.87374481066E+03  0.87436480879E+03  0.00000000000E+00 0. -1.
          1    1    1    2  502    0 -0.78049957858E+02  0.26327904231E+02  0.40759363583E+04  0.40767685918E+04  0.00000000000E+00 0. -1.
         22    1    3    3    0    0  0.43582513212E+02 -0.17718555258E+02 -0.31873500944E+02  0.56826954175E+02  0.00000000000E+00 0.  1.
         22    1    3    3    0    0  0.43260314784E+02 -0.40334892888E+02  0.10767010362E+03  0.12284628457E+03  0.00000000000E+00 0.  1.
</event>
<event>
 7    1  0.6103724E-006  0.4381448E+02  0.7818608E-02  0.1483225E+00
          2   -1    0    0  502    0  0.00000000000E+00  0.00000000000E+00  0.22385834337E+03  0.22385834337E+03  0.00000000000E+00 0. -1.
          1   -1    0    0  501    0 -0.00000000000E+00 -0.00000000000E+00 -0.30359908750E+03  0.30359908750E+03  0.00000000000E+00 0. -1.
         25    2    1    2    0    0 -0.37731443080E+02 -0.56627909728E+01  0.13347534768E+03  0.18680753633E+03  0.12500263275E+03 0.  0.
          2    1    1    2  501    0  0.25515706648E+02 -0.35984735869E+02 -0.26751997947E+03  0.27113260947E+03  0.00000000000E+00 0. -1.
          1    1    1    2  502    0  0.12215736431E+02  0.41647526841E+02  0.54303887657E+02  0.69517285068E+02  0.00000000000E+00 0. -1.
         22    1    3    3    0    0  0.27649926723E+02  0.41267970792E+02  0.59314934712E+02  0.77368115790E+02  0.00000000000E+00 0. -1.
         22    1    3    3    0    0 -0.65381369803E+02 -0.46930761765E+02  0.74160412969E+02  0.10943942054E+03  0.00000000000E+00 0. -1.
</event>
<event>
 7    1  0.6103724E-006  0.1994361E+03  0.7818608E-02  0.1241319E+00
          2   -1    0    0  502    0  0.00000000000E+00  0.00000000000E+00  0.17143011654E+04  0.17143011654E+04  0.00000000000E+00 0. -1.
          1   -1    0    0  501    0 -0.00000000000E+00 -0.00000000000E+00 -0.17000801787E+03  0.17000801787E+03  0.00000000000E+00 0. -1.
         25    2    1    2    0    0  0.10999363897E+03  0.20301823089E+03  0.92048179210E+03  0.95719669587E+03  0.12499512913E+03 0.  0.
          2    1    1    2  501    0  0.17844484961E+02 -0.71315517207E+02 -0.13104792341E+03  0.15025939860E+03  0.00000000000E+00 0. -1.
          1    1    1    2  502    0 -0.12783812393E+03 -0.13170271368E+03  0.75485927884E+03  0.77685308880E+03  0.00000000000E+00 0. -1.
         22    1    3    3    0    0  0.16839844954E+02  0.10272896664E+03  0.21896481982E+03  0.24245084715E+03  0.00000000000E+00 0.  1.
         22    1    3    3    0    0  0.93153794012E+02  0.10028926425E+03  0.70151697228E+03  0.71474584872E+03  0.00000000000E+00 0.  1.
</event>
<event>
 7    1  0.6103724E-006  0.2225359E+03  0.7818608E-02  0.1234715E+00
          2   -1    0    0  502    0  0.00000000000E+00  0.00000000000E+00  0.42055166410E+03  0.42055166410E+03  0.00000000000E+00 0. -1.
          1   -1    0    0  501    0 -0.00000000000E+00 -0.00000000000E+00 -0.81551560809E+03  0.81551560809E+03  0.00000000000E+00 0. -1.
         25    2    1    2    0    0 -0.19093998901E+03 -0.96948317975E+01 -0.85955069436E+01  0.22858746027E+03  0.12500510023E+03 0.  0.
          2    1    1    2  501    0 -0.40434129475E+02  0.57714297166E+02 -0.64979014673E+03  0.65360010228E+03  0.00000000000E+00 0. -1.
          1    1    1    2  502    0  0.23137411849E+03 -0.48019465368E+02  0.26342170968E+03  0.35387970964E+03  0.00000000000E+00 0. -1.
         22    1    3    3    0    0 -0.13009583823E+03 -0.17460309730E+02 -0.63908122077E+02  0.14599327933E+03  0.00000000000E+00 0. -1.
         22    1    3    3    0    0 -0.60844150783E+02  0.77654779329E+01  0.55312615134E+02  0.82594180938E+02  0.00000000000E+00 0. -1.
</event>
<event>
 7    1  0.6103724E-006  0.1783885E+03  0.7818608E-02  0.1182134E+00
          2   -1    0    0  502    0  0.00000000000E+00  0.00000000000E+00  0.23236811616E+03  0.23236811616E+03  0.00000000000E+00 0. -1.
          1   -1    0    0  501    0 -0.00000000000E+00 -0.00000000000E+00 -0.20543319717E+04  0.20543319717E+04  0.00000000000E+00 0. -1.
         25    2    1    2    0    0  0.11527299620E+03  0.11384524883E+03 -0.34903866935E+03  0.40459589224E+03  0.12498495504E+03 0.  0.
          2    1    1    2  501    0 -0.19111480592E+03  0.20628977840E+02 -0.16419614327E+04  0.16531750574E+04  0.00000000000E+00 0. -1.
          1    1    1    2  502    0  0.75841809721E+02 -0.13447422667E+03  0.16903624647E+03  0.22892913830E+03  0.00000000000E+00 0. -1.
         22    1    3    3    0    0  0.67492875040E+02  0.13579672052E+03 -0.24784790760E+03  0.29055915540E+03  0.00000000000E+00 0.  1.
         22    1    3    3    0    0  0.47780121155E+02 -0.21951471688E+02 -0.10119076175E+03  0.11403673685E+03  0.00000000000E+00 0.  1.
</event>
<event>
 7    1  0.6103724E-006  0.1074863E+03  0.7818608E-02  0.1309562E+00
          2   -1    0    0  502    0  0.00000000000E+00  0.00000000000E+00  0.12580074376E+04  0.12580074376E+04  0.00000000000E+00 0. -1.
          1   -1    0    0  501    0 -0.00000000000E+00 -0.00000000000E+00 -0.81613989567E+03  0.81613989567E+03  0.00000000000E+00 0. -1.
         25    2    1    2    0    0 -0.24080944706E+02 -0.48794070099E+02  0.96206015510E+02  0.16686243502E+03  0.12500688631E+03 0.  0.
          2    1    1    2  501    0 -0.14353857609E+02  0.10834963844E+03 -0.77586262432E+03  0.78352312614E+03  0.00000000000E+00 0. -1.
          1    1    1    2  502    0  0.38434802315E+02 -0.59555568338E+02  0.11215241507E+04  0.11237617721E+04  0.00000000000E+00 0. -1.
         22    1    3    3    0    0  0.40030509815E+02 -0.27708740826E+02 -0.79670525863E+00  0.48691382949E+02  0.00000000000E+00 0. -1.
         22    1    3    3    0    0 -0.64111454521E+02 -0.21085329273E+02  0.97002720769E+02  0.11817105207E+03  0.00000000000E+00 0. -1.
</event>
<event>
 7    1  0.6103724E-006  0.1035267E+03  0.7818608E-02  0.1417972E+00
          2   -1    0    0  502    0  0.00000000000E+00  0.00000000000E+00  0.14438921098E+04  0.14438921098E+04  0.00000000000E+00 0. -1.
          1   -1    0    0  501    0 -0.00000000000E+00 -0.00000000000E+00 -0.19232364990E+04  0.19232364990E+04  0.00000000000E+00 0. -1.
         25    2    1    2    0    0  0.46277373460E+02  0.11848472728E+03  0.78219729917E+03  0.80227007186E+03  0.12499770994E+03 0.  0.
          2    1    1    2  501    0 -0.52173134965E+02 -0.89373665989E+02 -0.19114612395E+04  0.19142606297E+04  0.00000000000E+00 0. -1.
          1    1    1    2  502    0  0.58957615054E+01 -0.29111061296E+02  0.64991955120E+03  0.65059790726E+03  0.00000000000E+00 0. -1.
         22    1    3    3    0    0  0.18493432341E+02 -0.16843410613E+02  0.28926071850E+03  0.29034026725E+03  0.00000000000E+00 0.  1.
         22    1    3    3    0    0  0.27783941119E+02  0.13532813790E+03  0.49293658067E+03  0.51192980461E+03  0.00000000000E+00 0.  1.
</event>
<event>
 7    1  0.6103724E-006  0.1364943E+03  0.7818608E-02  0.1329279E+00
          2   -1    0    0  502    0  0.00000000000E+00  0.00000000000E+00  0.13939601092E+04  0.13939601092E+04  0.00000000000E+00 0. -1.
          1   -1    0    0  501    0 -0.00000000000E+00 -0.00000000000E+00 -0.11649865765E+04  0.11649865765E+04  0.00000000000E+00 0. -1.
         25    2    1    2    0    0  0.20786444935E+02  0.16994692560E+03 -0.54917563775E+03  0.58866463096E+03  0.12497252831E+03 0.  0.
          2    1    1    2  501    0 -0.21451381855E+02 -0.12315694865E+03 -0.58910721186E+03  0.60222512638E+03  0.00000000000E+00 0. -1.
          1    1    1    2  502    0  0.66493692006E+00 -0.46789976952E+02  0.13672563823E+04  0.13680569283E+04  0.00000000000E+00 0. -1.
         22    1    3    3    0    0  0.47803408143E+02  0.10129237742E+02 -0.10422343248E+03  0.11510990907E+03  0.00000000000E+00 0.  1.
         22    1    3    3    0    0 -0.27016963208E+02  0.15981768786E+03 -0.44495220526E+03  0.47355472189E+03  0.00000000000E+00 0.  1.
</event>
<event>
 7    1  0.6103724E-006  0.5091290E+02  0.7818608E-02  0.1493748E+00
          2   -1    0    0  502    0  0.00000000000E+00  0.00000000000E+00  0.72196937536E+03  0.72196937536E+03  0.00000000000E+00 0. -1.
          1   -1    0    0  501    0 -0.00000000000E+00 -0.00000000000E+00 -0.12174223965E+04  0.12174223965E+04  0.00000000000E+00 0. -1.
         25    2    1    2    0    0 -0.85583745227E+01 -0.26838633739E+02 -0.70853834380E+03  0.72003127466E+03  0.12499957532E+03 0.  0.
          2    1    1    2  501    0 -0.34705171880E+02 -0.72329313969E-01 -0.50163115634E+03  0.50283026082E+03  0.00000000000E+00 0. -1.
          1    1    1    2  502    0  0.43263546402E+02  0.26910963053E+02  0.71471647896E+03  0.71653023641E+03  0.00000000000E+00 0. -1.
         22    1    3    3    0    0 -0.21980934188E+02 -0.29508078566E+02 -0.70491451869E+03  0.70587418626E+03  0.00000000000E+00 0.  1.
         22    1    3    3    0    0  0.13422559665E+02  0.26694448271E+01 -0.36238251055E+01  0.14157088403E+02  0.00000000000E+00 0.  1.
</event>
<event>
 7    1  0.6103724E-006  0.8870536E+02  0.7818608E-02  0.1358029E+00
          2   -1    0    0  502    0  0.00000000000E+00  0.00000000000E+00  0.17679634358E+04  0.17679634358E+04  0.00000000000E+00 0. -1.
          1   -1    0    0  501    0 -0.00000000000E+00 -0.00000000000E+00 -0.15946695383E+03  0.15946695383E+03  0.00000000000E+00 0. -1.
         25    2    1    2    0    0 -0.36574642723E+02  0.13612674111E+03  0.45473942448E+03  0.49222381715E+03  0.12501259080E+03 0.  0.
          2    1    1    2  501    0  0.12465471583E+02 -0.54807235213E+02 -0.13366064121E+03  0.14499788971E+03  0.00000000000E+00 0. -1.
          1    1    1    2  502    0  0.24109171140E+02 -0.81319505893E+02  0.12874176987E+04  0.12902086827E+04  0.00000000000E+00 0. -1.
         22    1    3    3    0    0 -0.28290311382E+02  0.16033832572E+03  0.39282426699E+03  0.42522890912E+03  0.00000000000E+00 0.  1.
         22    1    3    3    0    0 -0.82843313410E+01 -0.24211584614E+02  0.61915157488E+02  0.66994908031E+02  0.00000000000E+00 0.  1.
</event>
<event>
 7    1  0.6103724E-006  0.2200285E+03  0.7818608E-02  0.1288316E+00
          2   -1    0    0  502    0  0.00000000000E+00  0.00000000000E+00  0.22480681492E+03  0.22480681492E+03  0.00000000000E+00 0. -1.
          1   -1    0    0  501    0 -0.00000000000E+00 -0.00000000000E+00 -0.14760156179E+04  0.14760156179E+04  0.00000000000E+00 0. -1.
         25    2    1    2    0    0  0.84291865357E+02  0.16407798362E+03 -0.16513145296E+03  0.27734242847E+03  0.12499489030E+03 0.  0.
          2    1    1    2  501    0 -0.10112998508E+03 -0.20269847614E+03 -0.12417315167E+04  0.12622246653E+04  0.00000000000E+00 0. -1.
          1    1    1    2  502    0  0.16838119722E+02  0.38620492519E+02  0.15565416676E+03  0.16125533898E+03  0.00000000000E+00 0. -1.
         22    1    3    3    0    0 -0.26240910115E+01  0.16890678983E+02  0.19366502424E+02  0.25831033783E+02  0.00000000000E+00 0. -1.
         22    1    3    3    0    0  0.86915956369E+02  0.14718730463E+03 -0.18449795539E+03  0.25151139469E+03  0.00000000000E+00 0. -1.
</event>
<event>
 7    1  0.8306067E-006  0.1077997E+03  0.7818608E-02  0.1337033E+00
          2   -1    0    0  502    0  0.00000000000E+00  0.00000000000E+00  0.16524884910E+04  0.16524884910E+04  0.00000000000E+00 0. -1.
          1   -1    0    0  501    0 -0.00000000000E+00 -0.00000000000E+00 -0.10990172695E+04  0.10990172695E+04  0.00000000000E+00 0. -1.
         25    2    1    2    0    0  0.25549495592E+02  0.57607308776E+02 -0.19525338545E+03  0.24025359773E+03  0.12500611162E+03 0.  0.
          2    1    1    2  501    0 -0.22555064855E+02  0.50559306273E+02 -0.87859568919E+03  0.88033820743E+03  0.00000000000E+00 0. -1.
          1    1    1    2  502    0 -0.29944307369E+01 -0.10816661505E+03  0.16273202962E+04  0.16309139553E+04  0.00000000000E+00 0. -1.
         22    1    3    3    0    0  0.67109101755E+02  0.44585918922E+02 -0.66937310722E+02  0.10474797980E+03  0.00000000000E+00 0. -1.
         22    1    3    3    0    0 -0.41559606163E+02  0.13021389854E+02 -0.12831607473E+03  0.13550561794E+03  0.00000000000E+00 0. -1.
</event>
<event>
 7    1  0.6103724E-006  0.6624429E+02  0.7818608E-02  0.1472554E+00
          2   -1    0    0  502    0  0.00000000000E+00  0.00000000000E+00  0.14444400985E+04  0.14444400985E+04  0.00000000000E+00 0. -1.
          1   -1    0    0  501    0 -0.00000000000E+00 -0.00000000000E+00 -0.17596642764E+04  0.17596642764E+04  0.00000000000E+00 0. -1.
         25    2    1    2    0    0  0.44250616180E+02  0.14632685778E+02  0.15573436748E+03  0.20505896264E+03  0.12499500958E+03 0.  0.
          2    1    1    2  501    0 -0.48441677321E+02 -0.45308444805E+02 -0.17341783049E+04  0.17354462954E+04  0.00000000000E+00 0. -1.
          1    1    1    2  502    0  0.41910611415E+01  0.30675759027E+02  0.12632197595E+04  0.12635991168E+04  0.00000000000E+00 0. -1.
         22    1    3    3    0    0 -0.24540195337E+02 -0.14932409596E+02  0.11755073724E+03  0.12100980898E+03  0.00000000000E+00 0.  1.
         22    1    3    3    0    0  0.68790811516E+02  0.29565095374E+02  0.38183630242E+02  0.84049153666E+02  0.00000000000E+00 0.  1.
</event>
<event>
 7    1  0.6103724E-006  0.1079080E+03  0.7818608E-02  0.1297757E+00
          2   -1    0    0  502    0  0.00000000000E+00  0.00000000000E+00  0.31889734785E+04  0.31889734785E+04  0.00000000000E+00 0. -1.
          1   -1    0    0  501    0 -0.00000000000E+00 -0.00000000000E+00 -0.54301994579E+02  0.54301994579E+02  0.00000000000E+00 0. -1.
         25    2    1    2    0    0 -0.76178789813E+02  0.36233911984E+02  0.24536765191E+04  0.24583059180E+04  0.12499368676E+03 0.  0.
          2    1    1    2  501    0  0.35064821240E+02 -0.10330689171E+03  0.10193736108E+02  0.10957083471E+03  0.00000000000E+00 0. -1.
          1    1    1    2  502    0  0.41113968574E+02  0.67072979728E+02  0.67080122869E+03  0.67539872034E+03  0.00000000000E+00 0. -1.
         22    1    3    3    0    0 -0.43546920442E+02 -0.26519298548E+02  0.37781997580E+03  0.38124472664E+03  0.00000000000E+00 0.  1.
         22    1    3    3    0    0 -0.32631869372E+02  0.62753210532E+02  0.20758565433E+04  0.20770611914E+04  0.00000000000E+00 0.  1.
</event>
<event>
 7    1  0.6103724E-006  0.5155785E+02  0.7818608E-02  0.1483889E+00
          2   -1    0    0  502    0  0.00000000000E+00  0.00000000000E+00  0.47518542273E+02  0.47518542273E+02  0.00000000000E+00 0. -1.
          1   -1    0    0  501    0 -0.00000000000E+00 -0.00000000000E+00 -0.12306980646E+04  0.12306980646E+04  0.00000000000E+00 0. -1.
         25    2    1    2    0    0 -0.33315312662E+02 -0.60628333297E+02 -0.51397258899E+03  0.53345925519E+03  0.12500099943E+03 0.  0.
          2    1    1    2  501    0  0.35491584920E+02  0.93863805552E+01 -0.68885642149E+03  0.68983398450E+03  0.00000000000E+00 0. -1.
          1    1    1    2  502    0 -0.21762722583E+01  0.51241952742E+02  0.19649488131E+02  0.54923367209E+02  0.00000000000E+00 0. -1.
         22    1    3    3    0    0 -0.61669965679E+02 -0.83030678432E+02 -0.42552949147E+03  0.43791851564E+03  0.00000000000E+00 0.  1.
         22    1    3    3    0    0  0.28354653017E+02  0.22402345135E+02 -0.88443097525E+02  0.95540739557E+02  0.00000000000E+00 0.  1.
</event>
<event>
 7    1  0.6103724E-006  0.1117517E+03  0.7818608E-02  0.1324314E+00
          2   -1    0    0  502    0  0.00000000000E+00  0.00000000000E+00  0.15240003604E+03  0.15240003604E+03  0.00000000000E+00 0. -1.
          1   -1    0    0  501    0 -0.00000000000E+00 -0.00000000000E+00 -0.61934778871E+03  0.61934778871E+03  0.00000000000E+00 0. -1.
         25    2    1    2    0    0  0.25405903354E+01  0.11878319343E+03 -0.32946991998E+03  0.37187478160E+03  0.12499809350E+03 0.  0.
          2    1    1    2  501    0  0.55302721610E+02 -0.22540218970E+02 -0.24030634830E+03  0.24761581840E+03  0.00000000000E+00 0. -1.
          1    1    1    2  502    0 -0.57843311945E+02 -0.96242974457E+02  0.10282851560E+03  0.15225722476E+03  0.00000000000E+00 0. -1.
         22    1    3    3    0    0  0.46197423009E+02  0.88759831338E+02 -0.28708476011E+03  0.30402330345E+03  0.00000000000E+00 0.  1.
         22    1    3    3    0    0 -0.43656832674E+02  0.30023362089E+02 -0.42385159863E+02  0.67851478148E+02  0.00000000000E+00 0.  1.
</event>
<event>
 7    1  0.6103724E-006  0.4337056E+03  0.7818608E-02  0.1210490E+00
          2   -1    0    0  502    0  0.00000000000E+00  0.00000000000E+00  0.13829748066E+04  0.13829748066E+04  0.00000000000E+00 0. -1.
          1   -1    0    0  501    0 -0.00000000000E+00 -0.00000000000E+00 -0.28118539975E+04  0.28118539975E+04  0.00000000000E+00 0. -1.
         25    2    1    2    0    0  0.30318217136E+01  0.41185728160E+03  0.56197096138E+02  0.43407523233E+03  0.12501032500E+03 0.  0.
          2    1    1    2  501    0  0.38066614714E+02 -0.43377652511E+03 -0.26043546584E+04  0.26405064529E+04  0.00000000000E+00 0. -1.
          1    1    1    2  502    0 -0.41098436427E+02  0.21919243507E+02  0.11192783714E+04  0.11202471189E+04  0.00000000000E+00 0. -1.
         22    1    3    3    0    0 -0.49179528138E+02  0.32397217503E+03  0.51832526594E+02  0.33175775348E+03  0.00000000000E+00 0.  1.
         22    1    3    3    0    0  0.52211349852E+02  0.87885106576E+02  0.43645695440E+01  0.10231747885E+03  0.00000000000E+00 0.  1.
</event>
<event>
 7    1  0.6103724E-006  0.7880548E+02  0.7818608E-02  0.1368471E+00
          2   -1    0    0  502    0  0.00000000000E+00  0.00000000000E+00  0.55113841059E+03  0.55113841059E+03  0.00000000000E+00 0. -1.
          1   -1    0    0  501    0 -0.00000000000E+00 -0.00000000000E+00 -0.74564126205E+03  0.74564126205E+03  0.00000000000E+00 0. -1.
         25    2    1    2    0    0  0.28708766694E+02  0.60170260714E+02  0.23452079353E+03  0.27398742842E+03  0.12499781907E+03 0.  0.
          2    1    1    2  501    0  0.27565597585E+02 -0.74120184557E+02 -0.72089437862E+03  0.72521884219E+03  0.00000000000E+00 0. -1.
          1    1    1    2  502    0 -0.56274364279E+02  0.13949923844E+02  0.29187073364E+03  0.29757340204E+03  0.00000000000E+00 0. -1.
         22    1    3    3    0    0  0.41328082984E+01  0.80691019565E+02  0.71619986235E+02  0.10797010314E+03  0.00000000000E+00 0. -1.
         22    1    3    3    0    0  0.24575958396E+02 -0.20520758852E+02  0.16290080730E+03  0.16601732528E+03  0.00000000000E+00 0. -1.
</event>
<event>
 7    1  0.6103724E-006  0.5834159E+02  0.7818608E-02  0.1487145E+00
          2   -1    0    0  502    0  0.00000000000E+00  0.00000000000E+00  0.64929934536E+02  0.64929934536E+02  0.00000000000E+00 0. -1.
          1   -1    0    0  501    0 -0.00000000000E+00 -0.00000000000E+00 -0.27411674983E+03  0.27411674983E+03  0.00000000000E+00 0. -1.
         25    2    1    2    0    0 -0.56696033963E+02 -0.35772079424E+02 -0.14320752832E+03  0.20156159349E+03  0.12499839146E+03 0.  0.
          2    1    1    2  501    0 -0.12213682218E+01  0.31687412404E+02 -0.72428991617E+02  0.79066697616E+02  0.00000000000E+00 0. -1.
          1    1    1    2  502    0  0.57917402185E+02  0.40846670203E+01  0.64497046496E+01  0.58418393256E+02  0.00000000000E+00 0. -1.
         22    1    3    3    0    0  0.15432501728E+02  0.13779019834E+02 -0.10335472084E+03  0.10540503697E+03  0.00000000000E+00 0.  1.
         22    1    3    3    0    0 -0.72128535691E+02 -0.49551099259E+02 -0.39852807480E+02  0.96156556525E+02  0.00000000000E+00 0.  1.
</event>
<event>
 7    1  0.6103724E-006  0.9645234E+02  0.7818608E-02  0.1428779E+00
          2   -1    0    0  502    0  0.00000000000E+00  0.00000000000E+00  0.21012483249E+04  0.21012483249E+04  0.00000000000E+00 0. -1.
          1   -1    0    0  501    0 -0.00000000000E+00 -0.00000000000E+00 -0.16433597149E+04  0.16433597149E+04  0.00000000000E+00 0. -1.
         25    2    1    2    0    0 -0.14870112224E+02 -0.12215271236E+03 -0.40565652835E+03  0.44195538416E+03  0.12499974891E+03 0.  0.
          2    1    1    2  501    0  0.13494513651E+02  0.92835146387E+02 -0.12176461008E+04  0.12212544752E+04  0.00000000000E+00 0. -1.
          1    1    1    2  502    0  0.13755985732E+01  0.29317565974E+02  0.20811912391E+04  0.20813981804E+04  0.00000000000E+00 0. -1.
         22    1    3    3    0    0  0.15030167850E+02 -0.68436563710E+02 -0.64276082316E+02  0.95083563016E+02  0.00000000000E+00 0. -1.
         22    1    3    3    0    0 -0.29900280073E+02 -0.53716148651E+02 -0.34138044603E+03  0.34687182115E+03  0.00000000000E+00 0. -1.
</event>
<event>
 7    1  0.6103724E-006  0.1772529E+03  0.7818608E-02  0.1308429E+00
          2   -1    0    0  502    0  0.00000000000E+00  0.00000000000E+00  0.15379029323E+04  0.15379029323E+04  0.00000000000E+00 0. -1.
          1   -1    0    0  501    0 -0.00000000000E+00 -0.00000000000E+00 -0.23386188651E+03  0.23386188651E+03  0.00000000000E+00 0. -1.
         25    2    1    2    0    0  0.12621851444E+03 -0.17527186300E+03  0.16594392065E+03  0.29968851913E+03  0.12499793738E+03 0.  0.
          2    1    1    2  501    0 -0.16913938091E+02  0.39998060492E+02 -0.15825747074E+03  0.16410774872E+03  0.00000000000E+00 0. -1.
          1    1    1    2  502    0 -0.10930457635E+03  0.13527380251E+03  0.12963545959E+04  0.13079685510E+04  0.00000000000E+00 0. -1.
         22    1    3    3    0    0  0.11088382863E+03 -0.15786527104E+03  0.18676989331E+03  0.26851379909E+03  0.00000000000E+00 0.  1.
         22    1    3    3    0    0  0.15334685817E+02 -0.17406591960E+02 -0.20825972659E+02  0.31174720046E+02  0.00000000000E+00 0.  1.
</event>
<event>
 7    1  0.6103724E-006  0.1128996E+03  0.7818608E-02  0.1386852E+00
          2   -1    0    0  502    0  0.00000000000E+00  0.00000000000E+00  0.82105817155E+03  0.82105817155E+03  0.00000000000E+00 0. -1.
          1   -1    0    0  501    0 -0.00000000000E+00 -0.00000000000E+00 -0.22439833812E+03  0.22439833812E+03  0.00000000000E+00 0. -1.
         25    2    1    2    0    0 -0.59375734163E+02  0.59265530941E+02 -0.17124208927E+02  0.15151512543E+03  0.12500285492E+03 0.  0.
          2    1    1    2  501    0 -0.34167969592E+02  0.66925922854E+01 -0.13348821153E+03  0.13795413569E+03  0.00000000000E+00 0. -1.
          1    1    1    2  502    0  0.93543703756E+02 -0.65958123227E+02  0.74727225388E+03  0.75598724854E+03  0.00000000000E+00 0. -1.
         22    1    3    3    0    0 -0.14743250099E+02  0.65796721655E+02 -0.59275377775E+02  0.89778295898E+02  0.00000000000E+00 0.  1.
         22    1    3    3    0    0 -0.44632484065E+02 -0.65311907135E+01  0.42151168847E+02  0.61736829536E+02  0.00000000000E+00 0.  1.
</event>
<event>
 7    1  0.6103724E-006  0.1231528E+03  0.7818608E-02  0.1337638E+00
          2   -1    0    0  502    0  0.00000000000E+00  0.00000000000E+00  0.11926658989E+04  0.11926658989E+04  0.00000000000E+00 0. -1.
          1   -1    0    0  501    0 -0.00000000000E+00 -0.00000000000E+00 -0.12401922885E+03  0.12401922885E+03  0.00000000000E+00 0. -1.
         25    2    1    2    0    0  0.13528311613E+03  0.88658421725E+02  0.43363633663E+03  0.47940220931E+03  0.12499667435E+03 0.  0.
          2    1    1    2  501    0 -0.11061936167E+03 -0.47239594304E+02 -0.64246412703E+02  0.13636650612E+03  0.00000000000E+00 0. -1.
          1    1    1    2  502    0 -0.24663754462E+02 -0.41418827420E+02  0.69925674609E+03  0.70091641228E+03  0.00000000000E+00 0. -1.
         22    1    3    3    0    0  0.12418528057E+01 -0.11595881070E+02  0.14706784021E+03  0.14752950987E+03  0.00000000000E+00 0. -1.
         22    1    3    3    0    0  0.13404126333E+03  0.10025430279E+03  0.28656849641E+03  0.33187269945E+03  0.00000000000E+00 0. -1.
</event>
<event>
 7    1  0.6103724E-006  0.6537859E+02  0.7818608E-02  0.1412730E+00
          2   -1    0    0  502    0  0.00000000000E+00  0.00000000000E+00  0.27401720866E+04  0.27401720866E+04  0.00000000000E+00 0. -1.
          1   -1    0    0  501    0 -0.00000000000E+00 -0.00000000000E+00 -0.55963545294E+03  0.55963545294E+03  0.00000000000E+00 0. -1.
         25    2    1    2    0    0  0.15723545830E+02  0.45559781424E+02  0.20968070339E+03  0.24882436116E+03  0.12499856702E+03 0.  0.
          2    1    1    2  501    0  0.44980730401E+02 -0.19388237790E+02 -0.53851684411E+03  0.54073982770E+03  0.00000000000E+00 0. -1.
          1    1    1    2  502    0 -0.60704276231E+02 -0.26171543634E+02  0.25093727743E+04  0.25102433506E+04  0.00000000000E+00 0. -1.
         22    1    3    3    0    0 -0.34954249583E+02  0.50413962691E+02  0.17937936773E+03  0.18957933634E+03  0.00000000000E+00 0. -1.
         22    1    3    3    0    0  0.50677795413E+02 -0.48541812670E+01  0.30301335656E+02  0.59245024823E+02  0.00000000000E+00 0. -1.
</event>
<event>
 7    1  0.6103724E-006  0.9860421E+02  0.7818608E-02  0.1331485E+00
          2   -1    0    0  502    0  0.00000000000E+00  0.00000000000E+00  0.41745456734E+03  0.41745456734E+03  0.00000000000E+00 0. -1.
          1   -1    0    0  501    0 -0.00000000000E+00 -0.00000000000E+00 -0.42446204866E+03  0.42446204866E+03  0.00000000000E+00 0. -1.
         25    2    1    2    0    0 -0.38061336199E+02  0.10838884615E+03  0.42743061117E+01  0.16982415100E+03  0.12500066114E+03 0.  0.
          2    1    1    2  501    0  0.62251299528E+02 -0.12690084634E+02 -0.33122790669E+03  0.33726575384E+03  0.00000000000E+00 0. -1.
          1    1    1    2  502    0 -0.24189963329E+02 -0.95698761514E+02  0.31994611925E+03  0.33482671116E+03  0.00000000000E+00 0. -1.
         22    1    3    3    0    0 -0.64595775524E+01  0.19638332660E+02  0.57859518827E+02  0.61441957738E+02  0.00000000000E+00 0. -1.
         22    1    3    3    0    0 -0.31601758646E+02  0.88750513488E+02 -0.53585212715E+02  0.10838219326E+03  0.00000000000E+00 0. -1.
</event>
<event>
 7    1  0.6103724E-006  0.1088321E+03  0.7818608E-02  0.1328698E+00
          2   -1    0    0  502    0  0.00000000000E+00  0.00000000000E+00  0.85829856337E+03  0.85829856337E+03  0.00000000000E+00 0. -1.
          1   -1    0    0  501    0 -0.00000000000E+00 -0.00000000000E+00 -0.47557950343E+03  0.47557950343E+03  0.00000000000E+00 0. -1.
         25    2    1    2    0    0  0.50706050699E+02  0.19315798305E+02  0.35784737295E+02  0.14087566422E+03  0.12498480589E+03 0.  0.
          2    1    1    2  501    0  0.56583932180E+02  0.16674694117E+02 -0.41678776657E+03  0.42094159829E+03  0.00000000000E+00 0. -1.
          1    1    1    2  502    0 -0.10728998288E+03 -0.35990492422E+02  0.76372208922E+03  0.77206080430E+03  0.00000000000E+00 0. -1.
         22    1    3    3    0    0 -0.37368577661E+00 -0.33410349668E+02  0.55573273610E+02  0.64844273808E+02  0.00000000000E+00 0.  1.
         22    1    3    3    0    0  0.51079736476E+02  0.52726147973E+02 -0.19788536314E+02  0.76031390412E+02  0.00000000000E+00 0.  1.
</event>
<event>
 7    1  0.6103724E-006  0.2024299E+03  0.7818608E-02  0.1269300E+00
          2   -1    0    0  502    0  0.00000000000E+00  0.00000000000E+00  0.81946418792E+03  0.81946418792E+03  0.00000000000E+00 0. -1.
          1   -1    0    0  501    0 -0.00000000000E+00 -0.00000000000E+00 -0.12957784002E+04  0.12957784002E+04  0.00000000000E+00 0. -1.
         25    2    1    2    0    0 -0.15641880603E+03 -0.11332189058E+03  0.73799275060E+02  0.24162092801E+03  0.12500258433E+03 0.  0.
          2    1    1    2  501    0  0.19070450938E+03  0.70448075410E+02 -0.12021797269E+04  0.12192486363E+04  0.00000000000E+00 0. -1.
          1    1    1    2  502    0 -0.34285703343E+02  0.42873815168E+02  0.65206623960E+03  0.65437302382E+03  0.00000000000E+00 0. -1.
         22    1    3    3    0    0  0.19367172457E+00  0.18965222107E+02 -0.84085489858E+01  0.20746586571E+02  0.00000000000E+00 0. -1.
         22    1    3    3    0    0 -0.15661247776E+03 -0.13228711268E+03  0.82207824045E+02  0.22087434144E+03  0.00000000000E+00 0. -1.
</event>
<event>
 7    1  0.6103724E-006  0.1438854E+03  0.7818608E-02  0.1321686E+00
          2   -1    0    0  502    0  0.00000000000E+00  0.00000000000E+00  0.42120459885E+03  0.42120459885E+03  0.00000000000E+00 0. -1.
          1   -1    0    0  501    0 -0.00000000000E+00 -0.00000000000E+00 -0.30753036546E+04  0.30753036546E+04  0.00000000000E+00 0. -1.
         25    2    1    2    0    0 -0.16093181954E+03  0.91474215384E+02 -0.58623579158E+03  0.62734741016E+03  0.12500314830E+03 0.  0.
          2    1    1    2  501    0  0.11486309136E+03 -0.79987777031E+02 -0.24651131291E+04  0.24690836992E+04  0.00000000000E+00 0. -1.
          1    1    1    2  502    0  0.46068728183E+02 -0.11486438353E+02  0.39724986498E+03  0.40007714407E+03  0.00000000000E+00 0. -1.
         22    1    3    3    0    0 -0.13718975963E+03  0.60981803214E+02 -0.56205387566E+03  0.58175971811E+03  0.00000000000E+00 0. -1.
         22    1    3    3    0    0 -0.23742059915E+02  0.30492412170E+02 -0.24181915917E+02  0.45587692049E+02  0.00000000000E+00 0. -1.
</event>
<event>
 7    1  0.6103724E-006  0.1659651E+03  0.7818608E-02  0.1293388E+00
          2   -1    0    0  502    0  0.00000000000E+00  0.00000000000E+00  0.44462016907E+03  0.44462016907E+03  0.00000000000E+00 0. -1.
          1   -1    0    0  501    0 -0.00000000000E+00 -0.00000000000E+00 -0.62067817827E+03  0.62067817827E+03  0.00000000000E+00 0. -1.
         25    2    1    2    0    0  0.12644043152E+03 -0.15874214626E+03  0.59125654318E+02  0.24557533632E+03  0.12500060435E+03 0.  0.
          2    1    1    2  501    0 -0.97182019279E+01  0.52373882681E+02 -0.50461709816E+03  0.50742081430E+03  0.00000000000E+00 0. -1.
          1    1    1    2  502    0 -0.11672222959E+03  0.10636826358E+03  0.26943343464E+03  0.31230219673E+03  0.00000000000E+00 0. -1.
         22    1    3    3    0    0 -0.12553261656E+02 -0.70763639966E+02  0.35976970818E+01  0.71958464017E+02  0.00000000000E+00 0.  1.
         22    1    3    3    0    0  0.13899369318E+03 -0.87978506295E+02  0.55527957236E+02  0.17361687230E+03  0.00000000000E+00 0.  1.
</event>
<event>
 7    1  0.6103724E-006  0.3327246E+03  0.7818608E-02  0.1154783E+00
          2   -1    0    0  502    0  0.00000000000E+00  0.00000000000E+00  0.43973071123E+03  0.43973071123E+03  0.00000000000E+00 0. -1.
          1   -1    0    0  501    0 -0.00000000000E+00 -0.00000000000E+00 -0.10806906755E+04  0.10806906755E+04  0.00000000000E+00 0. -1.
         25    2    1    2    0    0  0.61498464153E+02  0.24820439159E+03  0.71443120998E+01  0.28471630050E+03  0.12499939791E+03 0.  0.
          2    1    1    2  501    0 -0.13898607961E+02 -0.35099062720E+03 -0.89641353807E+03  0.96277973749E+03  0.00000000000E+00 0. -1.
          1    1    1    2  502    0 -0.47599856192E+02  0.10278623561E+03  0.24830926170E+03  0.27292534874E+03  0.00000000000E+00 0. -1.
         22    1    3    3    0    0  0.24761143025E+02  0.24645743399E+03  0.31185542691E+01  0.24771779579E+03  0.00000000000E+00 0.  1.
         22    1    3    3    0    0  0.36737321128E+02  0.17469576041E+01  0.40257578307E+01  0.36998504708E+02  0.00000000000E+00 0.  1.
</event>
<event>
 7    1  0.6103724E-006  0.5216659E+02  0.7818608E-02  0.1446817E+00
          2   -1    0    0  502    0  0.00000000000E+00  0.00000000000E+00  0.13894002648E+04  0.13894002648E+04  0.00000000000E+00 0. -1.
          1   -1    0    0  501    0 -0.00000000000E+00 -0.00000000000E+00 -0.65469201084E+02  0.65469201084E+02  0.00000000000E+00 0. -1.
         25    2    1    2    0    0 -0.86638628084E+02  0.41556298216E+02  0.47383640859E+03  0.49938455368E+03  0.12502324803E+03 0.  0.
          2    1    1    2  501    0  0.40351850222E+02 -0.31333450881E+02 -0.39531246388E+02  0.64597030903E+02  0.00000000000E+00 0. -1.
          1    1    1    2  502    0  0.46286777862E+02 -0.10222847334E+02  0.88962590152E+03  0.89088788132E+03  0.00000000000E+00 0. -1.
         22    1    3    3    0    0  0.26053157731E+01  0.54297937690E+02  0.28494324270E+03  0.29008223880E+03  0.00000000000E+00 0. -1.
         22    1    3    3    0    0 -0.89243943857E+02 -0.12741639474E+02  0.18889316589E+03  0.20930231487E+03  0.00000000000E+00 0. -1.
</event>
<event>
 7    1  0.6103724E-006  0.9917052E+02  0.7818608E-02  0.1290984E+00
          2   -1    0    0  502    0  0.00000000000E+00  0.00000000000E+00  0.62216002534E+03  0.62216002534E+03  0.00000000000E+00 0. -1.
          1   -1    0    0  501    0 -0.00000000000E+00 -0.00000000000E+00 -0.17690871067E+03  0.17690871067E+03  0.00000000000E+00 0. -1.
         25    2    1    2    0    0 -0.86441049981E+02 -0.15159025556E+03  0.12287937291E+03  0.24733883806E+03  0.12500199928E+03 0.  0.
          2    1    1    2  501    0  0.67669866687E+02  0.62375240333E+02 -0.90403386219E+02  0.12900640955E+03  0.00000000000E+00 0. -1.
          1    1    1    2  502    0  0.18771183293E+02  0.89215015228E+02  0.41277532797E+03  0.42272348840E+03  0.00000000000E+00 0. -1.
         22    1    3    3    0    0 -0.46828865465E+02 -0.15840045573E+03  0.66414715319E+02  0.17802966446E+03  0.00000000000E+00 0. -1.
         22    1    3    3    0    0 -0.39612184516E+02  0.68102001709E+01  0.56464657593E+02  0.69309173603E+02  0.00000000000E+00 0. -1.
</event>
<event>
 7    1  0.6103724E-006  0.1226639E+03  0.7818608E-02  0.1331966E+00
          2   -1    0    0  502    0  0.00000000000E+00  0.00000000000E+00  0.11751499577E+04  0.11751499577E+04  0.00000000000E+00 0. -1.
          1   -1    0    0  501    0 -0.00000000000E+00 -0.00000000000E+00 -0.76487990651E+02  0.76487990651E+02  0.00000000000E+00 0. -1.
         25    2    1    2    0    0 -0.79630690512E+02 -0.46670950129E+02  0.41826782412E+03  0.44619650986E+03  0.12499651299E+03 0.  0.
          2    1    1    2  501    0 -0.50748663025E+02  0.32925542964E+01 -0.44538567591E+02  0.67601418000E+02  0.00000000000E+00 0. -1.
          1    1    1    2  502    0  0.13037935354E+03  0.43378395833E+02  0.72493271050E+03  0.73784002047E+03  0.00000000000E+00 0. -1.
         22    1    3    3    0    0 -0.33486375747E+02 -0.84109735199E+02  0.30681518306E+03  0.31989270306E+03  0.00000000000E+00 0.  1.
         22    1    3    3    0    0 -0.46144314765E+02  0.37438785070E+02  0.11145264106E+03  0.12630380680E+03  0.00000000000E+00 0.  1.
</event>
<event>
 7    1  0.6103724E-006  0.1361661E+03  0.7818608E-02  0.1396574E+00
          2   -1    0    0  502    0  0.00000000000E+00  0.00000000000E+00  0.86034981432E+03  0.86034981432E+03  0.00000000000E+00 0. -1.
          1   -1    0    0  501    0 -0.00000000000E+00 -0.00000000000E+00 -0.16862539928E+04  0.16862539928E+04  0.00000000000E+00 0. -1.
         25    2    1    2    0    0  0.12921245709E+03 -0.96582365113E+02 -0.15286667778E+03  0.25497426743E+03  0.12497857240E+03 0.  0.
          2    1    1    2  501    0 -0.17137655095E+02  0.20479361304E+02 -0.14765426885E+04  0.14767841462E+04  0.00000000000E+00 0. -1.
          1    1    1    2  502    0 -0.11207480200E+03  0.76103003809E+02  0.80350518782E+03  0.81484539348E+03  0.00000000000E+00 0. -1.
         22    1    3    3    0    0  0.35924692775E+02  0.22451057463E+02 -0.36514963926E+01  0.42520194709E+02  0.00000000000E+00 0. -1.
         22    1    3    3    0    0  0.93287764317E+02 -0.11903342258E+03 -0.14921518139E+03  0.21245407272E+03  0.00000000000E+00 0. -1.
</event>
<event>
 7    1  0.6103724E-006  0.2644104E+03  0.7818608E-02  0.1292111E+00
          2   -1    0    0  502    0  0.00000000000E+00  0.00000000000E+00  0.10396945033E+04  0.10396945033E+04  0.00000000000E+00 0. -1.
          1   -1    0    0  501    0 -0.00000000000E+00 -0.00000000000E+00 -0.77495387989E+03  0.77495387989E+03  0.00000000000E+00 0. -1.
         25    2    1    2    0    0 -0.22352056130E+03  0.94122604201E+02 -0.44574535195E+03  0.52262210874E+03  0.12499777522E+03 0.  0.
          2    1    1    2  501    0 -0.95774225837E+01  0.32452144116E+02 -0.27213715030E+03  0.27423256053E+03  0.00000000000E+00 0. -1.
          1    1    1    2  502    0  0.23309798388E+03 -0.12657474832E+03  0.98262312561E+03  0.10177937139E+04  0.00000000000E+00 0. -1.
         22    1    3    3    0    0 -0.79873392693E+02  0.95264924958E+02 -0.15830803908E+03  0.20128735685E+03  0.00000000000E+00 0. -1.
         22    1    3    3    0    0 -0.14364716861E+03 -0.11423207562E+01 -0.28743731287E+03  0.32133475190E+03  0.00000000000E+00 0. -1.
</event>
<event>
 7    1  0.6103724E-006  0.6762669E+02  0.7818608E-02  0.1392376E+00
          2   -1    0    0  502    0  0.00000000000E+00  0.00000000000E+00  0.86522303046E+03  0.86522303046E+03  0.00000000000E+00 0. -1.
          1   -1    0    0  501    0 -0.00000000000E+00 -0.00000000000E+00 -0.59818990070E+03  0.59818990070E+03  0.00000000000E+00 0. -1.
         25    2    1    2    0    0  0.10469161365E+03 -0.60407542947E+02 -0.89937687113E+02  0.19576361998E+03  0.12500080852E+03 0.  0.
          2    1    1    2  501    0 -0.41991810134E+02  0.36443778848E+02 -0.45224715942E+03  0.45565222960E+03  0.00000000000E+00 0. -1.
          1    1    1    2  502    0 -0.62699803515E+02  0.23963764100E+02  0.80921797630E+03  0.81199708159E+03  0.00000000000E+00 0. -1.
         22    1    3    3    0    0  0.23996506333E+02  0.29626889878E+02 -0.60197054859E+02  0.71254967081E+02  0.00000000000E+00 0. -1.
         22    1    3    3    0    0  0.80695107316E+02 -0.90034432825E+02 -0.29740632254E+02  0.12450865289E+03  0.00000000000E+00 0. -1.
</event>
<event>
 7    1  0.6103724E-006  0.1269983E+03  0.7818608E-02  0.1368398E+00
          2   -1    0    0  502    0  0.00000000000E+00  0.00000000000E+00  0.92432462735E+02  0.92432462735E+02  0.00000000000E+00 0. -1.
          1   -1    0    0  501    0 -0.00000000000E+00 -0.00000000000E+00 -0.65469668925E+03  0.65469668925E+03  0.00000000000E+00 0. -1.
         25    2    1    2    0    0 -0.95799086734E+02  0.14139939841E+02 -0.36210533989E+03  0.39512372734E+03  0.12500031924E+03 0.  0.
          2    1    1    2  501    0 -0.32513174837E+02  0.15452592127E+02 -0.21635794203E+03  0.21933227811E+03  0.00000000000E+00 0. -1.
          1    1    1    2  502    0  0.12831226157E+03 -0.29592531967E+02  0.16199055401E+02  0.13267314654E+03  0.00000000000E+00 0. -1.
         22    1    3    3    0    0 -0.10426364577E+02 -0.38925902564E+02 -0.20272776064E+03  0.20669416998E+03  0.00000000000E+00 0.  1.
         22    1    3    3    0    0 -0.85372722157E+02  0.53065842404E+02 -0.15937757925E+03  0.18842955736E+03  0.00000000000E+00 0.  1.
</event>
<event>
 7    1  0.6103724E-006  0.7475089E+02  0.7818608E-02  0.1388262E+00
          2   -1    0    0  502    0  0.00000000000E+00  0.00000000000E+00  0.16507688195E+04  0.16507688195E+04  0.00000000000E+00 0. -1.
          1   -1    0    0  501    0 -0.00000000000E+00 -0.00000000000E+00 -0.35761104030E+03  0.35761104030E+03  0.00000000000E+00 0. -1.
         25    2    1    2    0    0  0.10236347620E+03 -0.15119940726E+02  0.10612102943E+04  0.10735491007E+04  0.12503395113E+03 0.  0.
          2    1    1    2  501    0 -0.46466869439E+02 -0.23322083032E+02 -0.34752914112E+03  0.35139663265E+03  0.00000000000E+00 0. -1.
          1    1    1    2  502    0 -0.55896606764E+02  0.38442023759E+02  0.57947662598E+03  0.58343412644E+03  0.00000000000E+00 0. -1.
         22    1    3    3    0    0  0.36970523519E+02  0.33298612446E+02  0.75736936949E+03  0.75900196247E+03  0.00000000000E+00 0.  1.
         22    1    3    3    0    0  0.65392952684E+02 -0.48418553172E+02  0.30384092485E+03  0.31454713822E+03  0.00000000000E+00 0.  1.
</event>
<event>
 7    1  0.6103724E-006  0.9278709E+02  0.7818608E-02  0.1310070E+00
          2   -1    0    0  502    0  0.00000000000E+00  0.00000000000E+00  0.11838137505E+04  0.11838137505E+04  0.00000000000E+00 0. -1.
          1   -1    0    0  501    0 -0.00000000000E+00 -0.00000000000E+00 -0.11501444710E+03  0.11501444710E+03  0.00000000000E+00 0. -1.
         25    2    1    2    0    0  0.38764346598E+02 -0.11910706583E+02  0.61095517597E+03  0.62492910576E+03  0.12500248272E+03 0.  0.
          2    1    1    2  501    0  0.90163491819E+02  0.21908643823E+02 -0.78899697671E+02  0.12179739826E+03  0.00000000000E+00 0. -1.
          1    1    1    2  502    0 -0.12892783842E+03 -0.99979372397E+01  0.53674382513E+03  0.55210169361E+03  0.00000000000E+00 0. -1.
         22    1    3    3    0    0 -0.11475311987E+02 -0.13156745019E+02  0.68763461793E+01  0.18763444819E+02  0.00000000000E+00 0.  1.
         22    1    3    3    0    0  0.50239658585E+02  0.12460384366E+01  0.60407882979E+03  0.60616566095E+03  0.00000000000E+00 0.  1.
</event>
<event>
 7    1  0.6103724E-006  0.4851658E+02  0.7818608E-02  0.1494081E+00
          2   -1    0    0  502    0  0.00000000000E+00  0.00000000000E+00  0.32752785119E+03  0.32752785119E+03  0.00000000000E+00 0. -1.
          1   -1    0    0  501    0 -0.00000000000E+00 -0.00000000000E+00 -0.10159239318E+03  0.10159239318E+03  0.00000000000E+00 0. -1.
         25    2    1    2    0    0 -0.20972661641E+02 -0.74376193750E+02  0.22763855783E+03  0.27095336621E+03  0.12499897166E+03 0.  0.
          2    1    1    2  501    0  0.27986402094E+02  0.38724034255E+02 -0.67680369026E+02  0.82845771665E+02  0.00000000000E+00 0. -1.
          1    1    1    2  502    0 -0.70137404529E+01  0.35652159494E+02  0.65977269202E+02  0.75321106492E+02  0.00000000000E+00 0. -1.
         22    1    3    3    0    0 -0.16964062806E+02 -0.15740715089E+02 -0.10685239113E+02  0.25489681703E+02  0.00000000000E+00 0.  1.
         22    1    3    3    0    0 -0.40085988348E+01 -0.58635478661E+02  0.23832379695E+03  0.24546368451E+03  0.00000000000E+00 0.  1.
</event>
<event>
 7    1  0.6103724E-006  0.4310746E+02  0.7818608E-02  0.1601413E+00
          2   -1    0    0  502    0  0.00000000000E+00  0.00000000000E+00  0.52013130830E+02  0.52013130830E+02  0.00000000000E+00 0. -1.
          1   -1    0    0  501    0 -0.00000000000E+00 -0.00000000000E+00 -0.28088336335E+03  0.28088336335E+03  0.00000000000E+00 0. -1.
         25    2    1    2    0    0 -0.45422582671E+02  0.38108689552E+02 -0.86729280151E+02  0.16328736221E+03  0.12500124554E+03 0.  0.
          2    1    1    2  501    0  0.17683792053E+02 -0.10299472201E+02 -0.12515192568E+03  0.12681403759E+03  0.00000000000E+00 0. -1.
          1    1    1    2  502    0  0.27738790619E+02 -0.27809217352E+02 -0.16989026686E+02  0.42795094374E+02  0.00000000000E+00 0. -1.
         22    1    3    3    0    0  0.14717211779E+02  0.56869087860E+02 -0.80959574724E+02  0.10002570778E+03  0.00000000000E+00 0.  1.
         22    1    3    3    0    0 -0.60139794450E+02 -0.18760398308E+02 -0.57697054272E+01  0.63261654436E+02  0.00000000000E+00 0.  1.
</event>
<event>
 7    1  0.6103724E-006  0.9180304E+02  0.7818608E-02  0.1325354E+00
          2   -1    0    0  502    0  0.00000000000E+00  0.00000000000E+00  0.18618530125E+03  0.18618530125E+03  0.00000000000E+00 0. -1.
          1   -1    0    0  501    0 -0.00000000000E+00 -0.00000000000E+00 -0.55367502054E+03  0.55367502054E+03  0.00000000000E+00 0. -1.
         25    2    1    2    0    0  0.31365221621E+02  0.84436533464E+00  0.88733997381E+02  0.15644647025E+03  0.12496913892E+03 0.  0.
          2    1    1    2  501    0 -0.72949311041E+02 -0.59657707925E+02 -0.49342602533E+03  0.50234439040E+03  0.00000000000E+00 0. -1.
          1    1    1    2  502    0  0.41584089419E+02  0.58813342591E+02  0.37202308657E+02  0.81069461136E+02  0.00000000000E+00 0. -1.
         22    1    3    3    0    0  0.21117154282E+02  0.32878783763E+02  0.10994520643E+03  0.11668289096E+03  0.00000000000E+00 0.  1.
         22    1    3    3    0    0  0.10248067340E+02 -0.32034418428E+02 -0.21211209049E+02  0.39763579285E+02  0.00000000000E+00 0.  1.
</event>
<event>
 7    1  0.6103724E-006  0.4200212E+02  0.7818608E-02  0.1606307E+00
          2   -1    0    0  502    0  0.00000000000E+00  0.00000000000E+00  0.28125287996E+03  0.28125287996E+03  0.00000000000E+00 0. -1.
          1   -1    0    0  501    0 -0.00000000000E+00 -0.00000000000E+00 -0.40472442039E+03  0.40472442039E+03  0.00000000000E+00 0. -1.
         25    2    1    2    0    0  0.24520107872E+02  0.55466645081E+02 -0.14192784913E+03  0.19861618880E+03  0.12500836647E+03 0.  0.
          2    1    1    2  501    0 -0.20112992772E+02 -0.35551812989E+02 -0.23225598874E+03  0.23582049994E+03  0.00000000000E+00 0. -1.
          1    1    1    2  502    0 -0.44071150996E+01 -0.19914832091E+02  0.25071229744E+03  0.25154061161E+03  0.00000000000E+00 0. -1.
         22    1    3    3    0    0  0.26277940336E+02  0.92635019428E+02 -0.75047696670E+02  0.12208166835E+03  0.00000000000E+00 0. -1.
         22    1    3    3    0    0 -0.17578324641E+01 -0.37168374347E+02 -0.66880152458E+02  0.76534520443E+02  0.00000000000E+00 0. -1.
</event>
<event>
 7    1  0.6103724E-006  0.5809879E+02  0.7818608E-02  0.1453723E+00
          2   -1    0    0  502    0  0.00000000000E+00  0.00000000000E+00  0.73660841759E+03  0.73660841759E+03  0.00000000000E+00 0. -1.
          1   -1    0    0  501    0 -0.00000000000E+00 -0.00000000000E+00 -0.76752212271E+03  0.76752212271E+03  0.00000000000E+00 0. -1.
         25    2    1    2    0    0  0.28579324304E+02 -0.84562617075E+02  0.25061003397E+03  0.29393557408E+03  0.12500047438E+03 0.  0.
          2    1    1    2  501    0 -0.36669484404E+02  0.44928141357E+02 -0.74384757033E+03  0.74610481627E+03  0.00000000000E+00 0. -1.
          1    1    1    2  502    0  0.80901601008E+01  0.39634475718E+02  0.46232383123E+03  0.46409014995E+03  0.00000000000E+00 0. -1.
         22    1    3    3    0    0  0.52192255772E+02 -0.13138025664E+02  0.18956322840E+03  0.19705546641E+03  0.00000000000E+00 0. -1.
         22    1    3    3    0    0 -0.23612931468E+02 -0.71424591411E+02  0.61046805571E+02  0.96880107665E+02  0.00000000000E+00 0. -1.
</event>
<event>
 7    1  0.6103724E-006  0.6026845E+02  0.7818608E-02  0.1503935E+00
          2   -1    0    0  502    0  0.00000000000E+00  0.00000000000E+00  0.86790172150E+02  0.86790172150E+02  0.00000000000E+00 0. -1.
          1   -1    0    0  501    0 -0.00000000000E+00 -0.00000000000E+00 -0.18306090244E+03  0.18306090244E+03  0.00000000000E+00 0. -1.
         25    2    1    2    0    0  0.47444536931E+02 -0.18044127507E+02 -0.86762223490E+02  0.16040293269E+03  0.12499937107E+03 0.  0.
          2    1    1    2  501    0 -0.67209433313E+02 -0.83540991588E+00 -0.31629963738E+02  0.74284994730E+02  0.00000000000E+00 0. -1.
          1    1    1    2  502    0  0.19764896382E+02  0.18879537422E+02  0.22121456937E+02  0.35163147175E+02  0.00000000000E+00 0. -1.
         22    1    3    3    0    0  0.41706942038E+02 -0.23439245458E+02  0.21075123981E+02  0.52278371174E+02  0.00000000000E+00 0. -1.
         22    1    3    3    0    0  0.57375948925E+01  0.53951179511E+01 -0.10783734747E+03  0.10812456151E+03  0.00000000000E+00 0. -1.
</event>
<event>
 7    1  0.6103724E-006  0.2325891E+03  0.7818608E-02  0.1263927E+00
          2   -1    0    0  502    0  0.00000000000E+00  0.00000000000E+00  0.68637499540E+03  0.68637499540E+03  0.00000000000E+00 0. -1.
          1   -1    0    0  501    0 -0.00000000000E+00 -0.00000000000E+00 -0.13018268353E+04  0.13018268353E+04  0.00000000000E+00 0. -1.
         25    2    1    2    0    0  0.21218282788E+03 -0.15279117121E+03  0.32807754837E+03  0.43775170191E+03  0.12499992133E+03 0.  0.
          2    1    1    2  501    0 -0.46822521546E+02  0.18489053334E+02 -0.12090149826E+04  0.12100625694E+04  0.00000000000E+00 0. -1.
          1    1    1    2  502    0 -0.16536030634E+03  0.13430211788E+03  0.26548559436E+03  0.34038755940E+03  0.00000000000E+00 0. -1.
         22    1    3    3    0    0  0.19611152637E+03 -0.95284046304E+02  0.19756672702E+03  0.29423016820E+03  0.00000000000E+00 0.  1.
         22    1    3    3    0    0  0.16071301509E+02 -0.57507124911E+02  0.13051082135E+03  0.14352153371E+03  0.00000000000E+00 0.  1.
</event>
<event>
 7    1  0.6103724E-006  0.3570806E+02  0.7818608E-02  0.1575073E+00
          2   -1    0    0  502    0  0.00000000000E+00  0.00000000000E+00  0.55430807166E+03  0.55430807166E+03  0.00000000000E+00 0. -1.
          1   -1    0    0  501    0 -0.00000000000E+00 -0.00000000000E+00 -0.83343338236E+03  0.83343338236E+03  0.00000000000E+00 0. -1.
         25    2    1    2    0    0 -0.55266284427E+02 -0.32506539313E+02  0.21691626020E+03  0.25843549260E+03  0.12500081043E+03 0.  0.
          2    1    1    2  501    0  0.32667991059E+02  0.14303169203E+02 -0.81161654435E+03  0.81239965125E+03  0.00000000000E+00 0. -1.
          1    1    1    2  502    0  0.22598293368E+02  0.18203370110E+02  0.31557497346E+03  0.31690631016E+03  0.00000000000E+00 0. -1.
         22    1    3    3    0    0 -0.22413429881E+02 -0.60884113718E+02  0.39882560862E+02  0.76156784354E+02  0.00000000000E+00 0. -1.
         22    1    3    3    0    0 -0.32852854546E+02  0.28377574405E+02  0.17703369934E+03  0.18227870825E+03  0.00000000000E+00 0. -1.
</event>
<event>
 7    1  0.6103724E-006  0.1864110E+03  0.7818608E-02  0.1182765E+00
          2   -1    0    0  502    0  0.00000000000E+00  0.00000000000E+00  0.81640931823E+03  0.81640931823E+03  0.00000000000E+00 0. -1.
          1   -1    0    0  501    0 -0.00000000000E+00 -0.00000000000E+00 -0.65923630385E+03  0.65923630385E+03  0.00000000000E+00 0. -1.
         25    2    1    2    0    0  0.36734294354E+02 -0.50014176124E+02 -0.86806095178E+02  0.16434622668E+03  0.12499423135E+03 0.  0.
          2    1    1    2  501    0  0.14026678608E+03 -0.42974774347E+02 -0.51030092785E+03  0.53096952782E+03  0.00000000000E+00 0. -1.
          1    1    1    2  502    0 -0.17700108044E+03  0.92988950471E+02  0.75428003741E+03  0.78032986757E+03  0.00000000000E+00 0. -1.
         22    1    3    3    0    0  0.47229760499E+02 -0.55809540307E+02  0.35501125434E+01  0.73198076240E+02  0.00000000000E+00 0.  1.
         22    1    3    3    0    0 -0.10495466145E+02  0.57953641835E+01 -0.90356207721E+02  0.91148150444E+02  0.00000000000E+00 0.  1.
</event>
<event>
 7    1  0.6103724E-006  0.5929734E+02  0.7818608E-02  0.1403635E+00
          2   -1    0    0  502    0  0.00000000000E+00  0.00000000000E+00  0.39739907073E+02  0.39739907073E+02  0.00000000000E+00 0. -1.
          1   -1    0    0  501    0 -0.00000000000E+00 -0.00000000000E+00 -0.23618402249E+04  0.23618402249E+04  0.00000000000E+00 0. -1.
         25    2    1    2    0    0  0.50115640595E+02  0.36500077598E+02 -0.37592120304E+03  0.40096725986E+03  0.12495663042E+03 0.  0.
          2    1    1    2  501    0 -0.54507316201E+02  0.23347944593E+02 -0.19393051742E+04  0.19402115176E+04  0.00000000000E+00 0. -1.
          1    1    1    2  502    0  0.43916756064E+01 -0.59848022191E+02 -0.68739405580E+01  0.60401354568E+02  0.00000000000E+00 0. -1.
         22    1    3    3    0    0  0.42159935849E+02  0.21155887894E+02 -0.38023771551E+03  0.38315238754E+03  0.00000000000E+00 0.  1.
         22    1    3    3    0    0  0.79557047459E+01  0.15344189704E+02  0.43165124696E+01  0.17814872315E+02  0.00000000000E+00 0.  1.
</event>
<event>
 7    1  0.6103724E-006  0.1377305E+03  0.7818608E-02  0.1315455E+00
          2   -1    0    0  502    0  0.00000000000E+00  0.00000000000E+00  0.18344497369E+04  0.18344497369E+04  0.00000000000E+00 0. -1.
          1   -1    0    0  501    0 -0.00000000000E+00 -0.00000000000E+00 -0.21299196161E+04  0.21299196161E+04  0.00000000000E+00 0. -1.
         25    2    1    2    0    0 -0.16449061100E+03  0.63106784495E+02 -0.38234466534E+03  0.43915000090E+03  0.12500261126E+03 0.  0.
          2    1    1    2  501    0  0.11297540228E+03 -0.72948949835E+02 -0.17161604857E+04  0.17214214486E+04  0.00000000000E+00 0. -1.
          1    1    1    2  502    0  0.51515208717E+02  0.98421653394E+01  0.18030352719E+04  0.18037979035E+04  0.00000000000E+00 0. -1.
         22    1    3    3    0    0 -0.56202473138E+02  0.66139524269E+02 -0.26770378737E+03  0.28142223158E+03  0.00000000000E+00 0.  1.
         22    1    3    3    0    0 -0.10828813786E+03 -0.30327397739E+01 -0.11464087797E+03  0.15772776931E+03  0.00000000000E+00 0.  1.
</event>
<event>
 7    1  0.6103724E-006  0.7101529E+02  0.7818608E-02  0.1412814E+00
          2   -1    0    0  502    0  0.00000000000E+00  0.00000000000E+00  0.20503630834E+03  0.20503630834E+03  0.00000000000E+00 0. -1.
          1   -1    0    0  501    0 -0.00000000000E+00 -0.00000000000E+00 -0.24085080089E+03  0.24085080089E+03  0.00000000000E+00 0. -1.
         25    2    1    2    0    0 -0.96897504133E+02  0.58979562848E+01  0.48885583598E+01  0.15834379726E+03  0.12499979173E+03 0.  0.
          2    1    1    2  501    0  0.36402886244E+02  0.26563228684E+02 -0.15102439003E+03  0.15760438328E+03  0.00000000000E+00 0. -1.
          1    1    1    2  502    0  0.60494617889E+02 -0.32461184969E+02  0.11032133912E+03  0.12993892869E+03  0.00000000000E+00 0. -1.
         22    1    3    3    0    0 -0.52692236050E+02 -0.49129713562E+02 -0.31851510469E+02  0.78770040077E+02  0.00000000000E+00 0. -1.
         22    1    3    3    0    0 -0.44205268083E+02  0.55027669847E+02  0.36740068829E+02  0.79573757186E+02  0.00000000000E+00 0. -1.
</event>
<event>
 7    1  0.6103724E-006  0.5335128E+02  0.7818608E-02  0.1431797E+00
          2   -1    0    0  502    0  0.00000000000E+00  0.00000000000E+00  0.20491035909E+04  0.20491035909E+04  0.00000000000E+00 0. -1.
          1   -1    0    0  501    0 -0.00000000000E+00 -0.00000000000E+00 -0.18752147129E+03  0.18752147129E+03  0.00000000000E+00 0. -1.
         25    2    1    2    0    0 -0.10711689075E+02 -0.37259907829E+02  0.59749127878E+03  0.61165836544E+03  0.12500834688E+03 0.  0.
          2    1    1    2  501    0 -0.43415666367E+02  0.31007087534E+02 -0.17596772921E+03  0.18387768023E+03  0.00000000000E+00 0. -1.
          1    1    1    2  502    0  0.54127355441E+02  0.62528202951E+01  0.14400585700E+04  0.14410890165E+04  0.00000000000E+00 0. -1.
         22    1    3    3    0    0  0.26731306477E+02 -0.38234853731E+02  0.78495093288E+02  0.91312356535E+02  0.00000000000E+00 0. -1.
         22    1    3    3    0    0 -0.37442995552E+02  0.97494590159E+00  0.51899618549E+03  0.52034600891E+03  0.00000000000E+00 0. -1.
</event>
<event>
 7    1  0.6103724E-006  0.6798994E+02  0.7818608E-02  0.1459067E+00
          2   -1    0    0  502    0  0.00000000000E+00  0.00000000000E+00  0.17643716028E+04  0.17643716028E+04  0.00000000000E+00 0. -1.
          1   -1    0    0  501    0 -0.00000000000E+00 -0.00000000000E+00 -0.19150264025E+02  0.19150264025E+02  0.00000000000E+00 0. -1.
         25    2    1    2    0    0 -0.57050031318E+02  0.69499573339E+02  0.39702895646E+03  0.42584276888E+03  0.12500069907E+03 0.  0.
          2    1    1    2  501    0  0.32435250987E+02 -0.72897547721E+01  0.67520498834E+02  0.75260904818E+02  0.00000000000E+00 0. -1.
          1    1    1    2  502    0  0.24614780331E+02 -0.62209818567E+02  0.12806718835E+04  0.12824181932E+04  0.00000000000E+00 0. -1.
         22    1    3    3    0    0 -0.35511375072E+02 -0.26680737039E+02  0.59710492815E+02  0.74419503093E+02  0.00000000000E+00 0. -1.
         22    1    3    3    0    0 -0.21538656246E+02  0.96180310378E+02  0.33731846364E+03  0.35142326578E+03  0.00000000000E+00 0. -1.
</event>
<event>
 7    1  0.6103724E-006  0.6781248E+02  0.7818608E-02  0.1495583E+00
          2   -1    0    0  502    0  0.00000000000E+00  0.00000000000E+00  0.44838289920E+03  0.44838289920E+03  0.00000000000E+00 0. -1.
          1   -1    0    0  501    0 -0.00000000000E+00 -0.00000000000E+00 -0.18850864132E+03  0.18850864132E+03  0.00000000000E+00 0. -1.
         25    2    1    2    0    0 -0.38645209398E+02  0.46947045572E+02  0.39670830336E+02  0.14455547673E+03  0.12500013511E+03 0.  0.
          2    1    1    2  501    0  0.20926895721E+02 -0.65600977247E+02 -0.12684796711E+03  0.14433235930E+03  0.00000000000E+00 0. -1.
          1    1    1    2  502    0  0.17718313678E+02  0.18653931676E+02  0.34705139465E+03  0.34800370449E+03  0.00000000000E+00 0. -1.
         22    1    3    3    0    0 -0.13371055259E+01  0.16519611388E+02 -0.44557095522E+02  0.47539669466E+02  0.00000000000E+00 0. -1.
         22    1    3    3    0    0 -0.37308103873E+02  0.30427434183E+02  0.84227925858E+02  0.97015807268E+02  0.00000000000E+00 0. -1.
</event>
<event>
 7    1  0.6103724E-006  0.8140904E+02  0.7818608E-02  0.1484804E+00
          2   -1    0    0  502    0  0.00000000000E+00  0.00000000000E+00  0.38462135061E+03  0.38462135061E+03  0.00000000000E+00 0. -1.
          1   -1    0    0  501    0 -0.00000000000E+00 -0.00000000000E+00 -0.17244979055E+04  0.17244979055E+04  0.00000000000E+00 0. -1.
         25    2    1    2    0    0  0.78497144018E+02  0.36385097874E+02  0.14143322887E+03  0.20763970322E+03  0.12500084464E+03 0.  0.
          2    1    1    2  501    0 -0.16835476042E+02  0.15818974932E+02 -0.16835448864E+04  0.16837033759E+04  0.00000000000E+00 0. -1.
          1    1    1    2  502    0 -0.61661667977E+02 -0.52204072806E+02  0.20223510270E+03  0.21777617702E+03  0.00000000000E+00 0. -1.
         22    1    3    3    0    0  0.55836767522E+02  0.47021992352E+02  0.98073223751E+01  0.73654571781E+02  0.00000000000E+00 0. -1.
         22    1    3    3    0    0  0.22660376496E+02 -0.10636894479E+02  0.13162590650E+03  0.13398513144E+03  0.00000000000E+00 0. -1.
</event>
<event>
 7    1  0.6103724E-006  0.1178516E+03  0.7818608E-02  0.1301674E+00
          2   -1    0    0  502    0  0.00000000000E+00  0.00000000000E+00  0.43554942355E+04  0.43554942355E+04  0.00000000000E+00 0. -1.
          1   -1    0    0  501    0 -0.00000000000E+00 -0.00000000000E+00 -0.19391758503E+03  0.19391758503E+03  0.00000000000E+00 0. -1.
         25    2    1    2    0    0 -0.47019811364E+02  0.12041280649E+03  0.23203459995E+03  0.29355643709E+03  0.12500087822E+03 0.  0.
          2    1    1    2  501    0 -0.47959517739E+02 -0.50270419536E+02 -0.15486803951E+03  0.16973903524E+03  0.00000000000E+00 0. -1.
          1    1    1    2  502    0  0.94979329103E+02 -0.70142386952E+02  0.40844100900E+04  0.40861163482E+04  0.00000000000E+00 0. -1.
         22    1    3    3    0    0  0.15758207376E+02  0.11477472409E+03  0.13560582861E+03  0.17835498071E+03  0.00000000000E+00 0. -1.
         22    1    3    3    0    0 -0.62778018741E+02  0.56380823949E+01  0.96428771341E+02  0.11520145638E+03  0.00000000000E+00 0. -1.
</event>
<event>
 7    1  0.6103724E-006  0.1090331E+03  0.7818608E-02  0.1376516E+00
          2   -1    0    0  502    0  0.00000000000E+00  0.00000000000E+00  0.99733998932E+03  0.99733998932E+03  0.00000000000E+00 0. -1.
          1   -1    0    0  501    0 -0.00000000000E+00 -0.00000000000E+00 -0.50977586580E+03  0.50977586580E+03  0.00000000000E+00 0. -1.
         25    2    1    2    0    0  0.13146627010E+01 -0.13846871800E+03 -0.23773330056E+02  0.18805622149E+03  0.12499862806E+03 0.  0.
          2    1    1    2  501    0  0.19081266388E+02  0.10497576087E+03 -0.39638338681E+03  0.41049213687E+03  0.00000000000E+00 0. -1.
          1    1    1    2  502    0 -0.20395929089E+02  0.33492957127E+02  0.90772084038E+03  0.90856749676E+03  0.00000000000E+00 0. -1.
         22    1    3    3    0    0 -0.57185089117E+02 -0.40818227449E+02  0.56414787300E+01  0.70484667777E+02  0.00000000000E+00 0. -1.
         22    1    3    3    0    0  0.58499751818E+02 -0.97650490546E+02 -0.29414808786E+02  0.11757155371E+03  0.00000000000E+00 0. -1.
</event>
<event>
 7    1  0.6103724E-006  0.9360457E+02  0.7818608E-02  0.1444644E+00
          2   -1    0    0  502    0  0.00000000000E+00  0.00000000000E+00  0.12665241422E+04  0.12665241422E+04  0.00000000000E+00 0. -1.
          1   -1    0    0  501    0 -0.00000000000E+00 -0.00000000000E+00 -0.21288376733E+02  0.21288376733E+02  0.00000000000E+00 0. -1.
         25    2    1    2    0    0  0.75412464241E+02  0.12935823650E+01  0.10161262820E+04  0.10265584796E+04  0.12498391041E+03 0.  0.
          2    1    1    2  501    0 -0.95595364874E+02 -0.18996427792E+02  0.19348175006E+03  0.21664377595E+03  0.00000000000E+00 0. -1.
          1    1    1    2  502    0  0.20182900633E+02  0.17702845427E+02  0.35627733388E+02  0.44610263399E+02  0.00000000000E+00 0. -1.
         22    1    3    3    0    0  0.97565736859E+01  0.10715046223E+02  0.85998768116E+01  0.16851137256E+02  0.00000000000E+00 0. -1.
         22    1    3    3    0    0  0.65655890555E+02 -0.94214638575E+01  0.10075264052E+04  0.10097073423E+04  0.00000000000E+00 0. -1.
</event>
<event>
 7    1  0.6103724E-006  0.8947962E+02  0.7818608E-02  0.1325454E+00
          2   -1    0    0  502    0  0.00000000000E+00  0.00000000000E+00  0.64883947762E+02  0.64883947762E+02  0.00000000000E+00 0. -1.
          1   -1    0    0  501    0 -0.00000000000E+00 -0.00000000000E+00 -0.11257781325E+04  0.11257781325E+04  0.00000000000E+00 0. -1.
         25    2    1    2    0    0  0.78032205374E+02  0.44872380536E+02 -0.15198640163E+03  0.21639828007E+03  0.12500317485E+03 0.  0.
          2    1    1    2  501    0  0.15946374782E+02 -0.72091444924E+02 -0.86306179399E+03  0.86621424806E+03  0.00000000000E+00 0. -1.
          1    1    1    2  502    0 -0.93978580156E+02  0.27219064388E+02 -0.45845989081E+02  0.10804955210E+03  0.00000000000E+00 0. -1.
         22    1    3    3    0    0 -0.50227133218E+01  0.66369669626E+01  0.19975150098E+02  0.21639861391E+02  0.00000000000E+00 0. -1.
         22    1    3    3    0    0  0.83054918696E+02  0.38235413574E+02 -0.17196155173E+03  0.19475841867E+03  0.00000000000E+00 0. -1.
</event>
<event>
 7    1  0.6103724E-006  0.8698601E+02  0.7818608E-02  0.1436814E+00
          2   -1    0    0  502    0  0.00000000000E+00  0.00000000000E+00  0.21868164504E+02  0.21868164504E+02  0.00000000000E+00 0. -1.
          1   -1    0    0  501    0 -0.00000000000E+00 -0.00000000000E+00 -0.14226239275E+04  0.14226239275E+04  0.00000000000E+00 0. -1.
         25    2    1    2    0    0 -0.67435702130E+02 -0.13661730221E+02 -0.40716163545E+03  0.43143977468E+03  0.12500185998E+03 0.  0.
          2    1    1    2  501    0 -0.30352868176E+02  0.40977061014E+01 -0.74666466615E+03  0.74729258760E+03  0.00000000000E+00 0. -1.
          1    1    1    2  502    0  0.97788570306E+02  0.95640241198E+01 -0.24692946143E+03  0.26575972976E+03  0.00000000000E+00 0. -1.
         22    1    3    3    0    0 -0.17287718227E+02  0.48817792156E+02 -0.85589806407E+02  0.10003827764E+03  0.00000000000E+00 0. -1.
         22    1    3    3    0    0 -0.50147983903E+02 -0.62479522377E+02 -0.32157182904E+03  0.33140149704E+03  0.00000000000E+00 0. -1.
</event>
<event>
 7    1  0.6103724E-006  0.5686970E+02  0.7818608E-02  0.1486589E+00
          2   -1    0    0  502    0  0.00000000000E+00  0.00000000000E+00  0.35221958551E+02  0.35221958551E+02  0.00000000000E+00 0. -1.
          1   -1    0    0  501    0 -0.00000000000E+00 -0.00000000000E+00 -0.25149798416E+04  0.25149798416E+04  0.00000000000E+00 0. -1.
         25    2    1    2    0    0 -0.23532256247E+02 -0.80897489433E+02 -0.10408983092E+04  0.10517571634E+04  0.12500267905E+03 0.  0.
          2    1    1    2  501    0 -0.47726183206E+01  0.32308037756E+02 -0.14417671178E+04  0.14421369593E+04  0.00000000000E+00 0. -1.
          1    1    1    2  502    0  0.28304874567E+02  0.48589451677E+02  0.29075439431E+01  0.56307677543E+02  0.00000000000E+00 0. -1.
         22    1    3    3    0    0  0.37932254329E+02 -0.35192862923E+02 -0.17531482569E+03  0.18279136092E+03  0.00000000000E+00 0. -1.
         22    1    3    3    0    0 -0.61464510575E+02 -0.45704626509E+02 -0.86558348348E+03  0.86896580244E+03  0.00000000000E+00 0. -1.
</event>
<event>
 7    1  0.6103724E-006  0.2438667E+02  0.7818608E-02  0.1671599E+00
          2   -1    0    0  502    0  0.00000000000E+00  0.00000000000E+00  0.12962212437E+04  0.12962212437E+04  0.00000000000E+00 0. -1.
          1   -1    0    0  501    0 -0.00000000000E+00 -0.00000000000E+00 -0.16352359332E+03  0.16352359332E+03  0.00000000000E+00 0. -1.
         25    2    1    2    0    0 -0.22075407031E+02  0.86801469901E+01 -0.12071474569E+02  0.12776651103E+03  0.12496356387E+03 0.  0.
          2    1    1    2  501    0  0.33341001174E+01 -0.24283769978E+02 -0.91877653180E+02  0.95091118732E+02  0.00000000000E+00 0. -1.
          1    1    1    2  502    0  0.18741306913E+02  0.15603622988E+02  0.12366467782E+04  0.12368872073E+04  0.00000000000E+00 0. -1.
         22    1    3    3    0    0 -0.50534841578E+02  0.14144323813E+02  0.41470446609E+02  0.66885200541E+02  0.00000000000E+00 0. -1.
         22    1    3    3    0    0  0.28459434547E+02 -0.54641768234E+01 -0.53541921178E+02  0.60881310486E+02  0.00000000000E+00 0. -1.
</event>
<event>
 7    1  0.6103724E-006  0.6414864E+02  0.7818608E-02  0.1384241E+00
          2   -1    0    0  502    0  0.00000000000E+00  0.00000000000E+00  0.16103873185E+04  0.16103873185E+04  0.00000000000E+00 0. -1.
          1   -1    0    0  501    0 -0.00000000000E+00 -0.00000000000E+00 -0.69232096035E+02  0.69232096035E+02  0.00000000000E+00 0. -1.
         25    2    1    2    0    0  0.12128111988E+02  0.30735825390E+02  0.36283207017E+03  0.38517647279E+03  0.12498808736E+03 0.  0.
          2    1    1    2  501    0  0.51313203633E+02 -0.40235701318E+02 -0.38636313877E+02  0.75793939584E+02  0.00000000000E+00 0. -1.
          1    1    1    2  502    0 -0.63441315621E+02  0.94998759280E+01  0.12169594661E+04  0.12186490021E+04  0.00000000000E+00 0. -1.
         22    1    3    3    0    0 -0.22264013391E+02 -0.42674910431E+02  0.14181240343E+03  0.14975844563E+03  0.00000000000E+00 0. -1.
         22    1    3    3    0    0  0.34392125379E+02  0.73410735820E+02  0.22101966674E+03  0.23541802715E+03  0.00000000000E+00 0. -1.
</event>
<event>
 7    1  0.6103724E-006  0.1734799E+03  0.7818608E-02  0.1357734E+00
          2   -1    0    0  502    0  0.00000000000E+00  0.00000000000E+00  0.40527378904E+03  0.40527378904E+03  0.00000000000E+00 0. -1.
          1   -1    0    0  501    0 -0.00000000000E+00 -0.00000000000E+00 -0.51076009563E+03  0.51076009563E+03  0.00000000000E+00 0. -1.
         25    2    1    2    0    0 -0.13010074979E+03 -0.99450856384E+02  0.80401372725E+02  0.22114780689E+03  0.12500117529E+03 0.  0.
          2    1    1    2  501    0  0.12052181435E+03  0.12662373107E+03 -0.42212925043E+03  0.45689405892E+03  0.00000000000E+00 0. -1.
          1    1    1    2  502    0  0.95789354391E+01 -0.27172874691E+02  0.23624157111E+03  0.23799201887E+03  0.00000000000E+00 0. -1.
         22    1    3    3    0    0 -0.47843826341E+02 -0.38899299636E+02  0.99673573686E+02  0.11720498506E+03  0.00000000000E+00 0. -1.
         22    1    3    3    0    0 -0.82256923449E+02 -0.60551556747E+02 -0.19272200961E+02  0.10394282183E+03  0.00000000000E+00 0. -1.
</event>
<event>
 7    1  0.6103724E-006  0.1158082E+03  0.7818608E-02  0.1325885E+00
          2   -1    0    0  502    0  0.00000000000E+00  0.00000000000E+00  0.35648686072E+04  0.35648686072E+04  0.00000000000E+00 0. -1.
          1   -1    0    0  501    0 -0.00000000000E+00 -0.00000000000E+00 -0.30665301496E+04  0.30665301496E+04  0.00000000000E+00 0. -1.
         25    2    1    2    0    0 -0.92645495867E+02 -0.89649499344E+02  0.89734387297E+03  0.91513522304E+03  0.12500491777E+03 0.  0.
          2    1    1    2  501    0  0.11020135793E+03  0.35597889267E+02 -0.30562339700E+04  0.30584273129E+04  0.00000000000E+00 0. -1.
          1    1    1    2  502    0 -0.17555862065E+02  0.54051610077E+02  0.26572285547E+04  0.26578362208E+04  0.00000000000E+00 0. -1.
         22    1    3    3    0    0 -0.10935681105E+03 -0.65032139612E+02  0.84817422673E+03  0.85766404273E+03  0.00000000000E+00 0.  1.
         22    1    3    3    0    0  0.16711315182E+02 -0.24617359732E+02  0.49169646234E+02  0.57471180308E+02  0.00000000000E+00 0.  1.
</event>
<event>
 7    1  0.6103724E-006  0.1350169E+03  0.7818608E-02  0.1259614E+00
          2   -1    0    0  502    0  0.00000000000E+00  0.00000000000E+00  0.90416552241E+03  0.90416552241E+03  0.00000000000E+00 0. -1.
          1   -1    0    0  501    0 -0.00000000000E+00 -0.00000000000E+00 -0.26329575368E+03  0.26329575368E+03  0.00000000000E+00 0. -1.
         25    2    1    2    0    0  0.32520202694E+02 -0.13956647631E+03  0.71734614170E+02  0.20324419696E+03  0.12500393527E+03 0.  0.
          2    1    1    2  501    0 -0.10662150063E+03  0.87675412977E+02 -0.17032779579E+03  0.21924114681E+03  0.00000000000E+00 0. -1.
          1    1    1    2  502    0  0.74101297932E+02  0.51891063336E+02  0.73946295035E+03  0.74497593233E+03  0.00000000000E+00 0. -1.
         22    1    3    3    0    0  0.79562876474E+02 -0.83337222615E+02  0.30742186468E+02  0.11924942773E+03  0.00000000000E+00 0. -1.
         22    1    3    3    0    0 -0.47042673780E+02 -0.56229253698E+02  0.40992427702E+02  0.83994769222E+02  0.00000000000E+00 0. -1.
</event>
<event>
 7    1  0.6103724E-006  0.8024352E+02  0.7818608E-02  0.1359303E+00
          2   -1    0    0  502    0  0.00000000000E+00  0.00000000000E+00  0.14088026890E+04  0.14088026890E+04  0.00000000000E+00 0. -1.
          1   -1    0    0  501    0 -0.00000000000E+00 -0.00000000000E+00 -0.41618134447E+03  0.41618134447E+03  0.00000000000E+00 0. -1.
         25    2    1    2    0    0  0.10371549593E+03 -0.70510940734E+02 -0.19341036200E+02  0.17812705612E+03  0.12500590219E+03 0.  0.
          2    1    1    2  501    0 -0.61406321274E+02  0.28250751567E+01 -0.31325926650E+03  0.31923359063E+03  0.00000000000E+00 0. -1.
          1    1    1    2  502    0 -0.42309174659E+02  0.67685865578E+02  0.13252216473E+04  0.13276233867E+04  0.00000000000E+00 0. -1.
         22    1    3    3    0    0  0.13159901857E+03 -0.47314220785E+02 -0.22796274052E+02  0.14169194504E+03  0.00000000000E+00 0. -1.
         22    1    3    3    0    0 -0.27883522641E+02 -0.23196719949E+02  0.34552378525E+01  0.36435111086E+02  0.00000000000E+00 0. -1.
</event>
<event>
 7    1  0.6103724E-006  0.5917286E+02  0.7818608E-02  0.1423239E+00
          2   -1    0    0  502    0  0.00000000000E+00  0.00000000000E+00  0.72005406373E+02  0.72005406373E+02  0.00000000000E+00 0. -1.
          1   -1    0    0  501    0 -0.00000000000E+00 -0.00000000000E+00 -0.28731218066E+04  0.28731218066E+04  0.00000000000E+00 0. -1.
         25    2    1    2    0    0  0.17963429938E+02  0.68452494021E+02 -0.17162552201E+04  0.17222548864E+04  0.12498593747E+03 0.  0.
          2    1    1    2  501    0 -0.51371354391E+02 -0.31380110123E+02 -0.11439480455E+04  0.11455308194E+04  0.00000000000E+00 0. -1.
          1    1    1    2  502    0  0.33407924453E+02 -0.37072383898E+02  0.59086865392E+02  0.77341507135E+02  0.00000000000E+00 0. -1.
         22    1    3    3    0    0  0.10891911870E+02  0.16782980273E+02 -0.35965372407E+02  0.41155925252E+02  0.00000000000E+00 0. -1.
         22    1    3    3    0    0  0.70715180677E+01  0.51669513748E+02 -0.16802898477E+04  0.16810989612E+04  0.00000000000E+00 0. -1.
</event>
<event>
 7    1  0.6103724E-006  0.6569220E+02  0.7818608E-02  0.1490706E+00
          2   -1    0    0  502    0  0.00000000000E+00  0.00000000000E+00  0.13270245669E+04  0.13270245669E+04  0.00000000000E+00 0. -1.
          1   -1    0    0  501    0 -0.00000000000E+00 -0.00000000000E+00 -0.10884274043E+03  0.10884274043E+03  0.00000000000E+00 0. -1.
         25    2    1    2    0    0 -0.34606905125E+01 -0.64073362925E+02  0.12592940724E+03  0.18868843313E+03  0.12501094742E+03 0.  0.
          2    1    1    2  501    0  0.30440906746E+02  0.58900530101E+02 -0.63082854628E+02  0.91517035560E+02  0.00000000000E+00 0. -1.
          1    1    1    2  502    0 -0.26980216233E+02  0.51728328232E+01  0.11553352738E+04  0.11556618386E+04  0.00000000000E+00 0. -1.
         22    1    3    3    0    0  0.32698036823E+01 -0.75645987300E+02  0.14605628795E+03  0.16451579334E+03  0.00000000000E+00 0. -1.
         22    1    3    3    0    0 -0.67304941948E+01  0.11572624376E+02 -0.20126880712E+02  0.24172639786E+02  0.00000000000E+00 0. -1.
</event>
<event>
 7    1  0.6103724E-006  0.1560667E+03  0.7818608E-02  0.1258909E+00
          2   -1    0    0  502    0  0.00000000000E+00  0.00000000000E+00  0.44283638695E+03  0.44283638695E+03  0.00000000000E+00 0. -1.
          1   -1    0    0  501    0 -0.00000000000E+00 -0.00000000000E+00 -0.35040050576E+03  0.35040050576E+03  0.00000000000E+00 0. -1.
         25    2    1    2    0    0  0.28128284707E+02  0.12955502314E+03  0.37105179006E+02  0.18595019791E+03  0.12499990949E+03 0.  0.
          2    1    1    2  501    0  0.78779479454E+02 -0.20919983752E+01 -0.24860670790E+03  0.26079853921E+03  0.00000000000E+00 0. -1.
          1    1    1    2  502    0 -0.10690776416E+03 -0.12746302477E+03  0.30393741008E+03  0.34648815560E+03  0.00000000000E+00 0. -1.
         22    1    3    3    0    0  0.23067420669E+02  0.14271605027E+03 -0.17885948649E+01  0.14457930686E+03  0.00000000000E+00 0. -1.
         22    1    3    3    0    0  0.50608640375E+01 -0.13161027132E+02  0.38893773871E+02  0.41370891045E+02  0.00000000000E+00 0. -1.
</event>
<event>
 7    1  0.6103724E-006  0.5550601E+02  0.7818608E-02  0.1490461E+00
          2   -1    0    0  502    0  0.00000000000E+00  0.00000000000E+00  0.24186576566E+04  0.24186576566E+04  0.00000000000E+00 0. -1.
          1   -1    0    0  501    0 -0.00000000000E+00 -0.00000000000E+00 -0.10128497292E+02  0.10128497292E+02  0.00000000000E+00 0. -1.
         25    2    1    2    0    0 -0.19534178706E+02  0.41543974384E+02  0.12697569058E+04  0.12767204413E+04  0.12499999785E+03 0.  0.
          2    1    1    2  501    0  0.27749764455E+02  0.17048785315E+02  0.39468938599E+02  0.51171355485E+02  0.00000000000E+00 0. -1.
          1    1    1    2  502    0 -0.82155857488E+01 -0.58592759699E+02  0.10993033149E+04  0.11008943571E+04  0.00000000000E+00 0. -1.
         22    1    3    3    0    0  0.39068247359E+02  0.59618754768E+02  0.62393352291E+03  0.62799185097E+03  0.00000000000E+00 0.  1.
         22    1    3    3    0    0 -0.58602426065E+02 -0.18074780383E+02  0.64582338289E+03  0.64872859033E+03  0.00000000000E+00 0.  1.
</event>
<event>
 7    1  0.6103724E-006  0.4083917E+03  0.7818608E-02  0.1177381E+00
          2   -1    0    0  502    0  0.00000000000E+00  0.00000000000E+00  0.29744209771E+04  0.29744209771E+04  0.00000000000E+00 0. -1.
          1   -1    0    0  501    0 -0.00000000000E+00 -0.00000000000E+00 -0.10275921020E+04  0.10275921020E+04  0.00000000000E+00 0. -1.
         25    2    1    2    0    0 -0.38657596271E+03  0.14008461459E+03  0.65492363160E+03  0.78333578105E+03  0.12500123377E+03 0.  0.
          2    1    1    2  501    0 -0.16219236800E+02 -0.69265866806E+02 -0.94349517375E+03  0.94617332812E+03  0.00000000000E+00 0. -1.
          1    1    1    2  502    0  0.40279519951E+03 -0.70818747784E+02  0.22354004172E+04  0.22725039699E+04  0.00000000000E+00 0. -1.
         22    1    3    3    0    0 -0.18217672806E+03  0.49311920800E+02  0.41180872147E+03  0.45299718416E+03  0.00000000000E+00 0. -1.
         22    1    3    3    0    0 -0.20439923465E+03  0.90772693790E+02  0.24311491013E+03  0.33033859688E+03  0.00000000000E+00 0. -1.
</event>
<event>
 7    1  0.6103724E-006  0.7814263E+02  0.7818608E-02  0.1397963E+00
          2   -1    0    0  502    0  0.00000000000E+00  0.00000000000E+00  0.78921805144E+03  0.78921805144E+03  0.00000000000E+00 0. -1.
          1   -1    0    0  501    0 -0.00000000000E+00 -0.00000000000E+00 -0.35909152273E+03  0.35909152273E+03  0.00000000000E+00 0. -1.
         25    2    1    2    0    0 -0.12024371820E+03 -0.87755117777E+01  0.20130487769E+03  0.26586158609E+03  0.12499267099E+03 0.  0.
          2    1    1    2  501    0  0.75183766735E+02  0.18134897763E+02 -0.32126317043E+03  0.33044136843E+03  0.00000000000E+00 0. -1.
          1    1    1    2  502    0  0.45059951468E+02 -0.93593859853E+01  0.55008482145E+03  0.55200661964E+03  0.00000000000E+00 0. -1.
         22    1    3    3    0    0 -0.13427605009E+03 -0.13915105789E+02  0.11226548385E+03  0.17557683976E+03  0.00000000000E+00 0. -1.
         22    1    3    3    0    0  0.14032331882E+02  0.51395940118E+01  0.89039393841E+02  0.90284746332E+02  0.00000000000E+00 0. -1.
</event>
<event>
 7    1  0.6784989E-006  0.1021286E+03  0.7818608E-02  0.1354132E+00
          2   -1    0    0  502    0  0.00000000000E+00  0.00000000000E+00  0.86901608141E+03  0.86901608141E+03  0.00000000000E+00 0. -1.
          1   -1    0    0  501    0 -0.00000000000E+00 -0.00000000000E+00 -0.16741178803E+04  0.16741178803E+04  0.00000000000E+00 0. -1.
         25    2    1    2    0    0  0.77183558000E+02 -0.78054287594E+02 -0.92432917305E+03  0.93917980843E+03  0.12499807584E+03 0.  0.
          2    1    1    2  501    0 -0.46577258133E+02 -0.19395690680E+02 -0.73847225480E+03  0.74019382927E+03  0.00000000000E+00 0. -1.
          1    1    1    2  502    0 -0.30606299866E+02  0.97449978273E+02  0.85769962894E+03  0.86376032402E+03  0.00000000000E+00 0. -1.
         22    1    3    3    0    0 -0.34461570861E+02 -0.21367497594E+02 -0.26197305715E+03  0.26509253572E+03  0.00000000000E+00 0. -1.
         22    1    3    3    0    0  0.11164512886E+03 -0.56686790000E+02 -0.66235611590E+03  0.67408727271E+03  0.00000000000E+00 0. -1.
</event>
<event>
 7    1  0.6103724E-006  0.1143867E+03  0.7818608E-02  0.1304812E+00
          2   -1    0    0  502    0  0.00000000000E+00  0.00000000000E+00  0.10134955756E+04  0.10134955756E+04  0.00000000000E+00 0. -1.
          1   -1    0    0  501    0 -0.00000000000E+00 -0.00000000000E+00 -0.27915578791E+04  0.27915578791E+04  0.00000000000E+00 0. -1.
         25    2    1    2    0    0 -0.13553946716E+03 -0.57356921502E+02  0.19171923688E+03  0.27210712943E+03  0.12500104197E+03 0.  0.
          2    1    1    2  501    0  0.63265873295E+02 -0.28893805031E+02 -0.27468711263E+04  0.27477515184E+04  0.00000000000E+00 0. -1.
          1    1    1    2  502    0  0.72273593867E+02  0.86250726533E+02  0.77708958593E+03  0.78519480689E+03  0.00000000000E+00 0. -1.
         22    1    3    3    0    0 -0.11639475828E+03  0.26625014955E+01  0.16882496226E+03  0.20507729409E+03  0.00000000000E+00 0. -1.
         22    1    3    3    0    0 -0.19144708883E+02 -0.60019422997E+02  0.22894274616E+02  0.67029835337E+02  0.00000000000E+00 0. -1.
</event>
<event>
 7    1  0.6103724E-006  0.8298925E+02  0.7818608E-02  0.1406335E+00
          2   -1    0    0  502    0  0.00000000000E+00  0.00000000000E+00  0.28011751907E+04  0.28011751907E+04  0.00000000000E+00 0. -1.
          1   -1    0    0  501    0 -0.00000000000E+00 -0.00000000000E+00 -0.12660627181E+03  0.12660627181E+03  0.00000000000E+00 0. -1.
         25    2    1    2    0    0 -0.50406278446E+02  0.44761459107E+02  0.93584361299E+03  0.94655847649E+03  0.12500120120E+03 0.  0.
          2    1    1    2  501    0  0.18211778070E+02  0.36244915645E+02 -0.11680423163E+03  0.12364704322E+03  0.00000000000E+00 0. -1.
          1    1    1    2  502    0  0.32194500376E+02 -0.81006374753E+02  0.18555295375E+04  0.18575759428E+04  0.00000000000E+00 0. -1.
         22    1    3    3    0    0 -0.83242370306E+02  0.48156903853E+02  0.83333368161E+03  0.83886435406E+03  0.00000000000E+00 0.  1.
         22    1    3    3    0    0  0.32836091860E+02 -0.33954447454E+01  0.10250993138E+03  0.10769412243E+03  0.00000000000E+00 0.  1.
</event>
<event>
 7    1  0.6103724E-006  0.2298390E+03  0.7818608E-02  0.1335046E+00
          2   -1    0    0  502    0  0.00000000000E+00  0.00000000000E+00  0.59131038093E+03  0.59131038093E+03  0.00000000000E+00 0. -1.
          1   -1    0    0  501    0 -0.00000000000E+00 -0.00000000000E+00 -0.16758117545E+03  0.16758117545E+03  0.00000000000E+00 0. -1.
         25    2    1    2    0    0 -0.52018289420E+01  0.24317115711E+03  0.30430635365E+03  0.40913036540E+03  0.12500411332E+03 0.  0.
          2    1    1    2  501    0 -0.13987246670E+01 -0.26382594913E+02 -0.61746009859E+02  0.67160758472E+02  0.00000000000E+00 0. -1.
          1    1    1    2  502    0  0.66005536089E+01 -0.21678856220E+03  0.18116886168E+03  0.28260043250E+03  0.00000000000E+00 0. -1.
         22    1    3    3    0    0  0.32656587604E+02  0.96996736359E+01  0.20787792060E+02  0.39908253298E+02  0.00000000000E+00 0. -1.
         22    1    3    3    0    0 -0.37858416546E+02  0.23347148348E+03  0.28351856160E+03  0.36922211211E+03  0.00000000000E+00 0. -1.
</event>
<event>
 7    1  0.6103724E-006  0.4523518E+02  0.7818608E-02  0.1474426E+00
          2   -1    0    0  502    0  0.00000000000E+00  0.00000000000E+00  0.80639925179E+03  0.80639925179E+03  0.00000000000E+00 0. -1.
          1   -1    0    0  501    0 -0.00000000000E+00 -0.00000000000E+00 -0.40068584351E+03  0.40068584351E+03  0.00000000000E+00 0. -1.
         25    2    1    2    0    0  0.51268158868E+01  0.29893603695E+02 -0.73556185561E+02  0.14817053565E+03  0.12499633361E+03 0.  0.
          2    1    1    2  501    0  0.39720332553E+02 -0.23981330050E+02 -0.28729443873E+03  0.29101701589E+03  0.00000000000E+00 0. -1.
          1    1    1    2  502    0 -0.44847148440E+02 -0.59122736449E+01  0.76656403257E+03  0.76789754377E+03  0.00000000000E+00 0. -1.
         22    1    3    3    0    0 -0.97858737364E+01  0.76668676804E+02 -0.31274640730E+02  0.83378369380E+02  0.00000000000E+00 0.  1.
         22    1    3    3    0    0  0.14912689623E+02 -0.46775073110E+02 -0.42281544831E+02  0.64792166266E+02  0.00000000000E+00 0.  1.
</event>
<event>
 7    1  0.6103724E-006  0.6869743E+02  0.7818608E-02  0.1372969E+00
          2   -1    0    0  502    0  0.00000000000E+00  0.00000000000E+00  0.95275761495E+03  0.95275761495E+03  0.00000000000E+00 0. -1.
          1   -1    0    0  501    0 -0.00000000000E+00 -0.00000000000E+00 -0.30582263683E+03  0.30582263683E+03  0.00000000000E+00 0. -1.
         25    2    1    2    0    0  0.63073088778E+00  0.46762778162E+02  0.12106012101E+03  0.18018831231E+03  0.12500047900E+03 0.  0.
          2    1    1    2  501    0  0.62535298871E+02 -0.13987055441E+02 -0.27093535256E+03  0.27841024872E+03  0.00000000000E+00 0. -1.
          1    1    1    2  502    0 -0.63166029758E+02 -0.32775722721E+02  0.79681020967E+03  0.79998169076E+03  0.00000000000E+00 0. -1.
         22    1    3    3    0    0  0.24055193857E+01  0.72710575603E+02  0.13297935187E+03  0.15157876617E+03  0.00000000000E+00 0.  1.
         22    1    3    3    0    0 -0.17747884979E+01 -0.25947797441E+02 -0.11919230857E+02  0.28609546142E+02  0.00000000000E+00 0.  1.
</event>
<event>
 7    1  0.6103724E-006  0.7712336E+02  0.7818608E-02  0.1434073E+00
          2   -1    0    0  502    0  0.00000000000E+00  0.00000000000E+00  0.38473107067E+02  0.38473107067E+02  0.00000000000E+00 0. -1.
          1   -1    0    0  501    0 -0.00000000000E+00 -0.00000000000E+00 -0.33463858278E+04  0.33463858278E+04  0.00000000000E+00 0. -1.
         25    2    1    2    0    0 -0.94616798297E+02  0.57283468887E+02 -0.99403298692E+03  0.10079489034E+04  0.12500271387E+03 0.  0.
          2    1    1    2  501    0  0.31855475705E+02 -0.15126892618E+02 -0.22997198144E+04  0.22999901780E+04  0.00000000000E+00 0. -1.
          1    1    1    2  502    0  0.62761322592E+02 -0.42156576269E+02 -0.14159919415E+02  0.76919853445E+02  0.00000000000E+00 0. -1.
         22    1    3    3    0    0 -0.24011106061E+02  0.85681245808E+02 -0.46081152620E+03  0.46932405838E+03  0.00000000000E+00 0. -1.
         22    1    3    3    0    0 -0.70605692235E+02 -0.28397776921E+02 -0.53322146072E+03  0.53862484503E+03  0.00000000000E+00 0. -1.
</event>
<event>
 7    1  0.6103724E-006  0.1113363E+03  0.7818608E-02  0.1414588E+00
          2   -1    0    0  502    0  0.00000000000E+00  0.00000000000E+00  0.63189118577E+03  0.63189118577E+03  0.00000000000E+00 0. -1.
          1   -1    0    0  501    0 -0.00000000000E+00 -0.00000000000E+00 -0.57055145326E+03  0.57055145326E+03  0.00000000000E+00 0. -1.
         25    2    1    2    0    0  0.44945436321E+02  0.93637873280E+02 -0.21730789409E+03  0.27135929128E+03  0.12500000228E+03 0.  0.
          2    1    1    2  501    0 -0.23508868296E+02  0.15846039944E+02 -0.32044245743E+03  0.32169415972E+03  0.00000000000E+00 0. -1.
          1    1    1    2  502    0 -0.21436568025E+02 -0.10948391322E+03  0.59909008403E+03  0.60938918803E+03  0.00000000000E+00 0. -1.
         22    1    3    3    0    0 -0.41440068017E+00  0.11622936441E+02 -0.16223902505E+03  0.16265535844E+03  0.00000000000E+00 0.  1.
         22    1    3    3    0    0  0.45359837001E+02  0.82014936840E+02 -0.55068869040E+02  0.10870393284E+03  0.00000000000E+00 0.  1.
</event>
<event>
 7    1  0.6103724E-006  0.6488079E+02  0.7818608E-02  0.1384691E+00
          2   -1    0    0  502    0  0.00000000000E+00  0.00000000000E+00  0.25626559654E+04  0.25626559654E+04  0.00000000000E+00 0. -1.
          1   -1    0    0  501    0 -0.00000000000E+00 -0.00000000000E+00 -0.89941017135E+01  0.89941017135E+01  0.00000000000E+00 0. -1.
         25    2    1    2    0    0 -0.18262275233E+02 -0.14471741425E+02  0.10883373738E+04  0.10957408824E+04  0.12500760092E+03 0.  0.
          2    1    1    2  501    0  0.24503606675E+02  0.75808517342E+02  0.35306851548E+03  0.36194576205E+03  0.00000000000E+00 0. -1.
          1    1    1    2  502    0 -0.62413314418E+01 -0.61336775918E+02  0.11122559744E+04  0.11139634226E+04  0.00000000000E+00 0. -1.
         22    1    3    3    0    0 -0.31902968242E+02  0.40285856365E+02  0.23564057007E+03  0.24117882965E+03  0.00000000000E+00 0. -1.
         22    1    3    3    0    0  0.13640693009E+02 -0.54757597789E+02  0.85269680371E+03  0.85456205279E+03  0.00000000000E+00 0. -1.
</event>
<event>
 7    1  0.6103724E-006  0.5312048E+02  0.7818608E-02  0.1493615E+00
          2   -1    0    0  502    0  0.00000000000E+00  0.00000000000E+00  0.75335293424E+03  0.75335293424E+03  0.00000000000E+00 0. -1.
          1   -1    0    0  501    0 -0.00000000000E+00 -0.00000000000E+00 -0.93687582736E+02  0.93687582736E+02  0.00000000000E+00 0. -1.
         25    2    1    2    0    0  0.13018915487E+02  0.72887204321E+02  0.23834148419E+03  0.27913055465E+03  0.12500066696E+03 0.  0.
          2    1    1    2  501    0 -0.29136044515E+02 -0.43754542784E+02 -0.63222011979E+02  0.82221602411E+02  0.00000000000E+00 0. -1.
          1    1    1    2  502    0  0.16117129028E+02 -0.29132661537E+02  0.48454587930E+03  0.48568835992E+03  0.00000000000E+00 0. -1.
         22    1    3    3    0    0  0.58304262625E+02  0.69367063698E+02  0.10732022401E+03  0.14045927185E+03  0.00000000000E+00 0.  1.
         22    1    3    3    0    0 -0.45285347138E+02  0.35201406231E+01  0.13102126017E+03  0.13867128280E+03  0.00000000000E+00 0.  1.
</event>
<event>
 7    1  0.6103724E-006  0.5653531E+02  0.7818608E-02  0.1413317E+00
          2   -1    0    0  502    0  0.00000000000E+00  0.00000000000E+00  0.50057447826E+03  0.50057447826E+03  0.00000000000E+00 0. -1.
          1   -1    0    0  501    0 -0.00000000000E+00 -0.00000000000E+00 -0.19214297402E+04  0.19214297402E+04  0.00000000000E+00 0. -1.
         25    2    1    2    0    0  0.16606409835E+02 -0.38003383924E+02 -0.13943557729E+03  0.19179556004E+03  0.12499290621E+03 0.  0.
          2    1    1    2  501    0 -0.56482062346E+02 -0.24531733678E+01 -0.17536565177E+04  0.17545675887E+04  0.00000000000E+00 0. -1.
          1    1    1    2  502    0  0.39875652511E+02  0.40456557292E+02  0.47223683303E+03  0.47564106967E+03  0.00000000000E+00 0. -1.
         22    1    3    3    0    0 -0.39891784357E+02  0.24660426511E+02 -0.42588155706E+02  0.63350154707E+02  0.00000000000E+00 0.  1.
         22    1    3    3    0    0  0.56498194192E+02 -0.62663810435E+02 -0.96847421581E+02  0.12844540534E+03  0.00000000000E+00 0.  1.
</event>
<event>
 7    1  0.6103724E-006  0.1160094E+03  0.7818608E-02  0.1440605E+00
          2   -1    0    0  502    0  0.00000000000E+00  0.00000000000E+00  0.33400929254E+03  0.33400929254E+03  0.00000000000E+00 0. -1.
          1   -1    0    0  501    0 -0.00000000000E+00 -0.00000000000E+00 -0.72983801288E+03  0.72983801288E+03  0.00000000000E+00 0. -1.
         25    2    1    2    0    0 -0.79708162172E+02 -0.83962638864E+02 -0.14960714921E+03  0.22673689812E+03  0.12499682409E+03 0.  0.
          2    1    1    2  501    0  0.94772730038E+02  0.67489006492E+02 -0.53498254198E+03  0.54748785976E+03  0.00000000000E+00 0. -1.
          1    1    1    2  502    0 -0.15064567866E+02  0.16473632371E+02  0.28876097084E+03  0.28962254755E+03  0.00000000000E+00 0. -1.
         22    1    3    3    0    0 -0.16551426407E+02 -0.86335272694E+02 -0.13623756298E+03  0.16213698713E+03  0.00000000000E+00 0.  1.
         22    1    3    3    0    0 -0.63156735766E+02  0.23726338299E+01 -0.13369586221E+02  0.64599910987E+02  0.00000000000E+00 0.  1.
</event>
<event>
 7    1  0.6103724E-006  0.1109100E+03  0.7818608E-02  0.1278245E+00
          2   -1    0    0  502    0  0.00000000000E+00  0.00000000000E+00  0.12536840743E+03  0.12536840743E+03  0.00000000000E+00 0. -1.
          1   -1    0    0  501    0 -0.00000000000E+00 -0.00000000000E+00 -0.72264445270E+03  0.72264445270E+03  0.00000000000E+00 0. -1.
         25    2    1    2    0    0 -0.16405509222E+03 -0.45436995804E+01 -0.41442109600E+03  0.46292979513E+03  0.12499772768E+03 0.  0.
          2    1    1    2  501    0  0.70213387420E+02  0.59358290131E+02 -0.24374553143E+03  0.26050952089E+03  0.00000000000E+00 0. -1.
          1    1    1    2  502    0  0.93841704799E+02 -0.54814590550E+02  0.60890582162E+02  0.12457354411E+03  0.00000000000E+00 0. -1.
         22    1    3    3    0    0 -0.81220522308E+02  0.41008086618E+02 -0.10278217424E+03  0.13726839313E+03  0.00000000000E+00 0.  1.
         22    1    3    3    0    0 -0.82834569911E+02 -0.45551786198E+02 -0.31163892176E+03  0.32566140200E+03  0.00000000000E+00 0.  1.
</event>
<event>
 7    1  0.6103724E-006  0.6316701E+02  0.7818608E-02  0.1396397E+00
          2   -1    0    0  502    0  0.00000000000E+00  0.00000000000E+00  0.15621671626E+03  0.15621671626E+03  0.00000000000E+00 0. -1.
          1   -1    0    0  501    0 -0.00000000000E+00 -0.00000000000E+00 -0.49239146425E+03  0.49239146425E+03  0.00000000000E+00 0. -1.
         25    2    1    2    0    0  0.15503710155E+02 -0.53926480213E+02  0.18244981745E+02  0.13822630343E+03  0.12500080522E+03 0.  0.
          2    1    1    2  501    0  0.47351612412E+02  0.41807848096E+02 -0.41646871484E+03  0.42123183854E+03  0.00000000000E+00 0. -1.
          1    1    1    2  502    0 -0.62855322567E+02  0.12118632117E+02  0.62048985103E+02  0.89150038540E+02  0.00000000000E+00 0. -1.
         22    1    3    3    0    0 -0.39557225502E+02 -0.25843575221E+02 -0.33249683491E+02  0.57777209364E+02  0.00000000000E+00 0.  1.
         22    1    3    3    0    0  0.55060935658E+02 -0.28082904992E+02  0.51494665237E+02  0.80449094066E+02  0.00000000000E+00 0.  1.
</event>
<event>
 7    1  0.6103724E-006  0.1070953E+03  0.7818608E-02  0.1280001E+00
          2   -1    0    0  502    0  0.00000000000E+00  0.00000000000E+00  0.41197893806E+03  0.41197893806E+03  0.00000000000E+00 0. -1.
          1   -1    0    0  501    0 -0.00000000000E+00 -0.00000000000E+00 -0.40914078512E+03  0.40914078512E+03  0.00000000000E+00 0. -1.
         25    2    1    2    0    0  0.78238353664E+02 -0.16977540113E+03  0.99294737096E+02  0.24582641345E+03  0.12500501558E+03 0.  0.
          2    1    1    2  501    0 -0.69969809285E+02  0.76504065209E+02 -0.31816058881E+03  0.33462636847E+03  0.00000000000E+00 0. -1.
          1    1    1    2  502    0 -0.82685443791E+01  0.93271335924E+02  0.22170400466E+03  0.24066694126E+03  0.00000000000E+00 0. -1.
         22    1    3    3    0    0 -0.30627651725E+02 -0.11433959149E+02  0.15916690100E+02  0.36361098660E+02  0.00000000000E+00 0. -1.
         22    1    3    3    0    0  0.10886600539E+03 -0.15834144198E+03  0.83378046996E+02  0.20946531479E+03  0.00000000000E+00 0. -1.
</event>
<event>
 7    1  0.6103724E-006  0.1831981E+03  0.7818608E-02  0.1352724E+00
          2   -1    0    0  502    0  0.00000000000E+00  0.00000000000E+00  0.99100599639E+03  0.99100599639E+03  0.00000000000E+00 0. -1.
          1   -1    0    0  501    0 -0.00000000000E+00 -0.00000000000E+00 -0.27527106606E+03  0.27527106606E+03  0.00000000000E+00 0. -1.
         25    2    1    2    0    0 -0.14139751566E+03 -0.92889921366E+02 -0.81872635791E+02  0.22571934179E+03  0.12499719134E+03 0.  0.
          2    1    1    2  501    0  0.27952566449E+01 -0.28327556850E+02 -0.11042977652E+03  0.11403946457E+03  0.00000000000E+00 0. -1.
          1    1    1    2  502    0  0.13860225902E+03  0.12121747822E+03  0.90803734264E+03  0.92651825609E+03  0.00000000000E+00 0. -1.
         22    1    3    3    0    0  0.27794979899E+01 -0.61282945372E+02 -0.12402347372E+02  0.62587085113E+02  0.00000000000E+00 0.  1.
         22    1    3    3    0    0 -0.14417701365E+03 -0.31606975994E+02 -0.69470288418E+02  0.16313225668E+03  0.00000000000E+00 0.  1.
</event>
<event>
 7    1  0.6103724E-006  0.1348901E+03  0.7818608E-02  0.1400185E+00
          2   -1    0    0  502    0  0.00000000000E+00  0.00000000000E+00  0.24879139251E+04  0.24879139251E+04  0.00000000000E+00 0. -1.
          1   -1    0    0  501    0 -0.00000000000E+00 -0.00000000000E+00 -0.50763559865E+03  0.50763559865E+03  0.00000000000E+00 0. -1.
         25    2    1    2    0    0 -0.36318400581E+02  0.11513670709E+03  0.16864613890E+04  0.16953913915E+04  0.12499786512E+03 0.  0.
          2    1    1    2  501    0  0.62086195784E+02 -0.11984853489E+03 -0.49389717900E+03  0.51200858435E+03  0.00000000000E+00 0. -1.
          1    1    1    2  502    0 -0.25767795203E+02  0.47118278000E+01  0.78771411640E+03  0.78814954785E+03  0.00000000000E+00 0. -1.
         22    1    3    3    0    0 -0.50274320026E+02  0.13804777326E+03  0.14131556930E+04  0.14207722223E+04  0.00000000000E+00 0.  1.
         22    1    3    3    0    0  0.13955919445E+02 -0.22911066175E+02  0.27330569601E+03  0.27461916924E+03  0.00000000000E+00 0.  1.
</event>
<event>
 7    1  0.6103724E-006  0.8168463E+02  0.7818608E-02  0.1341318E+00
          2   -1    0    0  502    0  0.00000000000E+00  0.00000000000E+00  0.18496788987E+03  0.18496788987E+03  0.00000000000E+00 0. -1.
          1   -1    0    0  501    0 -0.00000000000E+00 -0.00000000000E+00 -0.21434898780E+04  0.21434898780E+04  0.00000000000E+00 0. -1.
         25    2    1    2    0    0 -0.22096095604E+02  0.89633132286E+02 -0.15283862411E+03  0.21795222566E+03  0.12498476631E+03 0.  0.
          2    1    1    2  501    0  0.71861428520E+02 -0.39843133110E+02 -0.19490536777E+04  0.19507849135E+04  0.00000000000E+00 0. -1.
          1    1    1    2  502    0 -0.49765332916E+02 -0.49789999177E+02  0.14337031370E+03  0.15972062868E+03  0.00000000000E+00 0. -1.
         22    1    3    3    0    0  0.10524984325E+02  0.33520484073E+02 -0.14883214920E+03  0.15292287855E+03  0.00000000000E+00 0. -1.
         22    1    3    3    0    0 -0.32621079928E+02  0.56112648213E+02 -0.40064749058E+01  0.65029347116E+02  0.00000000000E+00 0. -1.
</event>
<event>
 7    1  0.6103724E-006  0.1174977E+03  0.7818608E-02  0.1327541E+00
          2   -1    0    0  502    0  0.00000000000E+00  0.00000000000E+00  0.15824032048E+04  0.15824032048E+04  0.00000000000E+00 0. -1.
          1   -1    0    0  501    0 -0.00000000000E+00 -0.00000000000E+00 -0.90251215035E+03  0.90251215035E+03  0.00000000000E+00 0. -1.
         25    2    1    2    0    0  0.14987212342E+03  0.44261308480E+02 -0.72304846177E+03  0.75022992617E+03  0.12500058895E+03 0.  0.
          2    1    1    2  501    0 -0.32471511332E+02 -0.44638704217E+02 -0.15901580517E+03  0.16832420877E+03  0.00000000000E+00 0. -1.
          1    1    1    2  502    0 -0.11740061209E+03  0.37739573629E+00  0.15619553214E+04  0.15663612202E+04  0.00000000000E+00 0. -1.
         22    1    3    3    0    0 -0.12061536211E+02  0.25845397181E+02 -0.48431558484E+02  0.56205703166E+02  0.00000000000E+00 0.  1.
         22    1    3    3    0    0  0.16193365963E+03  0.18415911300E+02 -0.67461690329E+03  0.69402422300E+03  0.00000000000E+00 0.  1.
</event>
<event>
 7    1  0.6103724E-006  0.1603982E+03  0.7818608E-02  0.1408164E+00
          2   -1    0    0  502    0  0.00000000000E+00  0.00000000000E+00  0.19660759058E+04  0.19660759058E+04  0.00000000000E+00 0. -1.
          1   -1    0    0  501    0 -0.00000000000E+00 -0.00000000000E+00 -0.36872843094E+03  0.36872843094E+03  0.00000000000E+00 0. -1.
         25    2    1    2    0    0 -0.11542081435E+03  0.11101961254E+03  0.76129113210E+03  0.78792948209E+03  0.12498544786E+03 0.  0.
          2    1    1    2  501    0  0.10034108168E+03 -0.12518348354E+03 -0.33720806382E+03  0.37342805938E+03  0.00000000000E+00 0. -1.
          1    1    1    2  502    0  0.15079732666E+02  0.14163871005E+02  0.11732644066E+04  0.11734467953E+04  0.00000000000E+00 0. -1.
         22    1    3    3    0    0 -0.11720195978E+02  0.44978757762E+01  0.35619846021E+03  0.35641960796E+03  0.00000000000E+00 0.  1.
         22    1    3    3    0    0 -0.10370061837E+03  0.10652173676E+03  0.40509267189E+03  0.43150987413E+03  0.00000000000E+00 0.  1.
</event>
<event>
 7    1  0.6103724E-006  0.1995516E+03  0.7818608E-02  0.1308620E+00
          2   -1    0    0  502    0  0.00000000000E+00  0.00000000000E+00  0.95752372141E+03  0.95752372141E+03  0.00000000000E+00 0. -1.
          1   -1    0    0  501    0 -0.00000000000E+00 -0.00000000000E+00 -0.42089879955E+03  0.42089879955E+03  0.00000000000E+00 0. -1.
         25    2    1    2    0    0 -0.15811120617E+03 -0.48900035185E+02  0.18588863007E+02  0.20823135780E+03  0.12499754231E+03 0.  0.
          2    1    1    2  501    0 -0.37206994620E+02 -0.99232380673E+01 -0.31255529601E+03  0.31491847226E+03  0.00000000000E+00 0. -1.
          1    1    1    2  502    0  0.19531820080E+03  0.58823273252E+02  0.83059135486E+03  0.85527269091E+03  0.00000000000E+00 0. -1.
         22    1    3    3    0    0 -0.11906752962E+03  0.26919872808E+02  0.13076055422E+02  0.12277108531E+03  0.00000000000E+00 0. -1.
         22    1    3    3    0    0 -0.39043676556E+02 -0.75819907993E+02  0.55128075842E+01  0.85460272493E+02  0.00000000000E+00 0. -1.
</event>
<event>
 7    1  0.6103724E-006  0.7526812E+02  0.7818608E-02  0.1419455E+00
          2   -1    0    0  502    0  0.00000000000E+00  0.00000000000E+00  0.97941806042E+03  0.97941806042E+03  0.00000000000E+00 0. -1.
          1   -1    0    0  501    0 -0.00000000000E+00 -0.00000000000E+00 -0.26420874556E+03  0.26420874556E+03  0.00000000000E+00 0. -1.
         25    2    1    2    0    0  0.10297892443E+03 -0.48818901607E+02  0.11235987057E+03  0.20307041165E+03  0.12499963017E+03 0.  0.
          2    1    1    2  501    0 -0.34699431944E+02  0.20669888261E+02 -0.21531245019E+03  0.21906790286E+03  0.00000000000E+00 0. -1.
          1    1    1    2  502    0 -0.68279492487E+02  0.28149013347E+02  0.81816189448E+03  0.82148849147E+03  0.00000000000E+00 0. -1.
         22    1    3    3    0    0  0.12120316683E+02  0.40167570435E+02  0.26516987755E+02  0.49633521240E+02  0.00000000000E+00 0.  1.
         22    1    3    3    0    0  0.90858607748E+02 -0.88986472042E+02  0.85842882820E+02  0.15343689041E+03  0.00000000000E+00 0.  1.
</event>
<event>
 7    1  0.6103724E-006  0.7712483E+02  0.7818608E-02  0.1358740E+00
          2   -1    0    0  502    0  0.00000000000E+00  0.00000000000E+00  0.80953589839E+03  0.80953589839E+03  0.00000000000E+00 0. -1.
          1   -1    0    0  501    0 -0.00000000000E+00 -0.00000000000E+00 -0.59813324132E+03  0.59813324132E+03  0.00000000000E+00 0. -1.
         25    2    1    2    0    0  0.66972300674E+02  0.69443062553E+02 -0.34836253421E+02  0.16169919877E+03  0.12500175333E+03 0.  0.
          2    1    1    2  501    0 -0.31864913977E+01 -0.77237711316E+02 -0.49547924383E+03  0.50147332815E+03  0.00000000000E+00 0. -1.
          1    1    1    2  502    0 -0.63785809277E+02  0.77946487621E+01  0.74171815432E+03  0.74449661280E+03  0.00000000000E+00 0. -1.
         22    1    3    3    0    0 -0.16199171291E+02  0.23041324867E+02  0.34026731802E+02  0.44171645648E+02  0.00000000000E+00 0.  1.
         22    1    3    3    0    0  0.83171471965E+02  0.46401737686E+02 -0.68862985222E+02  0.11752755312E+03  0.00000000000E+00 0.  1.
</event>
<event>
 7    1  0.6103724E-006  0.1491617E+03  0.7818608E-02  0.1263855E+00
          2   -1    0    0  502    0  0.00000000000E+00  0.00000000000E+00  0.24065223850E+04  0.24065223850E+04  0.00000000000E+00 0. -1.
          1   -1    0    0  501    0 -0.00000000000E+00 -0.00000000000E+00 -0.14827511754E+03  0.14827511754E+03  0.00000000000E+00 0. -1.
         25    2    1    2    0    0 -0.65006118833E+02  0.67727264620E+02  0.28559239017E+03  0.32557750584E+03  0.12499968450E+03 0.  0.
          2    1    1    2  501    0  0.41324602155E+01  0.78443065395E+02 -0.11296857414E+03  0.13759466007E+03  0.00000000000E+00 0. -1.
          1    1    1    2  502    0  0.60873658618E+02 -0.14617033001E+03  0.20856234514E+04  0.20916253366E+04  0.00000000000E+00 0. -1.
         22    1    3    3    0    0 -0.29342247823E+02  0.58490903377E+02  0.28092108207E+03  0.28844203514E+03  0.00000000000E+00 0. -1.
         22    1    3    3    0    0 -0.35663871010E+02  0.92363612434E+01  0.46713081009E+01  0.37135470696E+02  0.00000000000E+00 0. -1.
</event>
<event>
 7    1  0.6103724E-006  0.5612093E+02  0.7818608E-02  0.1470742E+00
          2   -1    0    0  502    0  0.00000000000E+00  0.00000000000E+00  0.18465782433E+04  0.18465782433E+04  0.00000000000E+00 0. -1.
          1   -1    0    0  501    0 -0.00000000000E+00 -0.00000000000E+00 -0.45464018264E+02  0.45464018264E+02  0.00000000000E+00 0. -1.
         25    2    1    2    0    0  0.25366440928E+02  0.22092242571E+02  0.12092138535E+04  0.12161219488E+04  0.12499170956E+03 0.  0.
          2    1    1    2  501    0 -0.56556092208E+02 -0.21467469077E+01 -0.22133913127E+02  0.60770965094E+02  0.00000000000E+00 0. -1.
          1    1    1    2  502    0  0.31189651280E+02 -0.19945495663E+02  0.61403428472E+03  0.61514934768E+03  0.00000000000E+00 0. -1.
         22    1    3    3    0    0 -0.31519696467E+02  0.54835739789E+02  0.53735308007E+03  0.54106264173E+03  0.00000000000E+00 0.  1.
         22    1    3    3    0    0  0.56886137395E+02 -0.32743497217E+02  0.67186077339E+03  0.67505930707E+03  0.00000000000E+00 0.  1.
</event>
<event>
 7    1  0.6103724E-006  0.7162389E+02  0.7818608E-02  0.1408718E+00
          2   -1    0    0  502    0  0.00000000000E+00  0.00000000000E+00  0.68985913290E+03  0.68985913290E+03  0.00000000000E+00 0. -1.
          1   -1    0    0  501    0 -0.00000000000E+00 -0.00000000000E+00 -0.47758095484E+03  0.47758095484E+03  0.00000000000E+00 0. -1.
         25    2    1    2    0    0 -0.80382872777E+01  0.37520523406E+02  0.23780826862E+03  0.27138776256E+03  0.12500456514E+03 0.  0.
          2    1    1    2  501    0  0.52667224274E+02 -0.49194448254E+02 -0.45673546899E+03  0.46238643890E+03  0.00000000000E+00 0. -1.
          1    1    1    2  502    0 -0.44628936997E+02  0.11673924849E+02  0.43120537842E+03  0.43366588628E+03  0.00000000000E+00 0. -1.
         22    1    3    3    0    0  0.44255072773E+02  0.52560285813E+02  0.85722117312E+02  0.10986071412E+03  0.00000000000E+00 0.  1.
         22    1    3    3    0    0 -0.52293360051E+02 -0.15039762407E+02  0.15208615131E+03  0.16152704844E+03  0.00000000000E+00 0.  1.
</event>
<event>
 7    1  0.6103724E-006  0.4477527E+02  0.7818608E-02  0.1499612E+00
          2   -1    0    0  502    0  0.00000000000E+00  0.00000000000E+00  0.72342468213E+02  0.72342468213E+02  0.00000000000E+00 0. -1.
          1   -1    0    0  501    0 -0.00000000000E+00 -0.00000000000E+00 -0.11153047211E+04  0.11153047211E+04  0.00000000000E+00 0. -1.
         25    2    1    2    0    0  0.55367423556E+02  0.38433419654E+02 -0.19127351288E+03  0.23823012696E+03  0.12500142929E+03 0.  0.
          2    1    1    2  501    0 -0.17548494223E+02 -0.40867031522E+02 -0.89256710156E+03  0.89367449035E+03  0.00000000000E+00 0. -1.
          1    1    1    2  502    0 -0.37818929333E+02  0.24336118683E+01  0.40878361591E+02  0.55742571962E+02  0.00000000000E+00 0. -1.
         22    1    3    3    0    0  0.27835416152E+02 -0.41556389436E+02 -0.11037466252E+03  0.12117883487E+03  0.00000000000E+00 0.  1.
         22    1    3    3    0    0  0.27532007404E+02  0.79989809090E+02 -0.80898850363E+02  0.11705129209E+03  0.00000000000E+00 0.  1.
</event>
<event>
 7    1  0.6103724E-006  0.6105609E+02  0.7818608E-02  0.1456852E+00
          2   -1    0    0  502    0  0.00000000000E+00  0.00000000000E+00  0.86061450597E+03  0.86061450597E+03  0.00000000000E+00 0. -1.
          1   -1    0    0  501    0 -0.00000000000E+00 -0.00000000000E+00 -0.82730629911E+02  0.82730629911E+02  0.00000000000E+00 0. -1.
         25    2    1    2    0    0 -0.82256481204E+02  0.87060045518E+00  0.36908600876E+02  0.15412195359E+03  0.12499778044E+03 0.  0.
          2    1    1    2  501    0  0.51329837303E+02  0.20552347233E+02  0.86877689825E+01  0.55969889264E+02  0.00000000000E+00 0. -1.
          1    1    1    2  502    0  0.30926643901E+02 -0.21422947688E+02  0.73228750620E+03  0.73325329303E+03  0.00000000000E+00 0. -1.
         22    1    3    3    0    0 -0.57064817323E+02 -0.15935632478E+02 -0.39986173937E+02  0.71478891042E+02  0.00000000000E+00 0.  1.
         22    1    3    3    0    0 -0.25191663881E+02  0.16806232933E+02  0.76894774812E+02  0.82643062552E+02  0.00000000000E+00 0.  1.
</event>
<event>
 7    1  0.6103724E-006  0.7264054E+02  0.7818608E-02  0.1473313E+00
          2   -1    0    0  502    0  0.00000000000E+00  0.00000000000E+00  0.38214029438E+03  0.38214029438E+03  0.00000000000E+00 0. -1.
          1   -1    0    0  501    0 -0.00000000000E+00 -0.00000000000E+00 -0.11073625978E+03  0.11073625978E+03  0.00000000000E+00 0. -1.
         25    2    1    2    0    0  0.12067959545E+02  0.44876912978E+02 -0.78783044768E+01  0.13358963644E+03  0.12499820125E+03 0.  0.
          2    1    1    2  501    0  0.23475353155E+01  0.27983822604E+02 -0.30069720263E+02  0.41143569683E+02  0.00000000000E+00 0. -1.
          1    1    1    2  502    0 -0.14415494861E+02 -0.72860735581E+02  0.30935205934E+03  0.31814334804E+03  0.00000000000E+00 0. -1.
         22    1    3    3    0    0  0.46780147009E+02 -0.12927736629E+02 -0.36108126608E+02  0.60492192353E+02  0.00000000000E+00 0.  1.
         22    1    3    3    0    0 -0.34712187463E+02  0.57804649606E+02  0.28229822131E+02  0.73097444088E+02  0.00000000000E+00 0.  1.
</event>
<event>
 7    1  0.6103724E-006  0.4393355E+02  0.7818608E-02  0.1507212E+00
          2   -1    0    0  502    0  0.00000000000E+00  0.00000000000E+00  0.21557460825E+03  0.21557460825E+03  0.00000000000E+00 0. -1.
          1   -1    0    0  501    0 -0.00000000000E+00 -0.00000000000E+00 -0.59170434914E+03  0.59170434914E+03  0.00000000000E+00 0. -1.
         25    2    1    2    0    0  0.48135373726E+02 -0.42258796741E+02 -0.11554788064E+02  0.14092948487E+03  0.12499914589E+03 0.  0.
          2    1    1    2  501    0 -0.50255184327E+01  0.36320869194E+02 -0.51165479498E+03  0.51296694884E+03  0.00000000000E+00 0. -1.
          1    1    1    2  502    0 -0.43109855293E+02  0.59379275465E+01  0.14707984215E+03  0.15338252369E+03  0.00000000000E+00 0. -1.
         22    1    3    3    0    0  0.76927381337E+02  0.73847437543E+01  0.13251617655E+02  0.78408939606E+02  0.00000000000E+00 0. -1.
         22    1    3    3    0    0 -0.28792007611E+02 -0.49643540495E+02 -0.24806405719E+02  0.62520545262E+02  0.00000000000E+00 0. -1.
</event>
<event>
 7    1  0.6103724E-006  0.1042471E+03  0.7818608E-02  0.1350536E+00
          2   -1    0    0  502    0  0.00000000000E+00  0.00000000000E+00  0.68596926805E+03  0.68596926805E+03  0.00000000000E+00 0. -1.
          1   -1    0    0  501    0 -0.00000000000E+00 -0.00000000000E+00 -0.26645747564E+04  0.26645747564E+04  0.00000000000E+00 0. -1.
         25    2    1    2    0    0  0.58910068801E+02 -0.15799552104E+02 -0.68929494109E+03  0.70318760096E+03  0.12500105710E+03 0.  0.
          2    1    1    2  501    0  0.27607702907E+02 -0.42838088864E+02 -0.19639791225E+04  0.19646402421E+04  0.00000000000E+00 0. -1.
          1    1    1    2  502    0 -0.86517771709E+02  0.58637640968E+02  0.67466857532E+03  0.68271618136E+03  0.00000000000E+00 0. -1.
         22    1    3    3    0    0  0.88631982009E+02 -0.43217098765E+02 -0.48073308676E+03  0.49074193479E+03  0.00000000000E+00 0. -1.
         22    1    3    3    0    0 -0.29721913208E+02  0.27417546662E+02 -0.20856185434E+03  0.21244566617E+03  0.00000000000E+00 0. -1.
</event>
<event>
 7    1  0.6103724E-006  0.6260652E+02  0.7818608E-02  0.1484987E+00
          2   -1    0    0  502    0  0.00000000000E+00  0.00000000000E+00  0.32584240242E+04  0.32584240242E+04  0.00000000000E+00 0. -1.
          1   -1    0    0  501    0 -0.00000000000E+00 -0.00000000000E+00 -0.81662973615E+01  0.81662973615E+01  0.00000000000E+00 0. -1.
         25    2    1    2    0    0  0.23745186771E+02  0.33539708804E+02  0.11329654485E+04  0.11405806478E+04  0.12499904306E+03 0.  0.
          2    1    1    2  501    0 -0.24361974957E+02 -0.63534176588E+02  0.26895943171E+03  0.27743336736E+03  0.00000000000E+00 0. -1.
          1    1    1    2  502    0  0.61678818587E+00  0.29994467784E+02  0.18483328467E+04  0.18485763064E+04  0.00000000000E+00 0. -1.
         22    1    3    3    0    0  0.66177036287E+02  0.35476747770E+02  0.94006747270E+03  0.94306142588E+03  0.00000000000E+00 0. -1.
         22    1    3    3    0    0 -0.42431849516E+02 -0.19370389656E+01  0.19289797581E+03  0.19751922197E+03  0.00000000000E+00 0. -1.
</event>
<event>
 7    1  0.6103724E-006  0.9240498E+02  0.7818608E-02  0.1346739E+00
          2   -1    0    0  502    0  0.00000000000E+00  0.00000000000E+00  0.14212329881E+04  0.14212329881E+04  0.00000000000E+00 0. -1.
          1   -1    0    0  501    0 -0.00000000000E+00 -0.00000000000E+00 -0.88607841780E+02  0.88607841780E+02  0.00000000000E+00 0. -1.
         25    2    1    2    0    0 -0.61854780792E+02 -0.47940800754E+02  0.10482305964E+04  0.10585536144E+04  0.12499614863E+03 0.  0.
          2    1    1    2  501    0  0.20800919362E+02  0.90858549361E+02 -0.53999091788E+02  0.10772119639E+03  0.00000000000E+00 0. -1.
          1    1    1    2  502    0  0.41053861430E+02 -0.42917748607E+02  0.33839364178E+03  0.34356601910E+03  0.00000000000E+00 0. -1.
         22    1    3    3    0    0 -0.18021184450E+02 -0.56451887225E+02  0.93441838151E+03  0.93629551444E+03  0.00000000000E+00 0. -1.
         22    1    3    3    0    0 -0.43833596342E+02  0.85110864708E+01  0.11381221486E+03  0.12225809999E+03  0.00000000000E+00 0. -1.
</event>
<event>
 7    1  0.6103724E-006  0.1035616E+03  0.7818608E-02  0.1398218E+00
          2   -1    0    0  502    0  0.00000000000E+00  0.00000000000E+00  0.13868122183E+04  0.13868122183E+04  0.00000000000E+00 0. -1.
          1   -1    0    0  501    0 -0.00000000000E+00 -0.00000000000E+00 -0.19886747879E+03  0.19886747879E+03  0.00000000000E+00 0. -1.
         25    2    1    2    0    0 -0.89863322975E+02 -0.38100807263E+02  0.10007858080E+03  0.18752876614E+03  0.12499690982E+03 0.  0.
          2    1    1    2  501    0  0.77652928050E+02  0.70533861288E+02 -0.13713556487E+03  0.17265910336E+03  0.00000000000E+00 0. -1.
          1    1    1    2  502    0  0.12210394926E+02 -0.32433054025E+02  0.12250017235E+04  0.12254918275E+04  0.00000000000E+00 0. -1.
         22    1    3    3    0    0 -0.10555930975E+03 -0.54229693079E+00  0.35840428706E+02  0.11147913837E+03  0.00000000000E+00 0.  1.
         22    1    3    3    0    0  0.15695986780E+02 -0.37558510332E+02  0.64238152094E+02  0.76049627769E+02  0.00000000000E+00 0.  1.
</event>
<event>
 7    1  0.6103724E-006  0.2575517E+02  0.7818608E-02  0.1688636E+00
          2   -1    0    0  502    0  0.00000000000E+00  0.00000000000E+00  0.16994703046E+04  0.16994703046E+04  0.00000000000E+00 0. -1.
          1   -1    0    0  501    0 -0.00000000000E+00 -0.00000000000E+00 -0.24412676144E+03  0.24412676144E+03  0.00000000000E+00 0. -1.
         25    2    1    2    0    0  0.32155139491E+02 -0.10085853604E+02  0.15932382162E+03  0.20529161466E+03  0.12499955789E+03 0.  0.
          2    1    1    2  501    0 -0.24073827714E+02 -0.91443358649E+01 -0.22032118311E+03  0.22182108057E+03  0.00000000000E+00 0. -1.
          1    1    1    2  502    0 -0.80813117771E+01  0.19230189469E+02  0.15163409046E+04  0.15164843708E+04  0.00000000000E+00 0. -1.
         22    1    3    3    0    0 -0.77221361217E+01  0.18587070816E+02 -0.14406537485E+02  0.24751947602E+02  0.00000000000E+00 0. -1.
         22    1    3    3    0    0  0.39877275613E+02 -0.28672924421E+02  0.17373035910E+03  0.18053966705E+03  0.00000000000E+00 0. -1.
</event>
<event>
 7    1  0.6103724E-006  0.5663950E+02  0.7818608E-02  0.1456320E+00
          2   -1    0    0  502    0  0.00000000000E+00  0.00000000000E+00  0.17754439423E+04  0.17754439423E+04  0.00000000000E+00 0. -1.
          1   -1    0    0  501    0 -0.00000000000E+00 -0.00000000000E+00 -0.18852628927E+02  0.18852628927E+02  0.00000000000E+00 0. -1.
         25    2    1    2    0    0 -0.18936109438E+02  0.14845924265E+02  0.65461246611E+03  0.66687451409E+03  0.12500063617E+03 0.  0.
          2    1    1    2  501    0 -0.40710690380E+02  0.46641139466E+00  0.23145514104E+02  0.46832602681E+02  0.00000000000E+00 0. -1.
          1    1    1    2  502    0  0.59646799818E+02 -0.15312335659E+02  0.10788333332E+04  0.10805894545E+04  0.00000000000E+00 0. -1.
         22    1    3    3    0    0  0.44396913497E+02  0.24499147021E+02  0.15291823102E+03  0.16110642293E+03  0.00000000000E+00 0.  1.
         22    1    3    3    0    0 -0.63333022935E+02 -0.96532227558E+01  0.50169423509E+03  0.50576809115E+03  0.00000000000E+00 0.  1.
</event>
<event>
 7    1  0.6103724E-006  0.6619410E+02  0.7818608E-02  0.1420455E+00
          2   -1    0    0  502    0  0.00000000000E+00  0.00000000000E+00  0.39692665525E+03  0.39692665525E+03  0.00000000000E+00 0. -1.
          1   -1    0    0  501    0 -0.00000000000E+00 -0.00000000000E+00 -0.11282569355E+04  0.11282569355E+04  0.00000000000E+00 0. -1.
         25    2    1    2    0    0  0.46600945843E+02  0.79444501375E+02 -0.20480610173E+03  0.25700938125E+03  0.12500082316E+03 0.  0.
          2    1    1    2  501    0 -0.55476795689E+02 -0.34743150643E+02 -0.89474881528E+03  0.89714001350E+03  0.00000000000E+00 0. -1.
          1    1    1    2  502    0  0.88758498461E+01 -0.44701350733E+02  0.36822463677E+03  0.37103419599E+03  0.00000000000E+00 0. -1.
         22    1    3    3    0    0  0.63484747376E+02  0.36547170381E+02 -0.35240954825E+02  0.81289197986E+02  0.00000000000E+00 0.  1.
         22    1    3    3    0    0 -0.16883801533E+02  0.42897330995E+02 -0.16956514690E+03  0.17572018326E+03  0.00000000000E+00 0.  1.
</event>
<event>
 7    1  0.6103724E-006  0.1713010E+03  0.7818608E-02  0.1255668E+00
          2   -1    0    0  502    0  0.00000000000E+00  0.00000000000E+00  0.32252794968E+03  0.32252794968E+03  0.00000000000E+00 0. -1.
          1   -1    0    0  501    0 -0.00000000000E+00 -0.00000000000E+00 -0.40498608452E+03  0.40498608452E+03  0.00000000000E+00 0. -1.
         25    2    1    2    0    0  0.10054794342E+03 -0.73043067195E+02 -0.93704364190E+02  0.19962581863E+03  0.12499912401E+03 0.  0.
          2    1    1    2  501    0  0.72560016055E+02  0.15188360626E+02 -0.22065500741E+03  0.23277515874E+03  0.00000000000E+00 0. -1.
          1    1    1    2  502    0 -0.17310795948E+03  0.57854706570E+02  0.23190123675E+03  0.29511305684E+03  0.00000000000E+00 0. -1.
         22    1    3    3    0    0 -0.15868121862E+01  0.30049610238E+02 -0.24726694913E+02  0.38947483741E+02  0.00000000000E+00 0.  1.
         22    1    3    3    0    0  0.10213475561E+03 -0.10309267743E+03 -0.68977669276E+02  0.16067833489E+03  0.00000000000E+00 0.  1.
</event>
<event>
 7    1  0.6103724E-006  0.5371521E+02  0.7818608E-02  0.1446394E+00
          2   -1    0    0  502    0  0.00000000000E+00  0.00000000000E+00  0.10412433053E+04  0.10412433053E+04  0.00000000000E+00 0. -1.
          1   -1    0    0  501    0 -0.00000000000E+00 -0.00000000000E+00 -0.12816899007E+03  0.12816899007E+03  0.00000000000E+00 0. -1.
         25    2    1    2    0    0  0.83468479081E+01  0.57169080807E+01  0.73832284442E+02  0.14552888192E+03  0.12500038536E+03 0.  0.
          2    1    1    2  501    0  0.15824117541E+02  0.43384403225E+02 -0.85685781182E+02  0.97337876677E+02  0.00000000000E+00 0. -1.
          1    1    1    2  502    0 -0.24170965449E+02 -0.49101311306E+02  0.92492781201E+03  0.92654553680E+03  0.00000000000E+00 0. -1.
         22    1    3    3    0    0  0.52729643692E+02  0.27514259927E+02  0.35326973532E+01  0.59581287111E+02  0.00000000000E+00 0. -1.
         22    1    3    3    0    0 -0.44382795784E+02 -0.21797351846E+02  0.70299587089E+02  0.85947594812E+02  0.00000000000E+00 0. -1.
</event>
<event>
 7    1  0.6103724E-006  0.4875625E+02  0.7818608E-02  0.1473422E+00
          2   -1    0    0  502    0  0.00000000000E+00  0.00000000000E+00  0.20589674383E+04  0.20589674383E+04  0.00000000000E+00 0. -1.
          1   -1    0    0  501    0 -0.00000000000E+00 -0.00000000000E+00 -0.23320239215E+03  0.23320239215E+03  0.00000000000E+00 0. -1.
         25    2    1    2    0    0 -0.85622594039E+02 -0.25446581143E+02  0.11838980905E+03  0.19396189848E+03  0.12500525618E+03 0.  0.
          2    1    1    2  501    0  0.47111708245E+02  0.91779240752E+01 -0.19223565781E+03  0.19813706235E+03  0.00000000000E+00 0. -1.
          1    1    1    2  502    0  0.38510885794E+02  0.16268657068E+02  0.18996108949E+04  0.19000708696E+04  0.00000000000E+00 0. -1.
         22    1    3    3    0    0 -0.51709527720E+02  0.13149041330E+02 -0.11235892803E+02  0.54525387041E+02  0.00000000000E+00 0.  1.
         22    1    3    3    0    0 -0.33913066319E+02 -0.38595622473E+02  0.12962570185E+03  0.13943651144E+03  0.00000000000E+00 0.  1.
</event>
<event>
 7    1  0.6103724E-006  0.7143060E+02  0.7818608E-02  0.1508189E+00
          2   -1    0    0  502    0  0.00000000000E+00  0.00000000000E+00  0.43579375031E+02  0.43579375031E+02  0.00000000000E+00 0. -1.
          1   -1    0    0  501    0 -0.00000000000E+00 -0.00000000000E+00 -0.57604870613E+03  0.57604870613E+03  0.00000000000E+00 0. -1.
         25    2    1    2    0    0  0.40998021198E+01 -0.59829337077E+02 -0.16884102840E+03  0.21846926960E+03  0.12500068374E+03 0.  0.
          2    1    1    2  501    0  0.17806033183E+02 -0.13595316311E+02 -0.30199315946E+03  0.30282297767E+03  0.00000000000E+00 0. -1.
          1    1    1    2  502    0 -0.21905835303E+02  0.73424653388E+02 -0.61635143233E+02  0.98335833890E+02  0.00000000000E+00 0. -1.
         22    1    3    3    0    0 -0.58304852514E+02 -0.42784696757E+02 -0.72321853703E+02  0.10227627597E+03  0.00000000000E+00 0.  1.
         22    1    3    3    0    0  0.62404654634E+02 -0.17044640320E+02 -0.96519174701E+02  0.11619299363E+03  0.00000000000E+00 0.  1.
</event>
<event>
 7    1  0.6103724E-006  0.9923563E+02  0.7818608E-02  0.1302549E+00
          2   -1    0    0  502    0  0.00000000000E+00  0.00000000000E+00  0.92088722422E+03  0.92088722422E+03  0.00000000000E+00 0. -1.
          1   -1    0    0  501    0 -0.00000000000E+00 -0.00000000000E+00 -0.20417877910E+03  0.20417877910E+03  0.00000000000E+00 0. -1.
         25    2    1    2    0    0  0.38683092070E+02  0.16452678326E+03  0.11236302930E+03  0.23836125200E+03  0.12500076832E+03 0.  0.
          2    1    1    2  501    0 -0.44605081473E+02 -0.68628903001E+02 -0.12589886138E+03  0.15016678367E+03  0.00000000000E+00 0. -1.
          1    1    1    2  502    0  0.59219894032E+01 -0.95897880260E+02  0.73024427721E+03  0.73653796765E+03  0.00000000000E+00 0. -1.
         22    1    3    3    0    0  0.30422011385E+02 -0.10513830263E+02  0.42710852520E+01  0.32469702381E+02  0.00000000000E+00 0. -1.
         22    1    3    3    0    0  0.82610806855E+01  0.17504061352E+03  0.10809194404E+03  0.20589154962E+03  0.00000000000E+00 0. -1.
</event>
<event>
 7    1  0.6103724E-006  0.8626129E+02  0.7818608E-02  0.1337320E+00
          2   -1    0    0  502    0  0.00000000000E+00  0.00000000000E+00  0.17703349714E+03  0.17703349714E+03  0.00000000000E+00 0. -1.
          1   -1    0    0  501    0 -0.00000000000E+00 -0.00000000000E+00 -0.17558852141E+04  0.17558852141E+04  0.00000000000E+00 0. -1.
         25    2    1    2    0    0  0.53700637073E+02  0.34115710788E+00 -0.10546486994E+03  0.17213863396E+03  0.12499998280E+03 0.  0.
          2    1    1    2  501    0 -0.54435318409E+02 -0.69350268199E+02 -0.16075191260E+04  0.16099349068E+04  0.00000000000E+00 0. -1.
          1    1    1    2  502    0  0.73468133672E+00  0.69009111091E+02  0.13413227903E+03  0.15084517045E+03  0.00000000000E+00 0. -1.
         22    1    3    3    0    0 -0.74425874914E+00 -0.49446839646E+02 -0.83093851696E+01  0.50145685298E+02  0.00000000000E+00 0. -1.
         22    1    3    3    0    0  0.54444895822E+02  0.49787996754E+02 -0.97155484772E+02  0.12199294866E+03  0.00000000000E+00 0. -1.
</event>
<event>
 7    1  0.6103724E-006  0.1168364E+03  0.7818608E-02  0.1366753E+00
          2   -1    0    0  502    0  0.00000000000E+00  0.00000000000E+00  0.13578533779E+04  0.13578533779E+04  0.00000000000E+00 0. -1.
          1   -1    0    0  501    0 -0.00000000000E+00 -0.00000000000E+00 -0.11711288635E+03  0.11711288635E+03  0.00000000000E+00 0. -1.
         25    2    1    2    0    0  0.18668348226E+02 -0.10658998945E+03  0.35242661787E+03  0.38928093197E+03  0.12500075974E+03 0.  0.
          2    1    1    2  501    0 -0.58165466837E+02  0.10291366914E+03 -0.62721945896E+02  0.13382259647E+03  0.00000000000E+00 0. -1.
          1    1    1    2  502    0  0.39497118611E+02  0.36763203059E+01  0.95103581962E+03  0.95186273586E+03  0.00000000000E+00 0. -1.
         22    1    3    3    0    0 -0.89922273797E+01 -0.87708026763E+02  0.94708146997E+02  0.12939548377E+03  0.00000000000E+00 0.  1.
         22    1    3    3    0    0  0.27660575605E+02 -0.18881962686E+02  0.25771847087E+03  0.25988544820E+03  0.00000000000E+00 0.  1.
</event>
<event>
 7    1  0.6103724E-006  0.1266054E+03  0.7818608E-02  0.1400421E+00
          2   -1    0    0  502    0  0.00000000000E+00  0.00000000000E+00  0.26964036522E+03  0.26964036522E+03  0.00000000000E+00 0. -1.
          1   -1    0    0  501    0 -0.00000000000E+00 -0.00000000000E+00 -0.10706305333E+04  0.10706305333E+04  0.00000000000E+00 0. -1.
         25    2    1    2    0    0 -0.14036753248E+03 -0.59748976718E+02 -0.67885051052E+02  0.20857974433E+03  0.12499658074E+03 0.  0.
          2    1    1    2  501    0  0.11341933934E+03  0.52691425588E+02 -0.92720567584E+03  0.93560178398E+03  0.00000000000E+00 0. -1.
          1    1    1    2  502    0  0.26948193142E+02  0.70575511303E+01  0.19410055886E+03  0.19608937017E+03  0.00000000000E+00 0. -1.
         22    1    3    3    0    0 -0.12776907383E+03 -0.21594029826E+02  0.13162492022E+00  0.12958107762E+03  0.00000000000E+00 0. -1.
         22    1    3    3    0    0 -0.12598458650E+02 -0.38154946892E+02 -0.68016675972E+02  0.78998666717E+02  0.00000000000E+00 0. -1.
</event>
<event>
 7    1  0.6103724E-006  0.1938388E+03  0.7818608E-02  0.1260564E+00
          2   -1    0    0  502    0  0.00000000000E+00  0.00000000000E+00  0.11938904750E+04  0.11938904750E+04  0.00000000000E+00 0. -1.
          1   -1    0    0  501    0 -0.00000000000E+00 -0.00000000000E+00 -0.13328835709E+04  0.13328835709E+04  0.00000000000E+00 0. -1.
         25    2    1    2    0    0 -0.50907078208E+02  0.18396275431E+03 -0.34733543381E+03  0.41557234994E+03  0.12499859548E+03 0.  0.
          2    1    1    2  501    0 -0.10197375595E+02 -0.19674322585E+03 -0.94037476524E+03  0.96078956202E+03  0.00000000000E+00 0. -1.
          1    1    1    2  502    0  0.61104453803E+02  0.12780471546E+02  0.11487171032E+04  0.11504121339E+04  0.00000000000E+00 0. -1.
         22    1    3    3    0    0 -0.23515659215E+02  0.86758022002E+01 -0.14205743228E+03  0.14425175853E+03  0.00000000000E+00 0. -1.
         22    1    3    3    0    0 -0.27391418993E+02  0.17528695211E+03 -0.20527800153E+03  0.27132059141E+03  0.00000000000E+00 0. -1.
</event>
<event>
 7    1  0.6103724E-006  0.2310887E+03  0.7818608E-02  0.1164954E+00
          2   -1    0    0  502    0  0.00000000000E+00  0.00000000000E+00  0.48132088522E+03  0.48132088522E+03  0.00000000000E+00 0. -1.
          1   -1    0    0  501    0 -0.00000000000E+00 -0.00000000000E+00 -0.24358908006E+04  0.24358908006E+04  0.00000000000E+00 0. -1.
         25    2    1    2    0    0  0.35452738378E+03  0.25071716432E+02 -0.14033684357E+04  0.14530609996E+04  0.12500018131E+03 0.  0.
          2    1    1    2  501    0 -0.12931854604E+03 -0.65319963597E+02 -0.97330875526E+03  0.98403247765E+03  0.00000000000E+00 0. -1.
          1    1    1    2  502    0 -0.22520883774E+03  0.40248247166E+02  0.42210727567E+03  0.48011820853E+03  0.00000000000E+00 0. -1.
         22    1    3    3    0    0  0.10657246205E+03 -0.21050725721E+01 -0.67015127192E+03  0.67857560246E+03  0.00000000000E+00 0.  1.
         22    1    3    3    0    0  0.24795492173E+03  0.27176789004E+02 -0.73321716380E+03  0.77448539713E+03  0.00000000000E+00 0.  1.
</event>
<event>
 7    1  0.6103724E-006  0.6845571E+02  0.7818608E-02  0.1414251E+00
          2   -1    0    0  502    0  0.00000000000E+00  0.00000000000E+00  0.35853264042E+04  0.35853264042E+04  0.00000000000E+00 0. -1.
          1   -1    0    0  501    0 -0.00000000000E+00 -0.00000000000E+00 -0.12311739213E+04  0.12311739213E+04  0.00000000000E+00 0. -1.
         25    2    1    2    0    0 -0.37584618390E+02  0.40626953376E+02  0.15238388746E+04  0.15299595835E+04  0.12501303460E+03 0.  0.
          2    1    1    2  501    0  0.68209876892E+02 -0.59956172377E+01 -0.12268992551E+04  0.12288084948E+04  0.00000000000E+00 0. -1.
          1    1    1    2  502    0 -0.30625258502E+02 -0.34631336138E+02  0.20572128634E+04  0.20577322472E+04  0.00000000000E+00 0. -1.
         22    1    3    3    0    0 -0.78855794277E+02  0.89396798875E+01  0.70117580601E+03  0.70565265188E+03  0.00000000000E+00 0. -1.
         22    1    3    3    0    0  0.41271175886E+02  0.31687273489E+02  0.82266306854E+03  0.82430693167E+03  0.00000000000E+00 0. -1.
</event>
<event>
 7    1  0.6103724E-006  0.1113319E+03  0.7818608E-02  0.1357250E+00
          2   -1    0    0  502    0  0.00000000000E+00  0.00000000000E+00  0.89508604968E+03  0.89508604968E+03  0.00000000000E+00 0. -1.
          1   -1    0    0  501    0 -0.00000000000E+00 -0.00000000000E+00 -0.37561055795E+03  0.37561055795E+03  0.00000000000E+00 0. -1.
         25    2    1    2    0    0 -0.59147382153E+02  0.39623542208E+02  0.14792373445E+03  0.20634785734E+03  0.12501827508E+03 0.  0.
          2    1    1    2  501    0  0.10378028686E+03 -0.45948704003E+02 -0.33636547743E+03  0.35499769823E+03  0.00000000000E+00 0. -1.
          1    1    1    2  502    0 -0.44632904707E+02  0.63251617950E+01  0.70791723472E+03  0.70935105206E+03  0.00000000000E+00 0. -1.
         22    1    3    3    0    0 -0.82313348138E+02  0.64715203802E+02  0.13249433255E+03  0.16887360079E+03  0.00000000000E+00 0. -1.
         22    1    3    3    0    0  0.23165965985E+02 -0.25091661594E+02  0.15429401896E+02  0.37474256556E+02  0.00000000000E+00 0. -1.
</event>
<event>
 7    1  0.6103724E-006  0.1041568E+03  0.7818608E-02  0.1310448E+00
          2   -1    0    0  502    0  0.00000000000E+00  0.00000000000E+00  0.39929019284E+03  0.39929019284E+03  0.00000000000E+00 0. -1.
          1   -1    0    0  501    0 -0.00000000000E+00 -0.00000000000E+00 -0.72882986857E+03  0.72882986857E+03  0.00000000000E+00 0. -1.
         25    2    1    2    0    0 -0.93333560485E+02  0.10584996723E+03  0.17415072367E+03  0.25664643122E+03  0.12499418798E+03 0.  0.
          2    1    1    2  501    0  0.20892246641E+02 -0.10168831612E+03 -0.67630604484E+03  0.68422720341E+03  0.00000000000E+00 0. -1.
          1    1    1    2  502    0  0.72441313845E+02 -0.41616511024E+01  0.17261564544E+03  0.18724642678E+03  0.00000000000E+00 0. -1.
         22    1    3    3    0    0 -0.75518876669E+02  0.23117614873E+02  0.21086409677E+02  0.81744489257E+02  0.00000000000E+00 0. -1.
         22    1    3    3    0    0 -0.17814683816E+02  0.82732352352E+02  0.15306431399E+03  0.17490194197E+03  0.00000000000E+00 0. -1.
</event>
<event>
 7    1  0.6103724E-006  0.9837892E+02  0.7818608E-02  0.1326573E+00
          2   -1    0    0  502    0  0.00000000000E+00  0.00000000000E+00  0.30651795927E+03  0.30651795927E+03  0.00000000000E+00 0. -1.
          1   -1    0    0  501    0 -0.00000000000E+00 -0.00000000000E+00 -0.48959141776E+03  0.48959141776E+03  0.00000000000E+00 0. -1.
         25    2    1    2    0    0  0.30540771786E+02  0.14875317361E+03 -0.80894605514E+02  0.21267082136E+03  0.12499878262E+03 0.  0.
          2    1    1    2  501    0  0.62683287620E+01 -0.93377862491E+02 -0.33161149434E+03  0.34456479844E+03  0.00000000000E+00 0. -1.
          1    1    1    2  502    0 -0.36809100548E+02 -0.55375311121E+02  0.22943264136E+03  0.23887375722E+03  0.00000000000E+00 0. -1.
         22    1    3    3    0    0  0.78470134085E+02  0.76145916271E+02 -0.38804113855E+02  0.11602379825E+03  0.00000000000E+00 0.  1.
         22    1    3    3    0    0 -0.47929362299E+02  0.72607257342E+02 -0.42090491659E+02  0.96647023116E+02  0.00000000000E+00 0.  1.
</event>
<event>
 7    1  0.9804842E-006  0.5855529E+02  0.7818608E-02  0.1428806E+00
          2   -1    0    0  502    0  0.00000000000E+00  0.00000000000E+00  0.21355356137E+04  0.21355356137E+04  0.00000000000E+00 0. -1.
          1   -1    0    0  501    0 -0.00000000000E+00 -0.00000000000E+00 -0.10506259558E+04  0.10506259558E+04  0.00000000000E+00 0. -1.
         25    2    1    2    0    0 -0.12791331717E+02 -0.48652672590E+01 -0.26919632992E+03  0.29711873711E+03  0.12500236360E+03 0.  0.
          2    1    1    2  501    0 -0.18747688017E+02 -0.44551205157E+02 -0.76630186840E+03  0.76782474510E+03  0.00000000000E+00 0. -1.
          1    1    1    2  502    0  0.31539019734E+02  0.49416472416E+02  0.21204078562E+04  0.21212180874E+04  0.00000000000E+00 0. -1.
         22    1    3    3    0    0  0.41451027595E+02 -0.10101877566E+02 -0.30920371808E+02  0.52690653932E+02  0.00000000000E+00 0. -1.
         22    1    3    3    0    0 -0.54242359312E+02  0.52366103071E+01 -0.23827595811E+03  0.24442808317E+03  0.00000000000E+00 0. -1.
</event>
<event>
 7    1  0.6103724E-006  0.4384059E+02  0.7818608E-02  0.1557514E+00
          2   -1    0    0  502    0  0.00000000000E+00  0.00000000000E+00  0.18394293477E+04  0.18394293477E+04  0.00000000000E+00 0. -1.
          1   -1    0    0  501    0 -0.00000000000E+00 -0.00000000000E+00 -0.79655576265E+02  0.79655576265E+02  0.00000000000E+00 0. -1.
         25    2    1    2    0    0 -0.51043004954E+02 -0.19231835905E+02  0.90251367066E+01  0.13668078505E+03  0.12499972817E+03 0.  0.
          2    1    1    2  501    0  0.41109303585E+02 -0.52209326635E+01  0.11568827538E+02  0.43024071747E+02  0.00000000000E+00 0. -1.
          1    1    1    2  502    0  0.99337013693E+01  0.24452768569E+02  0.17391798072E+04  0.17393800672E+04  0.00000000000E+00 0. -1.
         22    1    3    3    0    0 -0.13773698828E+02 -0.21314417531E+02  0.64786126449E+02  0.69579173280E+02  0.00000000000E+00 0. -1.
         22    1    3    3    0    0 -0.37269306126E+02  0.20825816253E+01 -0.55760989742E+02  0.67101611772E+02  0.00000000000E+00 0. -1.
</event>
<event>
 7    1  0.6103724E-006  0.4580805E+03  0.7818608E-02  0.1147761E+00
          2   -1    0    0  502    0  0.00000000000E+00  0.00000000000E+00  0.30880497199E+04  0.30880497199E+04  0.00000000000E+00 0. -1.
          1   -1    0    0  501    0 -0.00000000000E+00 -0.00000000000E+00 -0.12559019177E+04  0.12559019177E+04  0.00000000000E+00 0. -1.
         25    2    1    2    0    0  0.39306053850E+03 -0.10980620597E+03  0.10523375022E+04  0.11356014292E+04  0.12498959076E+03 0.  0.
          2    1    1    2  501    0  0.89375034178E+02 -0.19122257913E+01 -0.11818116513E+04  0.11851878891E+04  0.00000000000E+00 0. -1.
          1    1    1    2  502    0 -0.48243557268E+03  0.11171843176E+03  0.19616219513E+04  0.20231623192E+04  0.00000000000E+00 0. -1.
         22    1    3    3    0    0  0.18374868418E+03 -0.12755953419E+02  0.33799178651E+03  0.38492173365E+03  0.00000000000E+00 0.  1.
         22    1    3    3    0    0  0.20931185433E+03 -0.97050252550E+02  0.71434571565E+03  0.75067969557E+03  0.00000000000E+00 0.  1.
</event>
<event>
 7    1  0.6103724E-006  0.1166899E+03  0.7818608E-02  0.1284386E+00
          2   -1    0    0  502    0  0.00000000000E+00  0.00000000000E+00  0.84191434131E+03  0.84191434131E+03  0.00000000000E+00 0. -1.
          1   -1    0    0  501    0 -0.00000000000E+00 -0.00000000000E+00 -0.52242474849E+03  0.52242474849E+03  0.00000000000E+00 0. -1.
         25    2    1    2    0    0  0.83177309054E+01 -0.72429424552E+02 -0.19993990484E+03  0.24681535788E+03  0.12500659642E+03 0.  0.
          2    1    1    2  501    0 -0.64635754173E+00  0.15450980935E+03 -0.27681784715E+03  0.31702021933E+03  0.00000000000E+00 0. -1.
          1    1    1    2  502    0 -0.76713733637E+01 -0.82080384795E+02  0.79624734482E+03  0.80050351259E+03  0.00000000000E+00 0. -1.
         22    1    3    3    0    0 -0.55214340719E+02 -0.55924025933E+02 -0.98843791795E+02  0.12627832464E+03  0.00000000000E+00 0.  1.
         22    1    3    3    0    0  0.63532071625E+02 -0.16505398619E+02 -0.10109611305E+03  0.12053703324E+03  0.00000000000E+00 0.  1.
</event>
<event>
 7    1  0.6103724E-006  0.9940374E+02  0.7818608E-02  0.1354060E+00
          2   -1    0    0  502    0  0.00000000000E+00  0.00000000000E+00  0.24950026447E+03  0.24950026447E+03  0.00000000000E+00 0. -1.
          1   -1    0    0  501    0 -0.00000000000E+00 -0.00000000000E+00 -0.17367396476E+04  0.17367396476E+04  0.00000000000E+00 0. -1.
         25    2    1    2    0    0  0.50206307695E+02  0.17806488339E+02 -0.23639181710E+03  0.27266148456E+03  0.12500179843E+03 0.  0.
          2    1    1    2  501    0  0.50966549199E+02 -0.96341923306E+01 -0.14706011969E+04  0.14715156429E+04  0.00000000000E+00 0. -1.
          1    1    1    2  502    0 -0.10117285689E+03 -0.81722960083E+01  0.21975363092E+03  0.24206278462E+03  0.00000000000E+00 0. -1.
         22    1    3    3    0    0 -0.22101892095E+02 -0.32615441875E+02 -0.12225185215E+03  0.12844366873E+03  0.00000000000E+00 0.  1.
         22    1    3    3    0    0  0.72308199791E+02  0.50421930214E+02 -0.11413996495E+03  0.14421781583E+03  0.00000000000E+00 0.  1.
</event>
<event>
 7    1  0.6103724E-006  0.1189694E+03  0.7818608E-02  0.1271168E+00
          2   -1    0    0  502    0  0.00000000000E+00  0.00000000000E+00  0.81453574723E+02  0.81453574723E+02  0.00000000000E+00 0. -1.
          1   -1    0    0  501    0 -0.00000000000E+00 -0.00000000000E+00 -0.80081353179E+03  0.80081353179E+03  0.00000000000E+00 0. -1.
         25    2    1    2    0    0  0.21229899707E+02 -0.53437832611E+02 -0.18819929503E+03  0.23313935386E+03  0.12501469144E+03 0.  0.
          2    1    1    2  501    0  0.16910842589E+02 -0.90165360983E+02 -0.48491346868E+03  0.49351478298E+03  0.00000000000E+00 0. -1.
          1    1    1    2  502    0 -0.38140742296E+02  0.14360319359E+03 -0.46247193358E+02  0.15561296966E+03  0.00000000000E+00 0. -1.
         22    1    3    3    0    0  0.47913751016E+02  0.13449027962E+02 -0.13419753785E+03  0.14312785562E+03  0.00000000000E+00 0.  1.
         22    1    3    3    0    0 -0.26683851309E+02 -0.66886860573E+02 -0.54001757182E+02  0.90011498248E+02  0.00000000000E+00 0.  1.
</event>
<event>
 7    1  0.6103724E-006  0.8228425E+02  0.7818608E-02  0.1353963E+00
          2   -1    0    0  502    0  0.00000000000E+00  0.00000000000E+00  0.15197475980E+04  0.15197475980E+04  0.00000000000E+00 0. -1.
          1   -1    0    0  501    0 -0.00000000000E+00 -0.00000000000E+00 -0.87313122543E+02  0.87313122543E+02  0.00000000000E+00 0. -1.
         25    2    1    2    0    0 -0.52780159389E+02 -0.93769331651E+01  0.35828423413E+02  0.14065117040E+03  0.12500161483E+03 0.  0.
          2    1    1    2  501    0  0.10564945016E+03  0.43105927563E+02  0.61103806485E+02  0.12943570789E+03  0.00000000000E+00 0. -1.
          1    1    1    2  502    0 -0.52869290775E+02 -0.33728994398E+02  0.13355022455E+04  0.13369738422E+04  0.00000000000E+00 0. -1.
         22    1    3    3    0    0 -0.40537307164E+02  0.35650971203E+02 -0.28606146494E+02  0.61094816777E+02  0.00000000000E+00 0.  1.
         22    1    3    3    0    0 -0.12242852225E+02 -0.45027904368E+02  0.64434569907E+02  0.79556353621E+02  0.00000000000E+00 0.  1.
</event>
<event>
 7    1  0.6103724E-006  0.1137607E+03  0.7818608E-02  0.1281447E+00
          2   -1    0    0  502    0  0.00000000000E+00  0.00000000000E+00  0.10689294588E+04  0.10689294588E+04  0.00000000000E+00 0. -1.
          1   -1    0    0  501    0 -0.00000000000E+00 -0.00000000000E+00 -0.21978924787E+03  0.21978924787E+03  0.00000000000E+00 0. -1.
         25    2    1    2    0    0  0.41596511595E+02  0.19411001743E+03  0.60093528879E+03  0.64510228539E+03  0.12499907461E+03 0.  0.
          2    1    1    2  501    0 -0.23052595205E+02 -0.10916310645E+03 -0.17720994135E+03  0.20940718533E+03  0.00000000000E+00 0. -1.
          1    1    1    2  502    0 -0.18543916391E+02 -0.84946910977E+02  0.42541486350E+03  0.43420923597E+03  0.00000000000E+00 0. -1.
         22    1    3    3    0    0  0.84616520269E+02  0.15091017434E+03  0.46405925831E+03  0.49526238646E+03  0.00000000000E+00 0.  1.
         22    1    3    3    0    0 -0.43020008674E+02  0.43199843081E+02  0.13687603048E+03  0.14983989892E+03  0.00000000000E+00 0.  1.
</event>
<event>
 7    1  0.6103724E-006  0.6528524E+02  0.7818608E-02  0.1399289E+00
          2   -1    0    0  502    0  0.00000000000E+00  0.00000000000E+00  0.52145400768E+03  0.52145400768E+03  0.00000000000E+00 0. -1.
          1   -1    0    0  501    0 -0.00000000000E+00 -0.00000000000E+00 -0.13051998748E+03  0.13051998748E+03  0.00000000000E+00 0. -1.
         25    2    1    2    0    0 -0.89347048607E+02  0.49577822625E+02  0.12302821897E+03  0.20298201901E+03  0.12499960714E+03 0.  0.
          2    1    1    2  501    0  0.34942937271E+02 -0.52949543193E+02 -0.77021292020E+02  0.99784479825E+02  0.00000000000E+00 0. -1.
          1    1    1    2  502    0  0.54404111336E+02  0.33717205685E+01  0.34492709326E+03  0.34920749633E+03  0.00000000000E+00 0. -1.
         22    1    3    3    0    0 -0.11392765228E+03  0.64785638646E+02  0.89446190035E+02  0.15867359529E+03  0.00000000000E+00 0.  1.
         22    1    3    3    0    0  0.24580603675E+02 -0.15207816021E+02  0.33582028937E+02  0.44308423722E+02  0.00000000000E+00 0.  1.
</event>
<event>
 7    1  0.6103724E-006  0.2870470E+02  0.7818608E-02  0.1614449E+00
          2   -1    0    0  502    0  0.00000000000E+00  0.00000000000E+00  0.10396529978E+04  0.10396529978E+04  0.00000000000E+00 0. -1.
          1   -1    0    0  501    0 -0.00000000000E+00 -0.00000000000E+00 -0.14375539580E+03  0.14375539580E+03  0.00000000000E+00 0. -1.
         25    2    1    2    0    0 -0.16658347479E+01  0.15029496458E+02  0.54130610516E+02  0.13705932348E+03  0.12500589742E+03 0.  0.
          2    1    1    2  501    0  0.28191885540E+02 -0.37256884147E+01 -0.10008975754E+03  0.10405105828E+03  0.00000000000E+00 0. -1.
          1    1    1    2  502    0 -0.26526050792E+02 -0.11303808043E+02  0.94185674900E+03  0.94229801183E+03  0.00000000000E+00 0. -1.
         22    1    3    3    0    0 -0.32847907721E+02  0.48528145267E+02  0.67493240454E+02  0.89382903464E+02  0.00000000000E+00 0. -1.
         22    1    3    3    0    0  0.31182072973E+02 -0.33498648810E+02 -0.13362629938E+02  0.47676420019E+02  0.00000000000E+00 0. -1.
</event>
<event>
 7    1  0.6103724E-006  0.7273266E+02  0.7818608E-02  0.1496289E+00
          2   -1    0    0  502    0  0.00000000000E+00  0.00000000000E+00  0.44607473873E+03  0.44607473873E+03  0.00000000000E+00 0. -1.
          1   -1    0    0  501    0 -0.00000000000E+00 -0.00000000000E+00 -0.16936467876E+03  0.16936467876E+03  0.00000000000E+00 0. -1.
         25    2    1    2    0    0  0.75135029135E+01 -0.90914566934E+02  0.52212384777E+02  0.16331729201E+03  0.12499797414E+03 0.  0.
          2    1    1    2  501    0 -0.16780990896E+02  0.68916666186E+02 -0.10228312069E+03  0.12447066045E+03  0.00000000000E+00 0. -1.
          1    1    1    2  502    0  0.92674879826E+01  0.21997900748E+02  0.32678079589E+03  0.32765146503E+03  0.00000000000E+00 0. -1.
         22    1    3    3    0    0 -0.54657391314E+02 -0.67066757186E+02  0.41192340201E+02  0.95823740460E+02  0.00000000000E+00 0.  1.
         22    1    3    3    0    0  0.62170894227E+02 -0.23847809749E+02  0.11020044576E+02  0.67493551553E+02  0.00000000000E+00 0.  1.
</event>
<event>
 7    1  0.6103724E-006  0.6207926E+02  0.7818608E-02  0.1489371E+00
          2   -1    0    0  502    0  0.00000000000E+00  0.00000000000E+00  0.63556145840E+03  0.63556145840E+03  0.00000000000E+00 0. -1.
          1   -1    0    0  501    0 -0.00000000000E+00 -0.00000000000E+00 -0.60768291013E+02  0.60768291013E+02  0.00000000000E+00 0. -1.
         25    2    1    2    0    0 -0.27780053086E+02 -0.22772532946E+02  0.52332057064E+02  0.14015260625E+03  0.12495514890E+03 0.  0.
          2    1    1    2  501    0 -0.28834279379E+02 -0.54356468591E+01 -0.55766550976E+00  0.29347451591E+02  0.00000000000E+00 0. -1.
          1    1    1    2  502    0  0.56614332465E+02  0.28208179805E+02  0.52301877583E+03  0.52682969157E+03  0.00000000000E+00 0. -1.
         22    1    3    3    0    0 -0.39474321948E+02 -0.68895940219E+02  0.17838165426E+02  0.81382263533E+02  0.00000000000E+00 0. -1.
         22    1    3    3    0    0  0.11694268862E+02  0.46123407274E+02  0.34493891638E+02  0.58770342717E+02  0.00000000000E+00 0. -1.
</event>
<event>
 7    1  0.6103724E-006  0.1227163E+03  0.7818608E-02  0.1424197E+00
          2   -1    0    0  502    0  0.00000000000E+00  0.00000000000E+00  0.11131200249E+04  0.11131200249E+04  0.00000000000E+00 0. -1.
          1   -1    0    0  501    0 -0.00000000000E+00 -0.00000000000E+00 -0.53866220401E+02  0.53866220401E+02  0.00000000000E+00 0. -1.
         25    2    1    2    0    0  0.10587352231E+03 -0.45495717582E+02  0.78354812737E+03  0.80178048706E+03  0.12500087390E+03 0.  0.
          2    1    1    2  501    0 -0.10260306303E+03  0.69158746459E+02  0.42575404550E+02  0.13085482730E+03  0.00000000000E+00 0. -1.
          1    1    1    2  502    0 -0.32704592757E+01 -0.23663028877E+02  0.23313027258E+03  0.23435093094E+03  0.00000000000E+00 0. -1.
         22    1    3    3    0    0  0.10674769053E+02 -0.66370590823E+02  0.42227245942E+03  0.42758979876E+03  0.00000000000E+00 0. -1.
         22    1    3    3    0    0  0.95198753258E+02  0.20874873241E+02  0.36127566795E+03  0.37419068830E+03  0.00000000000E+00 0. -1.
</event>
<event>
 7    1  0.6103724E-006  0.4110483E+02  0.7818608E-02  0.1537541E+00
          2   -1    0    0  502    0  0.00000000000E+00  0.00000000000E+00  0.77561904788E+03  0.77561904788E+03  0.00000000000E+00 0. -1.
          1   -1    0    0  501    0 -0.00000000000E+00 -0.00000000000E+00 -0.20958902537E+03  0.20958902537E+03  0.00000000000E+00 0. -1.
         25    2    1    2    0    0 -0.50584560605E+02  0.49948262928E+02  0.25195673399E+03  0.29010203469E+03  0.12499347179E+03 0.  0.
          2    1    1    2  501    0  0.26229872782E+02 -0.18359654471E+02 -0.18837525793E+03  0.19107674096E+03  0.00000000000E+00 0. -1.
          1    1    1    2  502    0  0.24354687823E+02 -0.31588608457E+02  0.50244854645E+03  0.50402929760E+03  0.00000000000E+00 0. -1.
         22    1    3    3    0    0 -0.75988238532E+02 -0.89857417316E+01  0.16640960204E+03  0.18315870605E+03  0.00000000000E+00 0.  1.
         22    1    3    3    0    0  0.25403677927E+02  0.58934004659E+02  0.85547131948E+02  0.10694332865E+03  0.00000000000E+00 0.  1.
</event>
<event>
 7    1  0.6103724E-006  0.2175085E+03  0.7818608E-02  0.1174003E+00
          2   -1    0    0  502    0  0.00000000000E+00  0.00000000000E+00  0.53429009799E+03  0.53429009799E+03  0.00000000000E+00 0. -1.
          1   -1    0    0  501    0 -0.00000000000E+00 -0.00000000000E+00 -0.32363619549E+03  0.32363619549E+03  0.00000000000E+00 0. -1.
         25    2    1    2    0    0 -0.68858680831E+02  0.10598340383E+03  0.78263306481E+02  0.19422817575E+03  0.12500175719E+03 0.  0.
          2    1    1    2  501    0  0.16302392338E+03 -0.20792555327E+03 -0.18146483620E+03  0.32052975224E+03  0.00000000000E+00 0. -1.
          1    1    1    2  502    0 -0.94165242549E+02  0.10194214944E+03  0.31385543222E+03  0.34316836549E+03  0.00000000000E+00 0. -1.
         22    1    3    3    0    0 -0.16557151722E+02  0.12195697792E+03  0.54291564113E+02  0.13451846591E+03  0.00000000000E+00 0. -1.
         22    1    3    3    0    0 -0.52301529109E+02 -0.15973574093E+02  0.23971742368E+02  0.59709709835E+02  0.00000000000E+00 0. -1.
</event>
<event>
 7    1  0.6103724E-006  0.6506671E+02  0.7818608E-02  0.1399384E+00
          2   -1    0    0  502    0  0.00000000000E+00  0.00000000000E+00  0.35443724080E+03  0.35443724080E+03  0.00000000000E+00 0. -1.
          1   -1    0    0  501    0 -0.00000000000E+00 -0.00000000000E+00 -0.17015595019E+03  0.17015595019E+03  0.00000000000E+00 0. -1.
         25    2    1    2    0    0 -0.26520330028E+01  0.18574297631E+02 -0.51175217835E+02  0.13636960614E+03  0.12500291496E+03 0.  0.
          2    1    1    2  501    0  0.40162768576E+02  0.37062631239E+02 -0.62373345506E+02  0.82928407941E+02  0.00000000000E+00 0. -1.
          1    1    1    2  502    0 -0.37510735573E+02 -0.55636928869E+02  0.29782985395E+03  0.30529517691E+03  0.00000000000E+00 0. -1.
         22    1    3    3    0    0  0.42978835760E+02 -0.15254441676E+01 -0.70756526803E+02  0.82800926253E+02  0.00000000000E+00 0.  1.
         22    1    3    3    0    0 -0.45630868763E+02  0.20099741798E+02  0.19581308967E+02  0.53568679891E+02  0.00000000000E+00 0.  1.
</event>
<event>
 7    1  0.6103724E-006  0.5203227E+02  0.7818608E-02  0.1489268E+00
          2   -1    0    0  502    0  0.00000000000E+00  0.00000000000E+00  0.89314490437E+03  0.89314490437E+03  0.00000000000E+00 0. -1.
          1   -1    0    0  501    0 -0.00000000000E+00 -0.00000000000E+00 -0.14915889055E+02  0.14915889055E+02  0.00000000000E+00 0. -1.
         25    2    1    2    0    0  0.39215073070E+02  0.25014840032E+02  0.42959090229E+03  0.44981870329E+03  0.12499983328E+03 0.  0.
          2    1    1    2  501    0 -0.20554031214E+02  0.28369689140E+02  0.21641615153E+03  0.21923334168E+03  0.00000000000E+00 0. -1.
          1    1    1    2  502    0 -0.18661041855E+02 -0.53384529172E+02  0.23222196150E+03  0.23900874846E+03  0.00000000000E+00 0. -1.
         22    1    3    3    0    0  0.56331898895E+02  0.64991772507E+02  0.23024100667E+03  0.24578066336E+03  0.00000000000E+00 0.  1.
         22    1    3    3    0    0 -0.17116825825E+02 -0.39976932475E+02  0.19934989562E+03  0.20403803993E+03  0.00000000000E+00 0.  1.
</event>
<event>
 7    1  0.6103724E-006  0.3126360E+02  0.7818608E-02  0.1608070E+00
          2   -1    0    0  502    0  0.00000000000E+00  0.00000000000E+00  0.14350418581E+03  0.14350418581E+03  0.00000000000E+00 0. -1.
          1   -1    0    0  501    0 -0.00000000000E+00 -0.00000000000E+00 -0.17232682773E+03  0.17232682773E+03  0.00000000000E+00 0. -1.
         25    2    1    2    0    0 -0.34830880191E+02  0.25463563410E+02 -0.76864552902E+02  0.15295184904E+03  0.12499810140E+03 0.  0.
          2    1    1    2  501    0  0.30829307459E+02  0.13556623674E+01 -0.51320123652E+02  0.59883546242E+02  0.00000000000E+00 0. -1.
          1    1    1    2  502    0  0.40015727315E+01 -0.26819225778E+02  0.99362034633E+02  0.10299561827E+03  0.00000000000E+00 0. -1.
         22    1    3    3    0    0  0.29561143811E+02 -0.10668103052E+02  0.15221466815E+02  0.34919374252E+02  0.00000000000E+00 0.  1.
         22    1    3    3    0    0 -0.64392024002E+02  0.36131666462E+02 -0.92086019716E+02  0.11803247478E+03  0.00000000000E+00 0.  1.
</event>
<event>
 7    1  0.6103724E-006  0.3986836E+02  0.7818608E-02  0.1532793E+00
          2   -1    0    0  502    0  0.00000000000E+00  0.00000000000E+00  0.10925875078E+03  0.10925875078E+03  0.00000000000E+00 0. -1.
          1   -1    0    0  501    0 -0.00000000000E+00 -0.00000000000E+00 -0.93054794375E+03  0.93054794375E+03  0.00000000000E+00 0. -1.
         25    2    1    2    0    0  0.15505691224E+02  0.50208425005E+01 -0.13934344135E+03  0.18789739690E+03  0.12499280697E+03 0.  0.
          2    1    1    2  501    0 -0.32175311568E+02  0.24672750689E+02 -0.76295618783E+03  0.76403281333E+03  0.00000000000E+00 0. -1.
          1    1    1    2  502    0  0.16669620343E+02 -0.29693593189E+02  0.81010436211E+02  0.87876484306E+02  0.00000000000E+00 0. -1.
         22    1    3    3    0    0 -0.38272841748E+02  0.26882407133E+02 -0.11645496199E+03  0.12549594576E+03  0.00000000000E+00 0.  1.
         22    1    3    3    0    0  0.53778532973E+02 -0.21861564632E+02 -0.22888479355E+02  0.62401451137E+02  0.00000000000E+00 0.  1.
</event>
<event>
 7    1  0.6103724E-006  0.8186792E+02  0.7818608E-02  0.1469279E+00
          2   -1    0    0  502    0  0.00000000000E+00  0.00000000000E+00  0.38981644668E+03  0.38981644668E+03  0.00000000000E+00 0. -1.
          1   -1    0    0  501    0 -0.00000000000E+00 -0.00000000000E+00 -0.11488146534E+04  0.11488146534E+04  0.00000000000E+00 0. -1.
         25    2    1    2    0    0  0.38182505386E+02 -0.48657443699E+02 -0.62515630672E+02  0.15283259149E+03  0.12499658555E+03 0.  0.
          2    1    1    2  501    0 -0.14456336760E+01 -0.25605206379E+02 -0.10360003177E+04  0.10363176997E+04  0.00000000000E+00 0. -1.
          1    1    1    2  502    0 -0.36736871710E+02  0.74262650078E+02  0.33951774161E+03  0.34948080893E+03  0.00000000000E+00 0. -1.
         22    1    3    3    0    0  0.12718561666E+02  0.18622764246E+02  0.28803716362E+02  0.36581733629E+02  0.00000000000E+00 0.  1.
         22    1    3    3    0    0  0.25463943720E+02 -0.67280207945E+02 -0.91319347034E+02  0.11625085786E+03  0.00000000000E+00 0.  1.
</event>
<event>
 7    1  0.6103724E-006  0.2123870E+03  0.7818608E-02  0.1249884E+00
          2   -1    0    0  502    0  0.00000000000E+00  0.00000000000E+00  0.11962414693E+03  0.11962414693E+03  0.00000000000E+00 0. -1.
          1   -1    0    0  501    0 -0.00000000000E+00 -0.00000000000E+00 -0.10190471715E+04  0.10190471715E+04  0.00000000000E+00 0. -1.
         25    2    1    2    0    0 -0.14441795257E+03 -0.11284646038E+03 -0.44671325800E+03  0.49876280334E+03  0.12498292075E+03 0.  0.
          2    1    1    2  501    0  0.17931499731E+03  0.16569653443E+03 -0.50294430730E+03  0.55907261249E+03  0.00000000000E+00 0. -1.
          1    1    1    2  502    0 -0.34897044742E+02 -0.52850074050E+02  0.50234540768E+02  0.80835902574E+02  0.00000000000E+00 0. -1.
         22    1    3    3    0    0 -0.89199507039E+02 -0.12359097017E+03 -0.23816813809E+03  0.28276375645E+03  0.00000000000E+00 0.  1.
         22    1    3    3    0    0 -0.55218445533E+02  0.10744509787E+02 -0.20854511992E+03  0.21599904689E+03  0.00000000000E+00 0.  1.
</event>
<event>
 7    1  0.6103724E-006  0.1228774E+03  0.7818608E-02  0.1271886E+00
          2   -1    0    0  502    0  0.00000000000E+00  0.00000000000E+00  0.10659378037E+04  0.10659378037E+04  0.00000000000E+00 0. -1.
          1   -1    0    0  501    0 -0.00000000000E+00 -0.00000000000E+00 -0.76273216348E+03  0.76273216348E+03  0.00000000000E+00 0. -1.
         25    2    1    2    0    0 -0.49626137170E+02  0.26197021211E+02 -0.47635936807E+02  0.14506011750E+03  0.12499687118E+03 0.  0.
          2    1    1    2  501    0 -0.34361545787E+01  0.88139577733E+02 -0.65953184135E+03  0.66540411937E+03  0.00000000000E+00 0. -1.
          1    1    1    2  502    0  0.53062291748E+02 -0.11433659894E+03  0.10103734183E+04  0.10182057303E+04  0.00000000000E+00 0. -1.
         22    1    3    3    0    0 -0.59125429120E+01  0.23741993290E+02 -0.84408974614E+02  0.87883533182E+02  0.00000000000E+00 0.  1.
         22    1    3    3    0    0 -0.43713594258E+02  0.24550279209E+01  0.36773037807E+02  0.57176584321E+02  0.00000000000E+00 0.  1.
</event>
<event>
 7    1  0.6103724E-006  0.8067536E+02  0.7818608E-02  0.1340265E+00
          2   -1    0    0  502    0  0.00000000000E+00  0.00000000000E+00  0.15896404611E+03  0.15896404611E+03  0.00000000000E+00 0. -1.
          1   -1    0    0  501    0 -0.00000000000E+00 -0.00000000000E+00 -0.18289311973E+04  0.18289311973E+04  0.00000000000E+00 0. -1.
         25    2    1    2    0    0  0.17428323463E+02 -0.44468041731E+02  0.51562502793E+02  0.14340113871E+03  0.12499616673E+03 0.  0.
          2    1    1    2  501    0 -0.80602794076E+02  0.10076510143E+02 -0.17607123746E+04  0.17625851505E+04  0.00000000000E+00 0. -1.
          1    1    1    2  502    0  0.63174470612E+02  0.34391531589E+02  0.39182720656E+02  0.81908954213E+02  0.00000000000E+00 0. -1.
         22    1    3    3    0    0 -0.21445741580E+02 -0.66447871014E+02  0.66388618019E+02  0.96346707244E+02  0.00000000000E+00 0. -1.
         22    1    3    3    0    0  0.38874065043E+02  0.21979829283E+02 -0.14826115226E+02  0.47054431470E+02  0.00000000000E+00 0. -1.
</event>
<event>
 7    1  0.6103724E-006  0.9756108E+02  0.7818608E-02  0.1328514E+00
          2   -1    0    0  502    0  0.00000000000E+00  0.00000000000E+00  0.47289885848E+03  0.47289885848E+03  0.00000000000E+00 0. -1.
          1   -1    0    0  501    0 -0.00000000000E+00 -0.00000000000E+00 -0.16310487462E+03  0.16310487462E+03  0.00000000000E+00 0. -1.
         25    2    1    2    0    0 -0.25296318809E+02 -0.55255730143E+02 -0.30533018252E+02  0.14230331383E+03  0.12499947386E+03 0.  0.
          2    1    1    2  501    0 -0.65171972329E+02  0.98432497910E+01 -0.54860008953E+02  0.85754860656E+02  0.00000000000E+00 0. -1.
          1    1    1    2  502    0  0.90468291138E+02  0.45412480352E+02  0.39518701107E+03  0.40794555861E+03  0.00000000000E+00 0. -1.
         22    1    3    3    0    0  0.47899161444E+02 -0.11783240932E+01 -0.83852380546E+01  0.48641857818E+02  0.00000000000E+00 0. -1.
         22    1    3    3    0    0 -0.73195480253E+02 -0.54077406049E+02 -0.22147780197E+02  0.93661456012E+02  0.00000000000E+00 0. -1.
</event>
<event>
 7    1  0.6103724E-006  0.6594891E+02  0.7818608E-02  0.1422038E+00
          2   -1    0    0  502    0  0.00000000000E+00  0.00000000000E+00  0.15280271404E+04  0.15280271404E+04  0.00000000000E+00 0. -1.
          1   -1    0    0  501    0 -0.00000000000E+00 -0.00000000000E+00 -0.15255684146E+03  0.15255684146E+03  0.00000000000E+00 0. -1.
         25    2    1    2    0    0  0.51906644347E+02  0.90831608078E+02  0.20611113498E+03  0.26277646532E+03  0.12499996003E+03 0.  0.
          2    1    1    2  501    0 -0.35458215127E+02 -0.28016901727E+02 -0.11926952775E+03  0.12754392205E+03  0.00000000000E+00 0. -1.
          1    1    1    2  502    0 -0.16448429220E+02 -0.62814706351E+02  0.12886286917E+04  0.12902635945E+04  0.00000000000E+00 0. -1.
         22    1    3    3    0    0 -0.31855104990E+02  0.98372383311E+00  0.14132572760E+02  0.34863233346E+02  0.00000000000E+00 0.  1.
         22    1    3    3    0    0  0.83761749337E+02  0.89847884245E+02  0.19197856222E+03  0.22791323197E+03  0.00000000000E+00 0.  1.
</event>
<event>
 7    1  0.6103724E-006  0.1015399E+03  0.7818608E-02  0.1314167E+00
          2   -1    0    0  502    0  0.00000000000E+00  0.00000000000E+00  0.95404955145E+02  0.95404955145E+02  0.00000000000E+00 0. -1.
          1   -1    0    0  501    0 -0.00000000000E+00 -0.00000000000E+00 -0.56636955872E+03  0.56636955872E+03  0.00000000000E+00 0. -1.
         25    2    1    2    0    0  0.80706907335E+02  0.31335702989E+02 -0.94559832754E+02  0.17905904740E+03  0.12500019725E+03 0.  0.
          2    1    1    2  501    0 -0.10054983180E+03  0.37844949972E+02 -0.39419977097E+03  0.40857798319E+03  0.00000000000E+00 0. -1.
          1    1    1    2  502    0  0.19842924460E+02 -0.69180652960E+02  0.17795000153E+02  0.74137483270E+02  0.00000000000E+00 0. -1.
         22    1    3    3    0    0  0.26000045489E+02  0.65934782970E+02 -0.85155327382E+01  0.71385658704E+02  0.00000000000E+00 0.  1.
         22    1    3    3    0    0  0.54706861847E+02 -0.34599079982E+02 -0.86044300016E+02  0.10767338870E+03  0.00000000000E+00 0.  1.
</event>
<event>
 7    1  0.6103724E-006  0.6719575E+02  0.7818608E-02  0.1443241E+00
          2   -1    0    0  502    0  0.00000000000E+00  0.00000000000E+00  0.33523274406E+04  0.33523274406E+04  0.00000000000E+00 0. -1.
          1   -1    0    0  501    0 -0.00000000000E+00 -0.00000000000E+00 -0.13455349807E+03  0.13455349807E+03  0.00000000000E+00 0. -1.
         25    2    1    2    0    0 -0.26876806529E+02  0.43101606773E+02  0.81416150075E+02  0.15758795772E+03  0.12500105476E+03 0.  0.
          2    1    1    2  501    0  0.28947244023E+02  0.24292328645E+02 -0.92401189007E+02  0.99830055081E+02  0.00000000000E+00 0. -1.
          1    1    1    2  502    0 -0.20704374943E+01 -0.67393935418E+02  0.32287589815E+04  0.32294629259E+04  0.00000000000E+00 0. -1.
         22    1    3    3    0    0 -0.25798017253E+02  0.54222640174E+02  0.11086978510E+03  0.12608624687E+03  0.00000000000E+00 0. -1.
         22    1    3    3    0    0 -0.10787892761E+01 -0.11121033401E+02 -0.29453635027E+02  0.31501710851E+02  0.00000000000E+00 0. -1.
</event>
<event>
 7    1  0.6103724E-006  0.5193415E+02  0.7818608E-02  0.1486955E+00
          2   -1    0    0  502    0  0.00000000000E+00  0.00000000000E+00  0.12322306608E+04  0.12322306608E+04  0.00000000000E+00 0. -1.
          1   -1    0    0  501    0 -0.00000000000E+00 -0.00000000000E+00 -0.39608011707E+02  0.39608011707E+02  0.00000000000E+00 0. -1.
         25    2    1    2    0    0 -0.19628044111E+01 -0.57661407861E+02  0.68601347173E+03  0.69969220992E+03  0.12500405858E+03 0.  0.
          2    1    1    2  501    0  0.33096240948E+02  0.40251420209E+02 -0.11041900416E+02  0.53267828551E+02  0.00000000000E+00 0. -1.
          1    1    1    2  502    0 -0.31133436537E+02  0.17409987652E+02  0.51765107774E+03  0.51887863401E+03  0.00000000000E+00 0. -1.
         22    1    3    3    0    0 -0.27492330473E+02 -0.91346455714E+02  0.48025310125E+03  0.48963562418E+03  0.00000000000E+00 0.  1.
         22    1    3    3    0    0  0.25529526062E+02  0.33685047853E+02  0.20576037049E+03  0.21005658574E+03  0.00000000000E+00 0.  1.
</event>
<event>
 7    1  0.6103724E-006  0.8630007E+02  0.7818608E-02  0.1328915E+00
          2   -1    0    0  502    0  0.00000000000E+00  0.00000000000E+00  0.49199112993E+03  0.49199112993E+03  0.00000000000E+00 0. -1.
          1   -1    0    0  501    0 -0.00000000000E+00 -0.00000000000E+00 -0.34987059818E+03  0.34987059818E+03  0.00000000000E+00 0. -1.
         25    2    1    2    0    0  0.60220192452E+02  0.10912371336E+02 -0.50815336892E+02  0.14816973672E+03  0.12500608381E+03 0.  0.
          2    1    1    2  501    0  0.17763348205E+01 -0.74227525587E+02 -0.24028817417E+03  0.25149808661E+03  0.00000000000E+00 0. -1.
          1    1    1    2  502    0 -0.61996527273E+02  0.63315154251E+02  0.43322404281E+03  0.44219390478E+03  0.00000000000E+00 0. -1.
         22    1    3    3    0    0  0.29080053056E+02  0.63460504154E+02 -0.17605313618E+01  0.69828250329E+02  0.00000000000E+00 0.  1.
         22    1    3    3    0    0  0.31140139396E+02 -0.52548132818E+02 -0.49054805530E+02  0.78341486391E+02  0.00000000000E+00 0.  1.
</event>
<event>
 7    1  0.6103724E-006  0.4925546E+02  0.7818608E-02  0.1456251E+00
          2   -1    0    0  502    0  0.00000000000E+00  0.00000000000E+00  0.15042474425E+02  0.15042474425E+02  0.00000000000E+00 0. -1.
          1   -1    0    0  501    0 -0.00000000000E+00 -0.00000000000E+00 -0.10358587031E+04  0.10358587031E+04  0.00000000000E+00 0. -1.
         25    2    1    2    0    0 -0.49475238997E+02  0.70042245188E+01 -0.65374311452E+03  0.66745903120E+03  0.12499856049E+03 0.  0.
          2    1    1    2  501    0  0.18246478931E+02 -0.45751133700E+02 -0.26892435091E+03  0.27339789089E+03  0.00000000000E+00 0. -1.
          1    1    1    2  502    0  0.31228760065E+02  0.38746909181E+02 -0.98148763214E+02  0.11004425540E+03  0.00000000000E+00 0. -1.
         22    1    3    3    0    0 -0.26482492779E+02 -0.58064588464E+02 -0.26029089021E+03  0.26800031041E+03  0.00000000000E+00 0. -1.
         22    1    3    3    0    0 -0.22992746218E+02  0.65068812983E+02 -0.39345222431E+03  0.39945872079E+03  0.00000000000E+00 0. -1.
</event>
<event>
 7    1  0.6103724E-006  0.2358182E+03  0.7818608E-02  0.1313789E+00
          2   -1    0    0  502    0  0.00000000000E+00  0.00000000000E+00  0.76651167026E+03  0.76651167026E+03  0.00000000000E+00 0. -1.
          1   -1    0    0  501    0 -0.00000000000E+00 -0.00000000000E+00 -0.85493058050E+03  0.85493058050E+03  0.00000000000E+00 0. -1.
         25    2    1    2    0    0 -0.11203719984E+03  0.19170173545E+03  0.39651326137E+02  0.25787416710E+03  0.12499987549E+03 0.  0.
          2    1    1    2  501    0  0.14307831222E+03 -0.18987357481E+03 -0.72645847078E+03  0.76437247963E+03  0.00000000000E+00 0. -1.
          1    1    1    2  502    0 -0.31041112382E+02 -0.18281606308E+01  0.59838823440E+03  0.59919560403E+03  0.00000000000E+00 0. -1.
         22    1    3    3    0    0 -0.19242904978E+02  0.10255224247E+03  0.70021536596E+02  0.12565933079E+03  0.00000000000E+00 0.  1.
         22    1    3    3    0    0 -0.92794294863E+02  0.89149492973E+02 -0.30370210460E+02  0.13221483631E+03  0.00000000000E+00 0.  1.
</event>
<event>
 7    1  0.6103724E-006  0.5165466E+02  0.7818608E-02  0.1558070E+00
          2   -1    0    0  502    0  0.00000000000E+00  0.00000000000E+00  0.54173226628E+03  0.54173226628E+03  0.00000000000E+00 0. -1.
          1   -1    0    0  501    0 -0.00000000000E+00 -0.00000000000E+00 -0.57374107055E+03  0.57374107055E+03  0.00000000000E+00 0. -1.
         25    2    1    2    0    0 -0.19411926388E+02  0.46733599012E+02 -0.13312111308E+03  0.18949155456E+03  0.12499986535E+03 0.  0.
          2    1    1    2  501    0 -0.18847761597E+02 -0.11959236122E+02 -0.41082971443E+03  0.41143567627E+03  0.00000000000E+00 0. -1.
          1    1    1    2  502    0  0.38259687985E+02 -0.34774362890E+02  0.51194202324E+03  0.51454610600E+03  0.00000000000E+00 0. -1.
         22    1    3    3    0    0  0.47411054626E+01  0.27495230470E+02  0.19331213043E+02  0.33943505672E+02  0.00000000000E+00 0.  1.
         22    1    3    3    0    0 -0.24153031851E+02  0.19238368542E+02 -0.15245232613E+03  0.15554804889E+03  0.00000000000E+00 0.  1.
</event>
<event>
 7    1  0.6103724E-006  0.9743371E+02  0.7818608E-02  0.1383808E+00
          2   -1    0    0  502    0  0.00000000000E+00  0.00000000000E+00  0.52892171802E+03  0.52892171802E+03  0.00000000000E+00 0. -1.
          1   -1    0    0  501    0 -0.00000000000E+00 -0.00000000000E+00 -0.61351775067E+03  0.61351775067E+03  0.00000000000E+00 0. -1.
         25    2    1    2    0    0  0.10649365072E+03 -0.10009176621E+02  0.14392040661E+03  0.21858462876E+03  0.12500030092E+03 0.  0.
          2    1    1    2  501    0 -0.20949872962E+02 -0.35649665989E+02 -0.56865924859E+03  0.57016062375E+03  0.00000000000E+00 0. -1.
          1    1    1    2  502    0 -0.85543777762E+02  0.45658842610E+02  0.34014280933E+03  0.35369421619E+03  0.00000000000E+00 0. -1.
         22    1    3    3    0    0  0.42920592820E+02  0.23937600893E+02 -0.86028443905E+01  0.49891832559E+02  0.00000000000E+00 0. -1.
         22    1    3    3    0    0  0.63573057904E+02 -0.33946777514E+02  0.15252325100E+03  0.16869279620E+03  0.00000000000E+00 0. -1.
</event>
<event>
 7    1  0.6103724E-006  0.7800351E+02  0.7818608E-02  0.1384334E+00
          2   -1    0    0  502    0  0.00000000000E+00  0.00000000000E+00  0.71565529209E+03  0.71565529209E+03  0.00000000000E+00 0. -1.
          1   -1    0    0  501    0 -0.00000000000E+00 -0.00000000000E+00 -0.14627239638E+03  0.14627239638E+03  0.00000000000E+00 0. -1.
         25    2    1    2    0    0 -0.21353401265E+01 -0.30120496797E+02  0.15824641284E+03  0.20391228072E+03  0.12500594805E+03 0.  0.
          2    1    1    2  501    0  0.83464574926E+01  0.81174184883E+02 -0.10854380848E+03  0.13579642853E+03  0.00000000000E+00 0. -1.
          1    1    1    2  502    0 -0.62111173661E+01 -0.51053688086E+02  0.51968029135E+03  0.52221897922E+03  0.00000000000E+00 0. -1.
         22    1    3    3    0    0 -0.32918813617E+02 -0.70508224607E+02  0.96654144730E+02  0.12408497782E+03  0.00000000000E+00 0. -1.
         22    1    3    3    0    0  0.30783473490E+02  0.40387727810E+02  0.61592268109E+02  0.79827302902E+02  0.00000000000E+00 0. -1.
</event>
<event>
 7    1  0.6103724E-006  0.1559668E+03  0.7818608E-02  0.1240092E+00
          2   -1    0    0  502    0  0.00000000000E+00  0.00000000000E+00  0.26237140638E+03  0.26237140638E+03  0.00000000000E+00 0. -1.
          1   -1    0    0  501    0 -0.00000000000E+00 -0.00000000000E+00 -0.48115679706E+03  0.48115679706E+03  0.00000000000E+00 0. -1.
         25    2    1    2    0    0  0.14810785963E+03  0.67325673260E+01 -0.24907856825E+03  0.31566755945E+03  0.12499843753E+03 0.  0.
          2    1    1    2  501    0 -0.14881344112E+03 -0.10191089437E+03 -0.14298294483E+03  0.23016383982E+03  0.00000000000E+00 0. -1.
          1    1    1    2  502    0  0.70558149038E+00  0.95178327045E+02  0.17327612239E+03  0.19769680416E+03  0.00000000000E+00 0. -1.
         22    1    3    3    0    0  0.66574012265E+02  0.51690854771E+02 -0.18305386412E+03  0.20152607956E+03  0.00000000000E+00 0.  1.
         22    1    3    3    0    0  0.81533847361E+02 -0.44958287445E+02 -0.66024704133E+02  0.11414147989E+03  0.00000000000E+00 0.  1.
</event>
<event>
 7    1  0.6103724E-006  0.3091865E+02  0.7818608E-02  0.1645485E+00
          2   -1    0    0  502    0  0.00000000000E+00  0.00000000000E+00  0.13115874714E+04  0.13115874714E+04  0.00000000000E+00 0. -1.
          1   -1    0    0  501    0 -0.00000000000E+00 -0.00000000000E+00 -0.53089643951E+02  0.53089643951E+02  0.00000000000E+00 0. -1.
         25    2    1    2    0    0 -0.26006043373E+02  0.22552060067E+02  0.36068757586E+03  0.38328430050E+03  0.12500567159E+03 0.  0.
          2    1    1    2  501    0 -0.49848305605E+01 -0.21486918431E+02 -0.38606140131E+02  0.44463133664E+02  0.00000000000E+00 0. -1.
          1    1    1    2  502    0  0.30990873934E+02 -0.10651416357E+01  0.93641639168E+03  0.93692968114E+03  0.00000000000E+00 0. -1.
         22    1    3    3    0    0 -0.23897563827E+02 -0.72633116426E+01  0.35096543242E+03  0.35185307162E+03  0.00000000000E+00 0.  1.
         22    1    3    3    0    0 -0.21084795462E+01  0.29815371709E+02  0.97221434332E+01  0.31431228883E+02  0.00000000000E+00 0.  1.
</event>
<event>
 7    1  0.6103724E-006  0.1985762E+03  0.7818608E-02  0.1193165E+00
          2   -1    0    0  502    0  0.00000000000E+00  0.00000000000E+00  0.14421317690E+04  0.14421317690E+04  0.00000000000E+00 0. -1.
          1   -1    0    0  501    0 -0.00000000000E+00 -0.00000000000E+00 -0.11017781068E+04  0.11017781068E+04  0.00000000000E+00 0. -1.
         25    2    1    2    0    0 -0.39157274749E+02 -0.26519867411E+03 -0.13432157979E+03  0.32485407918E+03  0.12499702815E+03 0.  0.
          2    1    1    2  501    0 -0.54087971982E+02  0.18541643253E+03 -0.85864497979E+03  0.88009997358E+03  0.00000000000E+00 0. -1.
          1    1    1    2  502    0  0.93245246731E+02  0.79782241585E+02  0.13333202218E+04  0.13389558230E+04  0.00000000000E+00 0. -1.
         22    1    3    3    0    0  0.33312347392E+02 -0.72668327057E+02 -0.77715792117E+02  0.11149054933E+03  0.00000000000E+00 0. -1.
         22    1    3    3    0    0 -0.72469622141E+02 -0.19253034706E+03 -0.56605787674E+02  0.21336352985E+03  0.00000000000E+00 0. -1.
</event>
<event>
 7    1  0.6103724E-006  0.5561516E+02  0.7818608E-02  0.1495228E+00
          2   -1    0    0  502    0  0.00000000000E+00  0.00000000000E+00  0.39146426192E+04  0.39146426192E+04  0.00000000000E+00 0. -1.
          1   -1    0    0  501    0 -0.00000000000E+00 -0.00000000000E+00 -0.37361653265E+03  0.37361653265E+03  0.00000000000E+00 0. -1.
         25    2    1    2    0    0 -0.85782819276E+01 -0.67661535564E+02  0.78067400912E+03  0.79354997518E+03  0.12497193399E+03 0.  0.
          2    1    1    2  501    0 -0.22604450660E+02  0.21862209324E+02 -0.36625932791E+03  0.36760687244E+03  0.00000000000E+00 0. -1.
          1    1    1    2  502    0  0.31182732588E+02  0.45799326240E+02  0.31266114053E+04  0.31271023042E+04  0.00000000000E+00 0. -1.
         22    1    3    3    0    0  0.34418504776E+02  0.79375615837E+01  0.45802162502E+03  0.45938159230E+03  0.00000000000E+00 0. -1.
         22    1    3    3    0    0 -0.42996786704E+02 -0.75599097147E+02  0.32265238409E+03  0.33416838288E+03  0.00000000000E+00 0. -1.
</event>
<event>
 7    1  0.6103724E-006  0.1023117E+03  0.7818608E-02  0.1404792E+00
          2   -1    0    0  502    0  0.00000000000E+00  0.00000000000E+00  0.25165073829E+03  0.25165073829E+03  0.00000000000E+00 0. -1.
          1   -1    0    0  501    0 -0.00000000000E+00 -0.00000000000E+00 -0.20981561740E+03  0.20981561740E+03  0.00000000000E+00 0. -1.
         25    2    1    2    0    0  0.30523461035E+02  0.75896092758E+02  0.20824629047E+02  0.15083385362E+03  0.12500115060E+03 0.  0.
          2    1    1    2  501    0  0.30293627622E+02  0.13835337086E+02 -0.12467312899E+03  0.12904460282E+03  0.00000000000E+00 0. -1.
          1    1    1    2  502    0 -0.60817088657E+02 -0.89731429845E+02  0.14568362083E+03  0.18158789924E+03  0.00000000000E+00 0. -1.
         22    1    3    3    0    0  0.44126087084E+02  0.59348954608E+02  0.67088739138E+02  0.99851434109E+02  0.00000000000E+00 0. -1.
         22    1    3    3    0    0 -0.13602626049E+02  0.16547138150E+02 -0.46264110091E+02  0.50982419508E+02  0.00000000000E+00 0. -1.
</event>
<event>
 7    1  0.6103724E-006  0.9205453E+02  0.7818608E-02  0.1339609E+00
          2   -1    0    0  502    0  0.00000000000E+00  0.00000000000E+00  0.43595874667E+03  0.43595874667E+03  0.00000000000E+00 0. -1.
          1   -1    0    0  501    0 -0.00000000000E+00 -0.00000000000E+00 -0.95252677152E+03  0.95252677152E+03  0.00000000000E+00 0. -1.
         25    2    1    2    0    0 -0.84286650990E+02 -0.82588658020E+02 -0.33783739353E+02  0.17519858826E+03  0.12501231266E+03 0.  0.
          2    1    1    2  501    0  0.21241700211E+02  0.89261346763E+02 -0.84277576350E+03  0.84775573451E+03  0.00000000000E+00 0. -1.
          1    1    1    2  502    0  0.63044950779E+02 -0.66726887427E+01  0.35999147800E+03  0.36553119542E+03  0.00000000000E+00 0. -1.
         22    1    3    3    0    0  0.25840848986E+02 -0.28432847234E+02 -0.35719959436E+02  0.52460382960E+02  0.00000000000E+00 0.  1.
         22    1    3    3    0    0 -0.11012749998E+03 -0.54155810786E+02  0.19362200833E+01  0.12273820530E+03  0.00000000000E+00 0.  1.
</event>
<event>
 7    1  0.6103724E-006  0.1241999E+03  0.7818608E-02  0.1277663E+00
          2   -1    0    0  502    0  0.00000000000E+00  0.00000000000E+00  0.17615858395E+04  0.17615858395E+04  0.00000000000E+00 0. -1.
          1   -1    0    0  501    0 -0.00000000000E+00 -0.00000000000E+00 -0.18303624559E+03  0.18303624559E+03  0.00000000000E+00 0. -1.
         25    2    1    2    0    0  0.20245783451E+01  0.11950072874E+03  0.15135639708E+04  0.15234124815E+04  0.12500068812E+03 0.  0.
          2    1    1    2  501    0  0.77203054238E+02  0.29259087606E+02 -0.13588281038E+03  0.15899856587E+03  0.00000000000E+00 0. -1.
          1    1    1    2  502    0 -0.79227632583E+02 -0.14875981635E+03  0.20086843345E+03  0.26221103768E+03  0.00000000000E+00 0. -1.
         22    1    3    3    0    0  0.35373969683E+01  0.10856414656E+03  0.15062666828E+04  0.15101781375E+04  0.00000000000E+00 0.  1.
         22    1    3    3    0    0 -0.15128186232E+01  0.10936582183E+02  0.72972879372E+01  0.13234344006E+02  0.00000000000E+00 0.  1.
</event>
<event>
 7    1  0.6103724E-006  0.1281427E+03  0.7818608E-02  0.1286762E+00
          2   -1    0    0  502    0  0.00000000000E+00  0.00000000000E+00  0.71317116291E+03  0.71317116291E+03  0.00000000000E+00 0. -1.
          1   -1    0    0  501    0 -0.00000000000E+00 -0.00000000000E+00 -0.55306235336E+03  0.55306235336E+03  0.00000000000E+00 0. -1.
         25    2    1    2    0    0 -0.84865597916E+02  0.21461428480E+02  0.48179903994E+03  0.50538924247E+03  0.12500083556E+03 0.  0.
          2    1    1    2  501    0  0.87469404337E+02 -0.94822201443E+02 -0.52712870005E+03  0.54268481921E+03  0.00000000000E+00 0. -1.
          1    1    1    2  502    0 -0.26038064209E+01  0.73360772963E+02  0.20543846965E+03  0.21815945460E+03  0.00000000000E+00 0. -1.
         22    1    3    3    0    0  0.31224026478E+02  0.18039903110E+02  0.99194822029E+02  0.10554615413E+03  0.00000000000E+00 0.  1.
         22    1    3    3    0    0 -0.11608962439E+03  0.34215253694E+01  0.38260421791E+03  0.39984308834E+03  0.00000000000E+00 0.  1.
</event>
<event>
 7    1  0.6103724E-006  0.4242100E+02  0.7818608E-02  0.1534559E+00
          2   -1    0    0  502    0  0.00000000000E+00  0.00000000000E+00  0.15112780104E+04  0.15112780104E+04  0.00000000000E+00 0. -1.
          1   -1    0    0  501    0 -0.00000000000E+00 -0.00000000000E+00 -0.74806290905E+03  0.74806290905E+03  0.00000000000E+00 0. -1.
         25    2    1    2    0    0  0.39311867934E+02 -0.61640500382E+02  0.19390740443E+03  0.24201276364E+03  0.12500048810E+03 0.  0.
          2    1    1    2  501    0 -0.20485672913E+02  0.24105873773E+02 -0.72332357243E+03  0.72401501806E+03  0.00000000000E+00 0. -1.
          1    1    1    2  502    0 -0.18826195021E+02  0.37534626609E+02  0.12926312694E+04  0.12933131378E+04  0.00000000000E+00 0. -1.
         22    1    3    3    0    0  0.64435504720E+02 -0.58380638932E+01  0.39217067892E+02  0.75657092679E+02  0.00000000000E+00 0.  1.
         22    1    3    3    0    0 -0.25123636786E+02 -0.55802436489E+02  0.15469033654E+03  0.16635567096E+03  0.00000000000E+00 0.  1.
</event>
<event>
 7    1  0.6103724E-006  0.5997698E+02  0.7818608E-02  0.1428223E+00
          2   -1    0    0  502    0  0.00000000000E+00  0.00000000000E+00  0.76469090650E+03  0.76469090650E+03  0.00000000000E+00 0. -1.
          1   -1    0    0  501    0 -0.00000000000E+00 -0.00000000000E+00 -0.36330936937E+03  0.36330936937E+03  0.00000000000E+00 0. -1.
         25    2    1    2    0    0  0.39487215004E+02  0.74055504186E+02  0.92300213581E+02  0.17660099437E+03  0.12500049575E+03 0.  0.
          2    1    1    2  501    0  0.12908125915E+02 -0.45607640064E+02 -0.31798842340E+03  0.32150165468E+03  0.00000000000E+00 0. -1.
          1    1    1    2  502    0 -0.52395340919E+02 -0.28447864123E+02  0.62706974695E+03  0.62989762682E+03  0.00000000000E+00 0. -1.
         22    1    3    3    0    0 -0.43324318099E+02  0.45074450596E+02  0.43974699203E+02  0.76436096219E+02  0.00000000000E+00 0.  1.
         22    1    3    3    0    0  0.82811533102E+02  0.28981053591E+02  0.48325514378E+02  0.10016489815E+03  0.00000000000E+00 0.  1.
</event>
<event>
 7    1  0.6103724E-006  0.8025262E+02  0.7818608E-02  0.1369685E+00
          2   -1    0    0  502    0  0.00000000000E+00  0.00000000000E+00  0.23577842157E+04  0.23577842157E+04  0.00000000000E+00 0. -1.
          1   -1    0    0  501    0 -0.00000000000E+00 -0.00000000000E+00 -0.34342536109E+02  0.34342536109E+02  0.00000000000E+00 0. -1.
         25    2    1    2    0    0 -0.53407086560E+02  0.92550268091E+02  0.33558420177E+03  0.37371005360E+03  0.12499831464E+03 0.  0.
          2    1    1    2  501    0 -0.44176239795E+00 -0.75906917342E+02  0.82056551517E+02  0.11178252503E+03  0.00000000000E+00 0. -1.
          1    1    1    2  502    0  0.53848848958E+02 -0.16643350750E+02  0.19058009263E+04  0.19066341732E+04  0.00000000000E+00 0. -1.
         22    1    3    3    0    0 -0.68668408954E+02  0.25232924675E+01  0.18797707521E+03  0.20014269459E+03  0.00000000000E+00 0. -1.
         22    1    3    3    0    0  0.15261322394E+02  0.90026975624E+02  0.14760712656E+03  0.17356735901E+03  0.00000000000E+00 0. -1.
</event>
<event>
 7    1  0.6103724E-006  0.4629131E+02  0.7818608E-02  0.1572924E+00
          2   -1    0    0  502    0  0.00000000000E+00  0.00000000000E+00  0.14064452013E+03  0.14064452013E+03  0.00000000000E+00 0. -1.
          1   -1    0    0  501    0 -0.00000000000E+00 -0.00000000000E+00 -0.13443101050E+04  0.13443101050E+04  0.00000000000E+00 0. -1.
         25    2    1    2    0    0  0.34636242348E+01  0.62660866334E+02 -0.68260213718E+02  0.15562478804E+03  0.12498494714E+03 0.  0.
          2    1    1    2  501    0 -0.15541559287E+02 -0.43458151050E+02 -0.12306022055E+04  0.12314673926E+04  0.00000000000E+00 0. -1.
          1    1    1    2  502    0  0.12077935053E+02 -0.19202715284E+02  0.95196834287E+02  0.97862444521E+02  0.00000000000E+00 0. -1.
         22    1    3    3    0    0  0.55152411395E+02  0.35995566910E+02 -0.71705929549E+02  0.97361232800E+02  0.00000000000E+00 0.  1.
         22    1    3    3    0    0 -0.51688787160E+02  0.26665299424E+02  0.34457158305E+01  0.58263555239E+02  0.00000000000E+00 0.  1.
</event>
<event>
 7    1  0.6103724E-006  0.3378100E+02  0.7818608E-02  0.1635163E+00
          2   -1    0    0  502    0  0.00000000000E+00  0.00000000000E+00  0.22985905019E+04  0.22985905019E+04  0.00000000000E+00 0. -1.
          1   -1    0    0  501    0 -0.00000000000E+00 -0.00000000000E+00 -0.63709716210E+03  0.63709716210E+03  0.00000000000E+00 0. -1.
         25    2    1    2    0    0  0.46206453749E+02 -0.30640203698E+01  0.13348585682E+04  0.13414978393E+04  0.12499852449E+03 0.  0.
          2    1    1    2  501    0 -0.15368106268E+02  0.14914566197E+02 -0.63331237644E+03  0.63367435574E+03  0.00000000000E+00 0. -1.
          1    1    1    2  502    0 -0.30838347481E+02 -0.11850545827E+02  0.95994714799E+03  0.96051546893E+03  0.00000000000E+00 0. -1.
         22    1    3    3    0    0  0.11799821641E+01 -0.41179805004E+02  0.16198482121E+03  0.16714141019E+03  0.00000000000E+00 0.  1.
         22    1    3    3    0    0  0.45026471585E+02  0.38115784634E+02  0.11728737470E+04  0.11743564291E+04  0.00000000000E+00 0.  1.
</event>
<event>
 7    1  0.6103724E-006  0.9308227E+02  0.7818608E-02  0.1295722E+00
          2   -1    0    0  502    0  0.00000000000E+00  0.00000000000E+00  0.10694545550E+04  0.10694545550E+04  0.00000000000E+00 0. -1.
          1   -1    0    0  501    0 -0.00000000000E+00 -0.00000000000E+00 -0.52502106479E+03  0.52502106479E+03  0.00000000000E+00 0. -1.
         25    2    1    2    0    0  0.11599122336E+03  0.34899013603E+02  0.26099860018E+03  0.31371485848E+03  0.12499935235E+03 0.  0.
          2    1    1    2  501    0 -0.36593328182E+02 -0.85430105423E+02 -0.49146064736E+03  0.50017091327E+03  0.00000000000E+00 0. -1.
          1    1    1    2  502    0 -0.79397895179E+02  0.50531091820E+02  0.77489553737E+03  0.78058984802E+03  0.00000000000E+00 0. -1.
         22    1    3    3    0    0  0.20566160429E+02  0.14744033122E+02 -0.88294715092E+01  0.26801362552E+02  0.00000000000E+00 0. -1.
         22    1    3    3    0    0  0.95425062932E+02  0.20154980481E+02  0.26982807169E+03  0.28691349592E+03  0.00000000000E+00 0. -1.
</event>
<event>
 7    1  0.6103724E-006  0.9743202E+02  0.7818608E-02  0.1297991E+00
          2   -1    0    0  502    0  0.00000000000E+00  0.00000000000E+00  0.64635413826E+02  0.64635413826E+02  0.00000000000E+00 0. -1.
          1   -1    0    0  501    0 -0.00000000000E+00 -0.00000000000E+00 -0.77996818809E+03  0.77996818809E+03  0.00000000000E+00 0. -1.
         25    2    1    2    0    0 -0.91756633155E+01  0.32124843395E+02 -0.19413188560E+03  0.23329788348E+03  0.12499806027E+03 0.  0.
          2    1    1    2  501    0  0.34295883227E+02 -0.11535845511E+03 -0.50957066560E+03  0.52358957592E+03  0.00000000000E+00 0. -1.
          1    1    1    2  502    0 -0.25120219912E+02  0.83233611718E+02 -0.11630223062E+02  0.87716142509E+02  0.00000000000E+00 0. -1.
         22    1    3    3    0    0 -0.30715105310E+02  0.75126426686E+02 -0.11682250225E+03  0.14224941024E+03  0.00000000000E+00 0.  1.
         22    1    3    3    0    0  0.21539441994E+02 -0.43001583291E+02 -0.77309383347E+02  0.91048473246E+02  0.00000000000E+00 0.  1.
</event>
<event>
 7    1  0.6103724E-006  0.1341891E+03  0.7818608E-02  0.1361449E+00
          2   -1    0    0  502    0  0.00000000000E+00  0.00000000000E+00  0.39976097074E+03  0.39976097074E+03  0.00000000000E+00 0. -1.
          1   -1    0    0  501    0 -0.00000000000E+00 -0.00000000000E+00 -0.16384351954E+04  0.16384351954E+04  0.00000000000E+00 0. -1.
         25    2    1    2    0    0 -0.84820584890E+01 -0.98900624882E+02 -0.33856465883E+03  0.37430564057E+03  0.12500162173E+03 0.  0.
          2    1    1    2  501    0 -0.27882276934E+01 -0.35994648081E+02 -0.12697399832E+04  0.12702531298E+04  0.00000000000E+00 0. -1.
          1    1    1    2  502    0  0.11270286182E+02  0.13489527296E+03  0.36963041728E+03  0.39363739583E+03  0.00000000000E+00 0. -1.
         22    1    3    3    0    0 -0.30192007461E+02 -0.12318867843E+03 -0.26138221667E+03  0.29052998296E+03  0.00000000000E+00 0. -1.
         22    1    3    3    0    0  0.21709948972E+02  0.24288053553E+02 -0.77182442160E+02  0.83775657607E+02  0.00000000000E+00 0. -1.
</event>
<event>
 7    1  0.6103724E-006  0.4367356E+02  0.7818608E-02  0.1581007E+00
          2   -1    0    0  502    0  0.00000000000E+00  0.00000000000E+00  0.63168943981E+02  0.63168943981E+02  0.00000000000E+00 0. -1.
          1   -1    0    0  501    0 -0.00000000000E+00 -0.00000000000E+00 -0.74109812603E+03  0.74109812603E+03  0.00000000000E+00 0. -1.
         25    2    1    2    0    0  0.55581780135E+02  0.19472390370E+02 -0.18100717795E+03  0.22771813672E+03  0.12499377205E+03 0.  0.
          2    1    1    2  501    0 -0.21760931382E+02  0.70351320596E+01 -0.52481877151E+03  0.52531683215E+03  0.00000000000E+00 0. -1.
          1    1    1    2  502    0 -0.33820848753E+02 -0.26507522430E+02  0.27896767407E+02  0.51232101143E+02  0.00000000000E+00 0. -1.
         22    1    3    3    0    0 -0.31957590839E+02  0.36791193382E+02 -0.58088757717E+02  0.75823369062E+02  0.00000000000E+00 0.  1.
         22    1    3    3    0    0  0.87539370974E+02 -0.17318803012E+02 -0.12291842024E+03  0.15189476766E+03  0.00000000000E+00 0.  1.
</event>
<event>
 7    1  0.6103724E-006  0.4231969E+02  0.7818608E-02  0.1563231E+00
          2   -1    0    0  502    0  0.00000000000E+00  0.00000000000E+00  0.55153504791E+03  0.55153504791E+03  0.00000000000E+00 0. -1.
          1   -1    0    0  501    0 -0.00000000000E+00 -0.00000000000E+00 -0.66416769497E+03  0.66416769497E+03  0.00000000000E+00 0. -1.
         25    2    1    2    0    0  0.85754101837E+01 -0.18856160858E+02  0.10988769354E+02  0.12717697211E+03  0.12499654684E+03 0.  0.
          2    1    1    2  501    0 -0.11438964258E+02 -0.23759211276E+02 -0.60484044505E+03  0.60541499320E+03  0.00000000000E+00 0. -1.
          1    1    1    2  502    0  0.28635540741E+01  0.42615372134E+02  0.48121902864E+03  0.48311077757E+03  0.00000000000E+00 0. -1.
         22    1    3    3    0    0 -0.36561689886E+02  0.93888538329E+01 -0.38904729522E+02  0.54207801310E+02  0.00000000000E+00 0. -1.
         22    1    3    3    0    0  0.45137100070E+02 -0.28245014690E+02  0.49893498877E+02  0.72969170803E+02  0.00000000000E+00 0. -1.
</event>
<event>
 7    1  0.6103724E-006  0.1613406E+03  0.7818608E-02  0.1288351E+00
          2   -1    0    0  502    0  0.00000000000E+00  0.00000000000E+00  0.23762309218E+03  0.23762309218E+03  0.00000000000E+00 0. -1.
          1   -1    0    0  501    0 -0.00000000000E+00 -0.00000000000E+00 -0.23061407757E+04  0.23061407757E+04  0.00000000000E+00 0. -1.
         25    2    1    2    0    0 -0.14517936974E+02 -0.21572590327E+03 -0.64148767601E+02  0.25785360551E+03  0.12499992662E+03 0.  0.
          2    1    1    2  501    0  0.20913348204E+01  0.15964828296E+03 -0.21361746682E+04  0.21421330867E+04  0.00000000000E+00 0. -1.
          1    1    1    2  502    0  0.12426602154E+02  0.56077620317E+02  0.13180575224E+03  0.14377717574E+03  0.00000000000E+00 0. -1.
         22    1    3    3    0    0 -0.36235524260E+02 -0.13953181654E+03 -0.95199757980E+02  0.17275744547E+03  0.00000000000E+00 0. -1.
         22    1    3    3    0    0  0.21717587286E+02 -0.76194086738E+02  0.31050990379E+02  0.85096160048E+02  0.00000000000E+00 0. -1.
</event>
<event>
 7    1  0.6103724E-006  0.1158575E+03  0.7818608E-02  0.1288141E+00
          2   -1    0    0  502    0  0.00000000000E+00  0.00000000000E+00  0.15700287159E+04  0.15700287159E+04  0.00000000000E+00 0. -1.
          1   -1    0    0  501    0 -0.00000000000E+00 -0.00000000000E+00 -0.64675531692E+03  0.64675531692E+03  0.00000000000E+00 0. -1.
         25    2    1    2    0    0 -0.34165590111E+02  0.82378563445E+02  0.76333385016E+03  0.77862514331E+03  0.12500012693E+03 0.  0.
          2    1    1    2  501    0  0.10618415747E+03 -0.47215623672E+02 -0.63178736913E+03  0.64238592000E+03  0.00000000000E+00 0. -1.
          1    1    1    2  502    0 -0.72018567363E+02 -0.35162939774E+02  0.79172691798E+03  0.79577296953E+03  0.00000000000E+00 0. -1.
         22    1    3    3    0    0 -0.23322212800E+01  0.10737881243E+03  0.63622786435E+03  0.64522983811E+03  0.00000000000E+00 0. -1.
         22    1    3    3    0    0 -0.31833368831E+02 -0.25000248981E+02  0.12710598581E+03  0.13339530520E+03  0.00000000000E+00 0. -1.
</event>
<event>
 7    1  0.6103724E-006  0.2037579E+03  0.7818608E-02  0.1187151E+00
          2   -1    0    0  502    0  0.00000000000E+00  0.00000000000E+00  0.29417963177E+04  0.29417963177E+04  0.00000000000E+00 0. -1.
          1   -1    0    0  501    0 -0.00000000000E+00 -0.00000000000E+00 -0.35843823909E+03  0.35843823909E+03  0.00000000000E+00 0. -1.
         25    2    1    2    0    0 -0.33605241563E+02  0.25757279808E+03  0.96866502953E+03  0.10106484844E+04  0.12500144383E+03 0.  0.
          2    1    1    2  501    0 -0.81372718911E+02 -0.98560621482E+02 -0.32020110826E+03  0.34476726240E+03  0.00000000000E+00 0. -1.
          1    1    1    2  502    0  0.11497796047E+03 -0.15901217660E+03  0.19348941573E+04  0.19448188100E+04  0.00000000000E+00 0. -1.
         22    1    3    3    0    0  0.22674185179E+02  0.18965104047E+03  0.53419717076E+03  0.56731671320E+03  0.00000000000E+00 0. -1.
         22    1    3    3    0    0 -0.56279426742E+02  0.67921757619E+02  0.43446785876E+03  0.44333177117E+03  0.00000000000E+00 0. -1.
</event>
<event>
 7    1  0.6103724E-006  0.7357999E+02  0.7818608E-02  0.1388033E+00
          2   -1    0    0  502    0  0.00000000000E+00  0.00000000000E+00  0.18930050471E+04  0.18930050471E+04  0.00000000000E+00 0. -1.
          1   -1    0    0  501    0 -0.00000000000E+00 -0.00000000000E+00 -0.88447162681E+02  0.88447162681E+02  0.00000000000E+00 0. -1.
         25    2    1    2    0    0  0.23480317038E+02  0.79419567246E+02  0.45447719864E+02  0.15668229408E+03  0.12500021235E+03 0.  0.
          2    1    1    2  501    0  0.37219823405E+02 -0.37614320447E+02 -0.10229228886E+02  0.53896098937E+02  0.00000000000E+00 0. -1.
          1    1    1    2  502    0 -0.60700140443E+02 -0.41805246799E+02  0.17693393934E+04  0.17708738167E+04  0.00000000000E+00 0. -1.
         22    1    3    3    0    0 -0.16904820091E+02  0.26173352804E+02 -0.38406114846E+02  0.49455505223E+02  0.00000000000E+00 0. -1.
         22    1    3    3    0    0  0.40385137129E+02  0.53246214442E+02  0.83853834711E+02  0.10722678886E+03  0.00000000000E+00 0. -1.
</event>
<event>
 7    1  0.6103724E-006  0.5646100E+02  0.7818608E-02  0.1447639E+00
          2   -1    0    0  502    0  0.00000000000E+00  0.00000000000E+00  0.82645639333E+03  0.82645639333E+03  0.00000000000E+00 0. -1.
          1   -1    0    0  501    0 -0.00000000000E+00 -0.00000000000E+00 -0.45581743127E+02  0.45581743127E+02  0.00000000000E+00 0. -1.
         25    2    1    2    0    0  0.69122562919E+02 -0.97684408460E+01  0.32534809740E+03  0.35545690007E+03  0.12499948874E+03 0.  0.
          2    1    1    2  501    0 -0.38843249617E+02  0.41043933014E+02 -0.24280257625E+01  0.56562335412E+02  0.00000000000E+00 0. -1.
          1    1    1    2  502    0 -0.30279313302E+02 -0.31275492168E+02  0.45795457856E+03  0.46001890097E+03  0.00000000000E+00 0. -1.
         22    1    3    3    0    0  0.63604007692E+02 -0.21920151796E+02  0.61124524030E+02  0.90896481160E+02  0.00000000000E+00 0.  1.
         22    1    3    3    0    0  0.55185552274E+01  0.12151710950E+02  0.26422357337E+03  0.26456041891E+03  0.00000000000E+00 0.  1.
</event>
<event>
 7    1  0.6103724E-006  0.8047818E+02  0.7818608E-02  0.1501393E+00
          2   -1    0    0  502    0  0.00000000000E+00  0.00000000000E+00  0.82551293408E+03  0.82551293408E+03  0.00000000000E+00 0. -1.
          1   -1    0    0  501    0 -0.00000000000E+00 -0.00000000000E+00 -0.32191110428E+03  0.32191110428E+03  0.00000000000E+00 0. -1.
         25    2    1    2    0    0  0.58959194371E+02 -0.25024326086E+02  0.79772503645E+03  0.80999458075E+03  0.12499433411E+03 0.  0.
          2    1    1    2  501    0 -0.78560539110E+02  0.17980780825E+02 -0.30391143138E+03  0.31441568807E+03  0.00000000000E+00 0. -1.
          1    1    1    2  502    0  0.19601344738E+02  0.70435452603E+01  0.97882247149E+01  0.23013769540E+02  0.00000000000E+00 0. -1.
         22    1    3    3    0    0 -0.79132780050E+01 -0.62228323490E+02  0.41247857138E+03  0.41722123155E+03  0.00000000000E+00 0.  1.
         22    1    3    3    0    0  0.66872472376E+02  0.37203997404E+02  0.38524646508E+03  0.39277334919E+03  0.00000000000E+00 0.  1.
</event>
<event>
 7    1  0.6103724E-006  0.5310719E+02  0.7818608E-02  0.1545510E+00
          2   -1    0    0  502    0  0.00000000000E+00  0.00000000000E+00  0.12749311013E+04  0.12749311013E+04  0.00000000000E+00 0. -1.
          1   -1    0    0  501    0 -0.00000000000E+00 -0.00000000000E+00 -0.32774101445E+03  0.32774101445E+03  0.00000000000E+00 0. -1.
         25    2    1    2    0    0 -0.39189654690E+02  0.43125047406E+01 -0.39606677513E+02  0.13692693570E+03  0.12500348029E+03 0.  0.
          2    1    1    2  501    0  0.47280476190E+02 -0.26408618632E+02 -0.23629782607E+03  0.24242425863E+03  0.00000000000E+00 0. -1.
          1    1    1    2  502    0 -0.80908214995E+01  0.22096113892E+02  0.12230945904E+04  0.12233209214E+04  0.00000000000E+00 0. -1.
         22    1    3    3    0    0  0.14839259769E+02  0.17137847163E+02  0.36348060018E+02  0.42837961004E+02  0.00000000000E+00 0. -1.
         22    1    3    3    0    0 -0.54028914459E+02 -0.12825342423E+02 -0.75954737532E+02  0.94088974696E+02  0.00000000000E+00 0. -1.
</event>
<event>
 7    1  0.6103724E-006  0.7308717E+02  0.7818608E-02  0.1373830E+00
          2   -1    0    0  502    0  0.00000000000E+00  0.00000000000E+00  0.69418058757E+03  0.69418058757E+03  0.00000000000E+00 0. -1.
          1   -1    0    0  501    0 -0.00000000000E+00 -0.00000000000E+00 -0.19985057871E+03  0.19985057871E+03  0.00000000000E+00 0. -1.
         25    2    1    2    0    0  0.12036786289E+03 -0.27056646451E+02  0.21350864700E+02  0.17692267732E+03  0.12500115917E+03 0.  0.
          2    1    1    2  501    0 -0.48906034834E+02  0.34423162462E+02 -0.11240906355E+03  0.12732851968E+03  0.00000000000E+00 0. -1.
          1    1    1    2  502    0 -0.71461828057E+02 -0.73665160110E+01  0.58538820771E+03  0.58977996927E+03  0.00000000000E+00 0. -1.
         22    1    3    3    0    0  0.12560627745E+03 -0.28659960325E+02  0.56981703908E+02  0.14087315160E+03  0.00000000000E+00 0.  1.
         22    1    3    3    0    0 -0.52384145587E+01  0.16033138734E+01 -0.35630839207E+02  0.36049525726E+02  0.00000000000E+00 0.  1.
</event>
<event>
 7    1  0.6103724E-006  0.5217428E+02  0.7818608E-02  0.1498869E+00
          2   -1    0    0  502    0  0.00000000000E+00  0.00000000000E+00  0.14510535448E+04  0.14510535448E+04  0.00000000000E+00 0. -1.
          1   -1    0    0  501    0 -0.00000000000E+00 -0.00000000000E+00 -0.22962639675E+03  0.22962639675E+03  0.00000000000E+00 0. -1.
         25    2    1    2    0    0 -0.53193170299E+02 -0.20562373638E+02  0.80174573829E+02  0.15907593680E+03  0.12499946722E+03 0.  0.
          2    1    1    2  501    0  0.50914479654E+02 -0.12047593887E+02 -0.18637215825E+03  0.19357688428E+03  0.00000000000E+00 0. -1.
          1    1    1    2  502    0  0.22786906447E+01  0.32609967526E+02  0.13276247325E+04  0.13280271205E+04  0.00000000000E+00 0. -1.
         22    1    3    3    0    0 -0.16217823843E+02 -0.34383594175E+02  0.10552412406E+03  0.11216322979E+03  0.00000000000E+00 0.  1.
         22    1    3    3    0    0 -0.36975346456E+02  0.13821220537E+02 -0.25349550228E+02  0.46912707014E+02  0.00000000000E+00 0.  1.
</event>
<event>
 7    1  0.6103724E-006  0.5908671E+02  0.7818608E-02  0.1460593E+00
          2   -1    0    0  502    0  0.00000000000E+00  0.00000000000E+00  0.13149674633E+03  0.13149674633E+03  0.00000000000E+00 0. -1.
          1   -1    0    0  501    0 -0.00000000000E+00 -0.00000000000E+00 -0.70987815132E+03  0.70987815132E+03  0.00000000000E+00 0. -1.
         25    2    1    2    0    0  0.63377953137E+02  0.56731558574E+02 -0.17905213536E+03  0.23434922967E+03  0.12499863835E+03 0.  0.
          2    1    1    2  501    0 -0.25877525758E+02 -0.51735863071E+02 -0.49800129412E+03  0.50134971308E+03  0.00000000000E+00 0. -1.
          1    1    1    2  502    0 -0.37500427379E+02 -0.49956955039E+01  0.98672024479E+02  0.10567595489E+03  0.00000000000E+00 0. -1.
         22    1    3    3    0    0  0.41306092733E+02  0.61533448135E+02 -0.19372262718E+03  0.20741507857E+03  0.00000000000E+00 0. -1.
         22    1    3    3    0    0  0.22071860404E+02 -0.48018895606E+01  0.14670491826E+02  0.26934151100E+02  0.00000000000E+00 0. -1.
</event>
<event>
 7    1  0.6103724E-006  0.1252613E+03  0.7818608E-02  0.1302237E+00
          2   -1    0    0  502    0  0.00000000000E+00  0.00000000000E+00  0.25887327175E+03  0.25887327175E+03  0.00000000000E+00 0. -1.
          1   -1    0    0  501    0 -0.00000000000E+00 -0.00000000000E+00 -0.13049983573E+04  0.13049983573E+04  0.00000000000E+00 0. -1.
         25    2    1    2    0    0  0.11061579192E+03  0.96450753149E+02  0.24238386735E+02  0.19429557533E+03  0.12499867997E+03 0.  0.
          2    1    1    2  501    0 -0.12083212717E+03 -0.32227744199E+02 -0.12095234112E+04  0.12159711808E+04  0.00000000000E+00 0. -1.
          1    1    1    2  502    0  0.10216335245E+02 -0.64223008950E+02  0.13915993888E+03  0.15360487289E+03  0.00000000000E+00 0. -1.
         22    1    3    3    0    0  0.22403614833E+02  0.96588483954E+02  0.35609974811E+02  0.10535334592E+03  0.00000000000E+00 0. -1.
         22    1    3    3    0    0  0.88212177090E+02 -0.13773080498E+00 -0.11371588077E+02  0.88942229408E+02  0.00000000000E+00 0. -1.
</event>
<event>
 7    1  0.6103724E-006  0.1187985E+03  0.7818608E-02  0.1297773E+00
          2   -1    0    0  502    0  0.00000000000E+00  0.00000000000E+00  0.62104395907E+03  0.62104395907E+03  0.00000000000E+00 0. -1.
          1   -1    0    0  501    0 -0.00000000000E+00 -0.00000000000E+00 -0.33678690424E+03  0.33678690424E+03  0.00000000000E+00 0. -1.
         25    2    1    2    0    0  0.18573811015E+03  0.17621382221E+02 -0.20753369550E+02  0.22554506600E+03  0.12502286100E+03 0.  0.
          2    1    1    2  501    0 -0.70760913720E+02 -0.98897618104E+01 -0.20099910495E+03  0.21332030961E+03  0.00000000000E+00 0. -1.
          1    1    1    2  502    0 -0.11497719643E+03 -0.77316204110E+01  0.50600952933E+03  0.51896548770E+03  0.00000000000E+00 0. -1.
         22    1    3    3    0    0 -0.39091164945E+01  0.15345241062E+02 -0.31840006380E+02  0.35560422119E+02  0.00000000000E+00 0. -1.
         22    1    3    3    0    0  0.18964722665E+03  0.22761411597E+01  0.11086636830E+02  0.18998464388E+03  0.00000000000E+00 0. -1.
</event>
<event>
 7    1  0.6103724E-006  0.1004002E+03  0.7818608E-02  0.1452761E+00
          2   -1    0    0  502    0  0.00000000000E+00  0.00000000000E+00  0.12592529044E+04  0.12592529044E+04  0.00000000000E+00 0. -1.
          1   -1    0    0  501    0 -0.00000000000E+00 -0.00000000000E+00 -0.77674358414E+03  0.77674358414E+03  0.00000000000E+00 0. -1.
         25    2    1    2    0    0  0.50908940996E+02  0.61393174790E+02 -0.37927677323E+03  0.40722962789E+03  0.12499702768E+03 0.  0.
          2    1    1    2  501    0  0.22389443022E+02  0.73788261580E+01 -0.38109746445E+03  0.38182589180E+03  0.00000000000E+00 0. -1.
          1    1    1    2  502    0 -0.73298384018E+02 -0.68772000948E+02  0.12428835579E+04  0.12469409688E+04  0.00000000000E+00 0. -1.
         22    1    3    3    0    0  0.41059061306E+02  0.97043609152E+02 -0.22309207757E+03  0.24672532028E+03  0.00000000000E+00 0.  1.
         22    1    3    3    0    0  0.98498796896E+01 -0.35650434362E+02 -0.15618469567E+03  0.16050430761E+03  0.00000000000E+00 0.  1.
</event>
<event>
 7    1  0.6103724E-006  0.9401715E+02  0.7818608E-02  0.1317013E+00
          2   -1    0    0  502    0  0.00000000000E+00  0.00000000000E+00  0.24740427944E+03  0.24740427944E+03  0.00000000000E+00 0. -1.
          1   -1    0    0  501    0 -0.00000000000E+00 -0.00000000000E+00 -0.98557765895E+03  0.98557765895E+03  0.00000000000E+00 0. -1.
         25    2    1    2    0    0 -0.13783711712E+03 -0.93549155590E+02 -0.11364845188E+03  0.23725849347E+03  0.12500042697E+03 0.  0.
          2    1    1    2  501    0  0.73104181706E+02  0.54180893845E+02 -0.79970311633E+03  0.80486325851E+03  0.00000000000E+00 0. -1.
          1    1    1    2  502    0  0.64732935416E+02  0.39368261744E+02  0.17517818870E+03  0.19086018641E+03  0.00000000000E+00 0. -1.
         22    1    3    3    0    0  0.51927043113E+01  0.23059575327E+02 -0.15166500662E+02  0.28084353912E+02  0.00000000000E+00 0.  1.
         22    1    3    3    0    0 -0.14302982143E+03 -0.11660873092E+03 -0.98481951221E+02  0.20917413956E+03  0.00000000000E+00 0.  1.
</event>
<event>
 7    1  0.8285802E-006  0.4531364E+02  0.7818608E-02  0.1492777E+00
          2   -1    0    0  502    0  0.00000000000E+00  0.00000000000E+00  0.15092842899E+04  0.15092842899E+04  0.00000000000E+00 0. -1.
          1   -1    0    0  501    0 -0.00000000000E+00 -0.00000000000E+00 -0.27326036330E+04  0.27326036330E+04  0.00000000000E+00 0. -1.
         25    2    1    2    0    0  0.41195995747E+01  0.66084334734E+02 -0.10923576138E+04  0.11014782742E+04  0.12500048608E+03 0.  0.
          2    1    1    2  501    0  0.23365824627E+02 -0.38054266900E+02 -0.16351247615E+04  0.16357344145E+04  0.00000000000E+00 0. -1.
          1    1    1    2  502    0 -0.27485424201E+02 -0.28030067834E+02  0.15041630322E+04  0.15046752343E+04  0.00000000000E+00 0. -1.
         22    1    3    3    0    0 -0.60078606587E+01  0.79391883345E+02 -0.35038173326E+03  0.35931396373E+03  0.00000000000E+00 0. -1.
         22    1    3    3    0    0  0.10127460233E+02 -0.13307548612E+02 -0.74197588058E+03  0.74216431042E+03  0.00000000000E+00 0. -1.
</event>
<event>
 7    1  0.6103724E-006  0.1762156E+03  0.7818608E-02  0.1396324E+00
          2   -1    0    0  502    0  0.00000000000E+00  0.00000000000E+00  0.19255976516E+04  0.19255976516E+04  0.00000000000E+00 0. -1.
          1   -1    0    0  501    0 -0.00000000000E+00 -0.00000000000E+00 -0.19045027037E+03  0.19045027037E+03  0.00000000000E+00 0. -1.
         25    2    1    2    0    0 -0.18851827452E+03 -0.44531937879E+02  0.15308259181E+03  0.27673446684E+03  0.12500180759E+03 0.  0.
          2    1    1    2  501    0  0.16525316865E+02  0.12426131609E+02 -0.12328753750E+03  0.12500924665E+03  0.00000000000E+00 0. -1.
          1    1    1    2  502    0  0.17199295765E+03  0.32105806270E+02  0.17053523270E+04  0.17143042085E+04  0.00000000000E+00 0. -1.
         22    1    3    3    0    0 -0.17499847773E+02 -0.46781583886E+01  0.87390704617E+02  0.89248333830E+02  0.00000000000E+00 0.  1.
         22    1    3    3    0    0 -0.17101842674E+03 -0.39853779490E+02  0.65691887195E+02  0.18748613300E+03  0.00000000000E+00 0.  1.
</event>
<event>
 7    1  0.6103724E-006  0.7593083E+02  0.7818608E-02  0.1357216E+00
          2   -1    0    0  502    0  0.00000000000E+00  0.00000000000E+00  0.67035843247E+03  0.67035843247E+03  0.00000000000E+00 0. -1.
          1   -1    0    0  501    0 -0.00000000000E+00 -0.00000000000E+00 -0.57905388471E+03  0.57905388471E+03  0.00000000000E+00 0. -1.
         25    2    1    2    0    0  0.12683840744E+03  0.45324045091E+02  0.27311373188E+03  0.32917009221E+03  0.12497835172E+03 0.  0.
          2    1    1    2  501    0 -0.64082702282E+02 -0.16265966428E+02 -0.54577474649E+03  0.54976472086E+03  0.00000000000E+00 0. -1.
          1    1    1    2  502    0 -0.62755705154E+02 -0.29058078663E+02  0.36396556236E+03  0.37047750411E+03  0.00000000000E+00 0. -1.
         22    1    3    3    0    0  0.98267956241E+02  0.80284859193E+02  0.24519654476E+03  0.27608621009E+03  0.00000000000E+00 0.  1.
         22    1    3    3    0    0  0.28570451195E+02 -0.34960814102E+02  0.27917187123E+02  0.53083882121E+02  0.00000000000E+00 0.  1.
</event>
<event>
 7    1  0.6103724E-006  0.1502783E+03  0.7818608E-02  0.1249110E+00
          2   -1    0    0  502    0  0.00000000000E+00  0.00000000000E+00  0.87713884478E+03  0.87713884478E+03  0.00000000000E+00 0. -1.
          1   -1    0    0  501    0 -0.00000000000E+00 -0.00000000000E+00 -0.13437820083E+04  0.13437820083E+04  0.00000000000E+00 0. -1.
         25    2    1    2    0    0 -0.16602530179E+03 -0.37504241948E+02  0.13074123379E+02  0.21157631094E+03  0.12499053424E+03 0.  0.
          2    1    1    2  501    0  0.58904251544E+02 -0.68312294602E+02 -0.12354597536E+04  0.12387481921E+04  0.00000000000E+00 0. -1.
          1    1    1    2  502    0  0.10712105025E+03  0.10581653655E+03  0.75574246671E+03  0.77059635011E+03  0.00000000000E+00 0. -1.
         22    1    3    3    0    0 -0.34156852660E+02  0.38675046942E+02 -0.20681076717E+02  0.55589178567E+02  0.00000000000E+00 0. -1.
         22    1    3    3    0    0 -0.13186844913E+03 -0.76179288889E+02  0.33755200095E+02  0.15598713237E+03  0.00000000000E+00 0. -1.
</event>
<event>
 7    1  0.6103724E-006  0.6778157E+02  0.7818608E-02  0.1384684E+00
          2   -1    0    0  502    0  0.00000000000E+00  0.00000000000E+00  0.22401817191E+03  0.22401817191E+03  0.00000000000E+00 0. -1.
          1   -1    0    0  501    0 -0.00000000000E+00 -0.00000000000E+00 -0.17954605149E+04  0.17954605149E+04  0.00000000000E+00 0. -1.
         25    2    1    2    0    0  0.42888963041E+02  0.99364336525E+02  0.95642093295E+00  0.16533981127E+03  0.12499441558E+03 0.  0.
          2    1    1    2  501    0  0.77530129062E+01 -0.58506863931E+02 -0.17052170651E+04  0.17062380847E+04  0.00000000000E+00 0. -1.
          1    1    1    2  502    0 -0.50641975947E+02 -0.40857472594E+02  0.13281830123E+03  0.14790079085E+03  0.00000000000E+00 0. -1.
         22    1    3    3    0    0  0.82571853259E+02  0.36455538318E+02  0.80694922797E+01  0.90621376785E+02  0.00000000000E+00 0.  1.
         22    1    3    3    0    0 -0.39682890218E+02  0.62908798208E+02 -0.71130713468E+01  0.74718434486E+02  0.00000000000E+00 0.  1.
</event>
<event>
 7    1  0.6103724E-006  0.6464800E+02  0.7818608E-02  0.1444022E+00
          2   -1    0    0  502    0  0.00000000000E+00  0.00000000000E+00  0.28656008702E+04  0.28656008702E+04  0.00000000000E+00 0. -1.
          1   -1    0    0  501    0 -0.00000000000E+00 -0.00000000000E+00 -0.17391437784E+02  0.17391437784E+02  0.00000000000E+00 0. -1.
         25    2    1    2    0    0 -0.87243354738E+02  0.36613230679E+02  0.14205566431E+04  0.14291809605E+04  0.12500044040E+03 0.  0.
          2    1    1    2  501    0  0.27379402763E+02 -0.27845793567E+02  0.18241221451E+02  0.43101764176E+02  0.00000000000E+00 0. -1.
          1    1    1    2  502    0  0.59863951975E+02 -0.87674371114E+01  0.14094115679E+04  0.14107095833E+04  0.00000000000E+00 0. -1.
         22    1    3    3    0    0  0.13392945008E+02  0.51323287661E+02  0.38386835084E+03  0.38751562757E+03  0.00000000000E+00 0. -1.
         22    1    3    3    0    0 -0.10063629975E+03 -0.14710056983E+02  0.10366882922E+04  0.10416653330E+04  0.00000000000E+00 0. -1.
</event>
<event>
 7    1  0.6103724E-006  0.1841517E+03  0.7818608E-02  0.1180192E+00
          2   -1    0    0  502    0  0.00000000000E+00  0.00000000000E+00  0.73804849058E+03  0.73804849058E+03  0.00000000000E+00 0. -1.
          1   -1    0    0  501    0 -0.00000000000E+00 -0.00000000000E+00 -0.22787990797E+03  0.22787990797E+03  0.00000000000E+00 0. -1.
         25    2    1    2    0    0 -0.59705073018E+02  0.60349703818E+02  0.14261781560E+03  0.20778041735E+03  0.12500431197E+03 0.  0.
          2    1    1    2  501    0  0.79263368218E+02 -0.21194076987E+03 -0.11367870891E+03  0.25322800069E+03  0.00000000000E+00 0. -1.
          1    1    1    2  502    0 -0.19558295200E+02  0.15159106605E+03  0.48122947592E+03  0.50491998051E+03  0.00000000000E+00 0. -1.
         22    1    3    3    0    0 -0.81183807773E+02  0.76316463811E+01  0.12299080138E+03  0.14756622206E+03  0.00000000000E+00 0.  1.
         22    1    3    3    0    0  0.21478734755E+02  0.52718057437E+02  0.19627014226E+02  0.60214195287E+02  0.00000000000E+00 0.  1.
</event>
<event>
 7    1  0.6103724E-006  0.6874890E+02  0.7818608E-02  0.1516589E+00
          2   -1    0    0  502    0  0.00000000000E+00  0.00000000000E+00  0.10023467442E+04  0.10023467442E+04  0.00000000000E+00 0. -1.
          1   -1    0    0  501    0 -0.00000000000E+00 -0.00000000000E+00 -0.15355097106E+03  0.15355097106E+03  0.00000000000E+00 0. -1.
         25    2    1    2    0    0 -0.76105677228E+02 -0.33854701577E+02  0.69747364279E+03  0.71346529281E+03  0.12500010690E+03 0.  0.
          2    1    1    2  501    0  0.55212165475E+02  0.40719848659E+02 -0.13702940461E+03  0.15324342407E+03  0.00000000000E+00 0. -1.
          1    1    1    2  502    0  0.20893511753E+02 -0.68651470818E+01  0.28835153493E+03  0.28918899837E+03  0.00000000000E+00 0. -1.
         22    1    3    3    0    0 -0.96530101806E+02 -0.82648105124E+01  0.31425171320E+03  0.32884723946E+03  0.00000000000E+00 0.  1.
         22    1    3    3    0    0  0.20424424578E+02 -0.25589891064E+02  0.38322192959E+03  0.38461805335E+03  0.00000000000E+00 0.  1.
</event>
<event>
 7    1  0.6103724E-006  0.1171425E+03  0.7818608E-02  0.1258348E+00
          2   -1    0    0  502    0  0.00000000000E+00  0.00000000000E+00  0.87767305938E+03  0.87767305938E+03  0.00000000000E+00 0. -1.
          1   -1    0    0  501    0 -0.00000000000E+00 -0.00000000000E+00 -0.21875636228E+03  0.21875636228E+03  0.00000000000E+00 0. -1.
         25    2    1    2    0    0 -0.24378818815E+02  0.21675436169E+03  0.49157001592E+03  0.55212565117E+03  0.12499949603E+03 0.  0.
          2    1    1    2  501    0  0.23837420788E+02 -0.11118007922E+03 -0.16229745048E+03  0.19816582722E+03  0.00000000000E+00 0. -1.
          1    1    1    2  502    0  0.54139802611E+00 -0.10557428247E+03  0.32964413166E+03  0.34613794327E+03  0.00000000000E+00 0. -1.
         22    1    3    3    0    0  0.40354411288E+01  0.81371056929E+02  0.32769349960E+03  0.33766931068E+03  0.00000000000E+00 0. -1.
         22    1    3    3    0    0 -0.28414259943E+02  0.13538330476E+03  0.16387651631E+03  0.21445634049E+03  0.00000000000E+00 0. -1.
</event>
<event>
 7    1  0.6103724E-006  0.5707982E+02  0.7818608E-02  0.1441352E+00
          2   -1    0    0  502    0  0.00000000000E+00  0.00000000000E+00  0.24550026556E+03  0.24550026556E+03  0.00000000000E+00 0. -1.
          1   -1    0    0  501    0 -0.00000000000E+00 -0.00000000000E+00 -0.40755463921E+03  0.40755463921E+03  0.00000000000E+00 0. -1.
         25    2    1    2    0    0  0.19125007165E+02  0.74731321092E+01 -0.11441136948E+03  0.17072235639E+03  0.12503818577E+03 0.  0.
          2    1    1    2  501    0  0.69999071095E+01  0.44570986956E+02 -0.25910247926E+03  0.26300126679E+03  0.00000000000E+00 0. -1.
          1    1    1    2  502    0 -0.26124914274E+02 -0.52044119066E+02  0.21145947509E+03  0.21933128158E+03  0.00000000000E+00 0. -1.
         22    1    3    3    0    0  0.62846984558E+02 -0.29248666081E+02 -0.68513338216E+02  0.97464380412E+02  0.00000000000E+00 0. -1.
         22    1    3    3    0    0 -0.43721977394E+02  0.36721798191E+02 -0.45898031268E+02  0.73257975974E+02  0.00000000000E+00 0. -1.
</event>
<event>
 7    1  0.6103724E-006  0.9914260E+02  0.7818608E-02  0.1306240E+00
          2   -1    0    0  502    0  0.00000000000E+00  0.00000000000E+00  0.55218366255E+03  0.55218366255E+03  0.00000000000E+00 0. -1.
          1   -1    0    0  501    0 -0.00000000000E+00 -0.00000000000E+00 -0.83067144007E+03  0.83067144007E+03  0.00000000000E+00 0. -1.
         25    2    1    2    0    0  0.47743142188E+02 -0.24778826397E+02 -0.20272762820E+03  0.24416475338E+03  0.12499815077E+03 0.  0.
          2    1    1    2  501    0  0.44034806176E+02  0.65836715738E+02 -0.59984325934E+03  0.60504997568E+03  0.00000000000E+00 0. -1.
          1    1    1    2  502    0 -0.91777948363E+02 -0.41057889341E+02  0.52408311002E+03  0.53364037356E+03  0.00000000000E+00 0. -1.
         22    1    3    3    0    0  0.55046614194E+02  0.41236930870E+02 -0.11699100742E+03  0.13571112710E+03  0.00000000000E+00 0.  1.
         22    1    3    3    0    0 -0.73034720064E+01 -0.66015757268E+02 -0.85736620784E+02  0.10845362629E+03  0.00000000000E+00 0.  1.
</event>
<event>
 7    1  0.6103724E-006  0.6858529E+02  0.7818608E-02  0.1383232E+00
          2   -1    0    0  502    0  0.00000000000E+00  0.00000000000E+00  0.28503789020E+03  0.28503789020E+03  0.00000000000E+00 0. -1.
          1   -1    0    0  501    0 -0.00000000000E+00 -0.00000000000E+00 -0.13891156988E+04  0.13891156988E+04  0.00000000000E+00 0. -1.
         25    2    1    2    0    0 -0.33102410553E+02 -0.87558160286E+02 -0.43210178292E+02  0.16202866225E+03  0.12499586739E+03 0.  0.
          2    1    1    2  501    0  0.54485637486E+02  0.22680088711E+02 -0.12806306165E+04  0.12819897999E+04  0.00000000000E+00 0. -1.
          1    1    1    2  502    0 -0.21383226933E+02  0.64878071576E+02  0.21976298613E+03  0.23013512691E+03  0.00000000000E+00 0. -1.
         22    1    3    3    0    0 -0.61008724419E+02 -0.10486037321E+03 -0.44362691218E+02  0.12917356810E+03  0.00000000000E+00 0.  1.
         22    1    3    3    0    0  0.27906313866E+02  0.17302212919E+02  0.11525129262E+01  0.32855094149E+02  0.00000000000E+00 0.  1.
</event>
<event>
 7    1  0.6103724E-006  0.1368004E+03  0.7818608E-02  0.1307836E+00
          2   -1    0    0  502    0  0.00000000000E+00  0.00000000000E+00  0.28283537812E+04  0.28283537812E+04  0.00000000000E+00 0. -1.
          1   -1    0    0  501    0 -0.00000000000E+00 -0.00000000000E+00 -0.21507721416E+03  0.21507721416E+03  0.00000000000E+00 0. -1.
         25    2    1    2    0    0  0.31954117455E+02  0.88622496623E+02  0.24330743361E+03  0.28930657213E+03  0.12499909157E+03 0.  0.
          2    1    1    2  501    0  0.50613059729E+02  0.25275695922E+02 -0.18593531661E+03  0.19435144605E+03  0.00000000000E+00 0. -1.
          1    1    1    2  502    0 -0.82567177184E+02 -0.11389819255E+03  0.25559044500E+04  0.25597729772E+04  0.00000000000E+00 0. -1.
         22    1    3    3    0    0 -0.29964292250E+02  0.89549276711E+02  0.15346724952E+03  0.18019192114E+03  0.00000000000E+00 0.  1.
         22    1    3    3    0    0  0.61918409705E+02 -0.92678008780E+00  0.89840184090E+02  0.10911465098E+03  0.00000000000E+00 0.  1.
</event>
<event>
 7    1  0.6103724E-006  0.4888971E+02  0.7818608E-02  0.1481226E+00
          2   -1    0    0  502    0  0.00000000000E+00  0.00000000000E+00  0.97189547611E+02  0.97189547611E+02  0.00000000000E+00 0. -1.
          1   -1    0    0  501    0 -0.00000000000E+00 -0.00000000000E+00 -0.81985379073E+03  0.81985379073E+03  0.00000000000E+00 0. -1.
         25    2    1    2    0    0 -0.20103347103E+02  0.55631712822E+02 -0.16288690885E+02  0.13926005391E+03  0.12501603548E+03 0.  0.
          2    1    1    2  501    0  0.38207015123E+02 -0.98166879110E+01 -0.72429107726E+03  0.72536453454E+03  0.00000000000E+00 0. -1.
          1    1    1    2  502    0 -0.18103668021E+02 -0.45815024911E+02  0.17915525029E+02  0.52418749894E+02  0.00000000000E+00 0. -1.
         22    1    3    3    0    0 -0.56717308415E+02  0.77208305109E+02 -0.10806525265E+02  0.96409317184E+02  0.00000000000E+00 0. -1.
         22    1    3    3    0    0  0.36613961312E+02 -0.21576592287E+02 -0.54821656199E+01  0.42850736722E+02  0.00000000000E+00 0. -1.
</event>
<event>
 7    1  0.6103724E-006  0.1470434E+03  0.7818608E-02  0.1238773E+00
          2   -1    0    0  502    0  0.00000000000E+00  0.00000000000E+00  0.81017368572E+03  0.81017368572E+03  0.00000000000E+00 0. -1.
          1   -1    0    0  501    0 -0.00000000000E+00 -0.00000000000E+00 -0.72710789437E+03  0.72710789437E+03  0.00000000000E+00 0. -1.
         25    2    1    2    0    0 -0.51967143972E+02  0.13205664998E+03 -0.14789976014E+03  0.24009731785E+03  0.12503135661E+03 0.  0.
          2    1    1    2  501    0  0.10202383096E+03  0.77626114029E+01 -0.52086848768E+03  0.53082304177E+03  0.00000000000E+00 0. -1.
          1    1    1    2  502    0 -0.50056686989E+02 -0.13981926138E+03  0.75183403918E+03  0.76636122046E+03  0.00000000000E+00 0. -1.
         22    1    3    3    0    0 -0.66844108966E+02  0.12604261697E+02 -0.43375620311E+02  0.80674945019E+02  0.00000000000E+00 0. -1.
         22    1    3    3    0    0  0.14876964994E+02  0.11945238828E+03 -0.10452413983E+03  0.15942237284E+03  0.00000000000E+00 0. -1.
</event>
<event>
 7    1  0.6103724E-006  0.1913983E+03  0.7818608E-02  0.1380124E+00
          2   -1    0    0  502    0  0.00000000000E+00  0.00000000000E+00  0.12465111705E+04  0.12465111705E+04  0.00000000000E+00 0. -1.
          1   -1    0    0  501    0 -0.00000000000E+00 -0.00000000000E+00 -0.16688543165E+04  0.16688543165E+04  0.00000000000E+00 0. -1.
         25    2    1    2    0    0  0.63912202981E+02 -0.18517453225E+03  0.22036136975E+03  0.32024717347E+03  0.12499896701E+03 0.  0.
          2    1    1    2  501    0 -0.81827122445E+02  0.17294759481E+03 -0.16131368552E+04  0.16244436162E+04  0.00000000000E+00 0. -1.
          1    1    1    2  502    0  0.17914919464E+02  0.12226937441E+02  0.97043233954E+03  0.97067469729E+03  0.00000000000E+00 0. -1.
         22    1    3    3    0    0  0.75345986329E+02 -0.19828769693E+03  0.21503680763E+03  0.30205273885E+03  0.00000000000E+00 0.  1.
         22    1    3    3    0    0 -0.11433783347E+02  0.13113164680E+02  0.53245621235E+01  0.18194434626E+02  0.00000000000E+00 0.  1.
</event>
<event>
 7    1  0.6103724E-006  0.6175709E+02  0.7818608E-02  0.1398241E+00
          2   -1    0    0  502    0  0.00000000000E+00  0.00000000000E+00  0.43947065814E+03  0.43947065814E+03  0.00000000000E+00 0. -1.
          1   -1    0    0  501    0 -0.00000000000E+00 -0.00000000000E+00 -0.26051539380E+03  0.26051539380E+03  0.00000000000E+00 0. -1.
         25    2    1    2    0    0 -0.27694808833E+02 -0.67640969894E+01 -0.15072930066E+03  0.19788150184E+03  0.12500004500E+03 0.  0.
          2    1    1    2  501    0  0.88131054599E+02 -0.59401677097E+01 -0.60499514876E+02  0.10706334423E+03  0.00000000000E+00 0. -1.
          1    1    1    2  502    0 -0.60436245765E+02  0.12704264699E+02  0.39018407987E+03  0.39504120587E+03  0.00000000000E+00 0. -1.
         22    1    3    3    0    0 -0.55192876899E+02 -0.31951366066E+01 -0.15949122013E+03  0.16880139768E+03  0.00000000000E+00 0.  1.
         22    1    3    3    0    0  0.27498068066E+02 -0.35689603828E+01  0.87619194730E+01  0.29080104168E+02  0.00000000000E+00 0.  1.
</event>
<event>
 7    1  0.6103724E-006  0.2116481E+03  0.7818608E-02  0.1298147E+00
          2   -1    0    0  502    0  0.00000000000E+00  0.00000000000E+00  0.70889038920E+03  0.70889038920E+03  0.00000000000E+00 0. -1.
          1   -1    0    0  501    0 -0.00000000000E+00 -0.00000000000E+00 -0.10218858530E+04  0.10218858530E+04  0.00000000000E+00 0. -1.
         25    2    1    2    0    0  0.22126040406E+03  0.26981061065E+01  0.36640602414E+03  0.44591673194E+03  0.12499964447E+03 0.  0.
          2    1    1    2  501    0 -0.19981805592E+02  0.34612381274E+02 -0.94705464064E+03  0.94789755873E+03  0.00000000000E+00 0. -1.
          1    1    1    2  502    0 -0.20127859847E+03 -0.37310487381E+02  0.26765315266E+03  0.33696195156E+03  0.00000000000E+00 0. -1.
         22    1    3    3    0    0 -0.11010405682E+02 -0.16401840025E+02  0.42646745105E+02  0.46999938910E+02  0.00000000000E+00 0.  1.
         22    1    3    3    0    0  0.23227080974E+03  0.19099946131E+02  0.32375927904E+03  0.39891679303E+03  0.00000000000E+00 0.  1.
</event>
<event>
 7    1  0.6103724E-006  0.5301743E+02  0.7818608E-02  0.1476379E+00
          2   -1    0    0  502    0  0.00000000000E+00  0.00000000000E+00  0.15860544947E+04  0.15860544947E+04  0.00000000000E+00 0. -1.
          1   -1    0    0  501    0 -0.00000000000E+00 -0.00000000000E+00 -0.73481103518E+02  0.73481103518E+02  0.00000000000E+00 0. -1.
         25    2    1    2    0    0  0.33928679314E+02 -0.39321480553E+02  0.71312627687E+02  0.15299410812E+03  0.12499748853E+03 0.  0.
          2    1    1    2  501    0 -0.35003907581E+02 -0.13853839638E+02 -0.21139081044E+02  0.43174797811E+02  0.00000000000E+00 0. -1.
          1    1    1    2  502    0  0.10752282670E+01  0.53175320191E+02  0.14623998446E+04  0.14633666923E+04  0.00000000000E+00 0. -1.
         22    1    3    3    0    0  0.43887581249E+02  0.15405000537E+02 -0.16239267095E+02  0.49266090013E+02  0.00000000000E+00 0.  1.
         22    1    3    3    0    0 -0.99589019351E+01 -0.54726481090E+02  0.87551894782E+02  0.10372801811E+03  0.00000000000E+00 0.  1.
</event>
<event>
 7    1  0.1241193E-005  0.5505965E+02  0.7818608E-02  0.1474986E+00
          2   -1    0    0  502    0  0.00000000000E+00  0.00000000000E+00  0.17347803297E+04  0.17347803297E+04  0.00000000000E+00 0. -1.
          1   -1    0    0  501    0 -0.00000000000E+00 -0.00000000000E+00 -0.16148204172E+04  0.16148204172E+04  0.00000000000E+00 0. -1.
         25    2    1    2    0    0  0.37228002271E+02  0.54470631586E+02 -0.20651384819E+03  0.25025154768E+03  0.12499957506E+03 0.  0.
          2    1    1    2  501    0 -0.36605456485E+02  0.58578456422E+00 -0.13857534361E+04  0.13862369525E+04  0.00000000000E+00 0. -1.
          1    1    1    2  502    0 -0.62254578602E+00 -0.55056416150E+02  0.17122271968E+04  0.17131122468E+04  0.00000000000E+00 0. -1.
         22    1    3    3    0    0  0.82371789055E+02  0.21186120162E+02 -0.13094440704E+03  0.15614224622E+03  0.00000000000E+00 0. -1.
         22    1    3    3    0    0 -0.45143786784E+02  0.33284511423E+02 -0.75569441156E+02  0.94109301466E+02  0.00000000000E+00 0. -1.
</event>
<event>
 7    1  0.6103724E-006  0.8600677E+02  0.7818608E-02  0.1432801E+00
          2   -1    0    0  502    0  0.00000000000E+00  0.00000000000E+00  0.12675117891E+02  0.12675117891E+02  0.00000000000E+00 0. -1.
          1   -1    0    0  501    0 -0.00000000000E+00 -0.00000000000E+00 -0.17105062262E+04  0.17105062262E+04  0.00000000000E+00 0. -1.
         25    2    1    2    0    0 -0.93037172764E+01  0.62660089116E+02 -0.90837834037E+03  0.91912395099E+03  0.12499912844E+03 0.  0.
          2    1    1    2  501    0 -0.14105966250E+02  0.28641915857E+02 -0.46755629182E+03  0.46864509349E+03  0.00000000000E+00 0. -1.
          1    1    1    2  502    0  0.23409683526E+02 -0.91302004974E+02 -0.32189647615E+03  0.33541229965E+03  0.00000000000E+00 0. -1.
         22    1    3    3    0    0 -0.45098663524E+01  0.10048586104E+03 -0.59617827876E+03  0.60460424017E+03  0.00000000000E+00 0.  1.
         22    1    3    3    0    0 -0.47938509240E+01 -0.37825771920E+02 -0.31220006160E+03  0.31451971082E+03  0.00000000000E+00 0.  1.
</event>
<event>
 7    1  0.6103724E-006  0.4982721E+02  0.7818608E-02  0.1463454E+00
          2   -1    0    0  502    0  0.00000000000E+00  0.00000000000E+00  0.26707364611E+03  0.26707364611E+03  0.00000000000E+00 0. -1.
          1   -1    0    0  501    0 -0.00000000000E+00 -0.00000000000E+00 -0.15204755338E+04  0.15204755338E+04  0.00000000000E+00 0. -1.
         25    2    1    2    0    0  0.16897608933E+02  0.84909923217E+01  0.93870742419E+02  0.15746342843E+03  0.12500155548E+03 0.  0.
          2    1    1    2  501    0  0.37105135789E+02 -0.23539175875E+02 -0.14827846729E+04  0.14834356305E+04  0.00000000000E+00 0. -1.
          1    1    1    2  502    0 -0.54002744721E+02  0.15048183553E+02  0.13551204270E+03  0.14665012098E+03  0.00000000000E+00 0. -1.
         22    1    3    3    0    0  0.20725723998E+02 -0.56691221777E+02  0.36454116197E+02  0.70514912249E+02  0.00000000000E+00 0.  1.
         22    1    3    3    0    0 -0.38281150650E+01  0.65182214099E+02  0.57416626222E+02  0.86948516183E+02  0.00000000000E+00 0.  1.
</event>
<event>
 7    1  0.6103724E-006  0.1123124E+03  0.7818608E-02  0.1264038E+00
          2   -1    0    0  502    0  0.00000000000E+00  0.00000000000E+00  0.17394528432E+04  0.17394528432E+04  0.00000000000E+00 0. -1.
          1   -1    0    0  501    0 -0.00000000000E+00 -0.00000000000E+00 -0.32897556187E+03  0.32897556187E+03  0.00000000000E+00 0. -1.
         25    2    1    2    0    0  0.69828118665E+02 -0.71710190744E+02  0.18340826302E+02  0.16118302947E+03  0.12500106187E+03 0.  0.
          2    1    1    2  501    0 -0.96545830535E+02 -0.39035712480E+02 -0.24496660253E+03  0.26618324628E+03  0.00000000000E+00 0. -1.
          1    1    1    2  502    0  0.26717711870E+02  0.11074590322E+03  0.16371030576E+04  0.16410621294E+04  0.00000000000E+00 0. -1.
         22    1    3    3    0    0  0.17134390216E+02  0.17123987196E+02 -0.36831871765E+02  0.44084067908E+02  0.00000000000E+00 0.  1.
         22    1    3    3    0    0  0.52693728449E+02 -0.88834177940E+02  0.55172698067E+02  0.11709896157E+03  0.00000000000E+00 0.  1.
</event>
<event>
 7    1  0.6103724E-006  0.1435765E+03  0.7818608E-02  0.1310339E+00
          2   -1    0    0  502    0  0.00000000000E+00  0.00000000000E+00  0.45759470300E+03  0.45759470300E+03  0.00000000000E+00 0. -1.
          1   -1    0    0  501    0 -0.00000000000E+00 -0.00000000000E+00 -0.11266567484E+03  0.11266567484E+03  0.00000000000E+00 0. -1.
         25    2    1    2    0    0 -0.11451605495E+03  0.33385598837E+02  0.42746536497E+02  0.17799174039E+03  0.12500107285E+03 0.  0.
          2    1    1    2  501    0 -0.36645399010E+02 -0.37860962905E+02 -0.18268513714E+01  0.52722624808E+02  0.00000000000E+00 0. -1.
          1    1    1    2  502    0  0.15116145396E+03  0.44753640678E+01  0.30400934304E+03  0.33954601264E+03  0.00000000000E+00 0. -1.
         22    1    3    3    0    0 -0.40133513101E+02 -0.29646146497E+02 -0.28292279485E+02  0.57358922187E+02  0.00000000000E+00 0. -1.
         22    1    3    3    0    0 -0.74382541849E+02  0.63031745335E+02  0.71038815982E+02  0.12063281820E+03  0.00000000000E+00 0. -1.
</event>
<event>
 7    1  0.6103724E-006  0.7051239E+02  0.7818608E-02  0.1488520E+00
          2   -1    0    0  502    0  0.00000000000E+00  0.00000000000E+00  0.18376978407E+04  0.18376978407E+04  0.00000000000E+00 0. -1.
          1   -1    0    0  501    0 -0.00000000000E+00 -0.00000000000E+00 -0.95149647510E+02  0.95149647510E+02  0.00000000000E+00 0. -1.
         25    2    1    2    0    0  0.62197402786E+02 -0.69828907083E+02  0.68621294642E+03  0.70374533292E+03  0.12499877038E+03 0.  0.
          2    1    1    2  501    0 -0.14409635909E+02  0.21625752129E+02 -0.83396243874E+02  0.87351269336E+02  0.00000000000E+00 0. -1.
          1    1    1    2  502    0 -0.47787766877E+02  0.48203154954E+02  0.11397314906E+04  0.11417508859E+04  0.00000000000E+00 0. -1.
         22    1    3    3    0    0 -0.37954934751E+02 -0.93610516700E+01  0.17721543598E+03  0.18147594085E+03  0.00000000000E+00 0.  1.
         22    1    3    3    0    0  0.10015233754E+03 -0.60467855413E+02  0.50899751044E+03  0.52226939206E+03  0.00000000000E+00 0.  1.
</event>
<event>
 7    1  0.6103724E-006  0.2097768E+03  0.7818608E-02  0.1235104E+00
          2   -1    0    0  502    0  0.00000000000E+00  0.00000000000E+00  0.69210015594E+03  0.69210015594E+03  0.00000000000E+00 0. -1.
          1   -1    0    0  501    0 -0.00000000000E+00 -0.00000000000E+00 -0.72407370462E+03  0.72407370462E+03  0.00000000000E+00 0. -1.
         25    2    1    2    0    0  0.91937041085E+02 -0.12720968268E+03 -0.24327964693E+03  0.31534854145E+03  0.12499997238E+03 0.  0.
          2    1    1    2  501    0 -0.16811668553E+02 -0.72534845541E+02 -0.42407585887E+03  0.43056273654E+03  0.00000000000E+00 0. -1.
          1    1    1    2  502    0 -0.75125372532E+02  0.19974452822E+03  0.63538195712E+03  0.67026258256E+03  0.00000000000E+00 0. -1.
         22    1    3    3    0    0  0.58055745370E+02 -0.56343634336E+02 -0.27066477864E+02  0.85309254624E+02  0.00000000000E+00 0. -1.
         22    1    3    3    0    0  0.33881295715E+02 -0.70866048342E+02 -0.21621316907E+03  0.23003928683E+03  0.00000000000E+00 0. -1.
</event>
<event>
 7    1  0.6103724E-006  0.1384659E+03  0.7818608E-02  0.1317041E+00
          2   -1    0    0  502    0  0.00000000000E+00  0.00000000000E+00  0.19266432036E+04  0.19266432036E+04  0.00000000000E+00 0. -1.
          1   -1    0    0  501    0 -0.00000000000E+00 -0.00000000000E+00 -0.16354686178E+03  0.16354686178E+03  0.00000000000E+00 0. -1.
         25    2    1    2    0    0  0.96270950508E+02  0.10175413759E+03  0.51638422507E+03  0.54945102800E+03  0.12498705471E+03 0.  0.
          2    1    1    2  501    0 -0.12554790071E+03 -0.59470091295E+02 -0.11360031139E+03  0.17945472375E+03  0.00000000000E+00 0. -1.
          1    1    1    2  502    0  0.29276950198E+02 -0.42284046296E+02  0.13603124282E+04  0.13612843137E+04  0.00000000000E+00 0. -1.
         22    1    3    3    0    0  0.94455703964E+02  0.57424739926E+02  0.18805632077E+03  0.21813908533E+03  0.00000000000E+00 0.  1.
         22    1    3    3    0    0  0.18152465444E+01  0.44329397665E+02  0.32832790430E+03  0.33131194267E+03  0.00000000000E+00 0.  1.
</event>
<event>
 7    1  0.6103724E-006  0.1060490E+03  0.7818608E-02  0.1321868E+00
          2   -1    0    0  502    0  0.00000000000E+00  0.00000000000E+00  0.58456554540E+03  0.58456554540E+03  0.00000000000E+00 0. -1.
          1   -1    0    0  501    0 -0.00000000000E+00 -0.00000000000E+00 -0.53004783135E+03  0.53004783135E+03  0.00000000000E+00 0. -1.
         25    2    1    2    0    0  0.10282621963E+01  0.44471766912E+02 -0.14579060717E+03  0.19712713452E+03  0.12500164258E+03 0.  0.
          2    1    1    2  501    0 -0.14769206072E+02  0.62595697868E+02 -0.35042283076E+03  0.35627589191E+03  0.00000000000E+00 0. -1.
          1    1    1    2  502    0  0.13740943876E+02 -0.10706746478E+03  0.55073115198E+03  0.56121035033E+03  0.00000000000E+00 0. -1.
         22    1    3    3    0    0  0.32275209645E+02  0.52090395828E+02 -0.15243027808E+03  0.16428660375E+03  0.00000000000E+00 0.  1.
         22    1    3    3    0    0 -0.31246947449E+02 -0.76186289163E+01  0.66396709070E+01  0.32840530769E+02  0.00000000000E+00 0.  1.
</event>
<event>
 7    1  0.6103724E-006  0.6640823E+02  0.7818608E-02  0.1432928E+00
          2   -1    0    0  502    0  0.00000000000E+00  0.00000000000E+00  0.10615527501E+03  0.10615527501E+03  0.00000000000E+00 0. -1.
          1   -1    0    0  501    0 -0.00000000000E+00 -0.00000000000E+00 -0.64804575055E+03  0.64804575055E+03  0.00000000000E+00 0. -1.
         25    2    1    2    0    0  0.93427060845E+02 -0.42743271978E+02 -0.24055421967E+03  0.28990836059E+03  0.12499968777E+03 0.  0.
          2    1    1    2  501    0 -0.59764540207E+02  0.18798682098E+02 -0.37480565702E+03  0.38000588318E+03  0.00000000000E+00 0. -1.
          1    1    1    2  502    0 -0.33662520637E+02  0.23944589880E+02  0.73469401149E+02  0.84286781795E+02  0.00000000000E+00 0. -1.
         22    1    3    3    0    0  0.10932182203E+02 -0.45438095401E+02 -0.18402660655E+03  0.18986817806E+03  0.00000000000E+00 0.  1.
         22    1    3    3    0    0  0.82494878642E+02  0.26948234228E+01 -0.56527613119E+02  0.10004018253E+03  0.00000000000E+00 0.  1.
</event>
<event>
 7    1  0.6103724E-006  0.9003686E+02  0.7818608E-02  0.1350480E+00
          2   -1    0    0  502    0  0.00000000000E+00  0.00000000000E+00  0.14453171311E+04  0.14453171311E+04  0.00000000000E+00 0. -1.
          1   -1    0    0  501    0 -0.00000000000E+00 -0.00000000000E+00 -0.88610700116E+02  0.88610700116E+02  0.00000000000E+00 0. -1.
         25    2    1    2    0    0 -0.14861887737E+02  0.14071884342E+03  0.56042597058E+03  0.59137513553E+03  0.12499845530E+03 0.  0.
          2    1    1    2  501    0  0.28083929809E+02 -0.83183481366E+02 -0.45375536926E+02  0.98828832013E+02  0.00000000000E+00 0. -1.
          1    1    1    2  502    0 -0.13222042071E+02 -0.57535362056E+02  0.84165599737E+03  0.84372386371E+03  0.00000000000E+00 0. -1.
         22    1    3    3    0    0 -0.75040513367E+01  0.16262797629E+02  0.69135718039E+00  0.17923932267E+02  0.00000000000E+00 0. -1.
         22    1    3    3    0    0 -0.73578364006E+01  0.12445604579E+03  0.55973461340E+03  0.57345120327E+03  0.00000000000E+00 0. -1.
</event>
<event>
 7    1  0.6103724E-006  0.2003482E+03  0.7818608E-02  0.1298357E+00
          2   -1    0    0  502    0  0.00000000000E+00  0.00000000000E+00  0.25225336559E+04  0.25225336559E+04  0.00000000000E+00 0. -1.
          1   -1    0    0  501    0 -0.00000000000E+00 -0.00000000000E+00 -0.39374699103E+03  0.39374699103E+03  0.00000000000E+00 0. -1.
         25    2    1    2    0    0  0.20326597062E+03  0.88127212515E+02  0.53066495542E+03  0.58848446135E+03  0.12500082376E+03 0.  0.
          2    1    1    2  501    0 -0.37678828221E+02  0.18866382482E+02 -0.35865063071E+03  0.36111758389E+03  0.00000000000E+00 0. -1.
          1    1    1    2  502    0 -0.16558714240E+03 -0.10699359500E+03  0.19567723401E+04  0.19666786016E+04  0.00000000000E+00 0. -1.
         22    1    3    3    0    0  0.21424037439E+03  0.78243885600E+02  0.43003272996E+03  0.48677427263E+03  0.00000000000E+00 0.  1.
         22    1    3    3    0    0 -0.10974403775E+02  0.98833269148E+01  0.10063222546E+03  0.10171018872E+03  0.00000000000E+00 0.  1.
</event>
<event>
 7    1  0.6103724E-006  0.6616406E+02  0.7818608E-02  0.1504384E+00
          2   -1    0    0  502    0  0.00000000000E+00  0.00000000000E+00  0.36144911802E+02  0.36144911802E+02  0.00000000000E+00 0. -1.
          1   -1    0    0  501    0 -0.00000000000E+00 -0.00000000000E+00 -0.22833982887E+04  0.22833982887E+04  0.00000000000E+00 0. -1.
         25    2    1    2    0    0 -0.89681320004E+02  0.79256429648E+00 -0.89956109554E+03  0.91262147403E+03  0.12499769172E+03 0.  0.
          2    1    1    2  501    0  0.24520004235E+02 -0.38541184676E+01 -0.13411295732E+04  0.13413592423E+04  0.00000000000E+00 0. -1.
          1    1    1    2  502    0  0.65161315769E+02  0.30615541712E+01 -0.65627081277E+01  0.65562484125E+02  0.00000000000E+00 0. -1.
         22    1    3    3    0    0 -0.94106938304E+02 -0.47222600587E+02 -0.64419075143E+03  0.65273870275E+03  0.00000000000E+00 0.  1.
         22    1    3    3    0    0  0.44256182997E+01  0.48015164883E+02 -0.25537034412E+03  0.25988277128E+03  0.00000000000E+00 0.  1.
</event>
<event>
 7    1  0.1381110E-005  0.7572023E+02  0.7818608E-02  0.1403302E+00
          2   -1    0    0  502    0  0.00000000000E+00  0.00000000000E+00  0.17097895924E+04  0.17097895924E+04  0.00000000000E+00 0. -1.
          1   -1    0    0  501    0 -0.00000000000E+00 -0.00000000000E+00 -0.14864128062E+04  0.14864128062E+04  0.00000000000E+00 0. -1.
         25    2    1    2    0    0 -0.53068671855E+02  0.47856010304E+02 -0.50298346591E+03  0.52318631321E+03  0.12500027877E+03 0.  0.
          2    1    1    2  501    0 -0.22243356989E+02 -0.39726500582E+02 -0.97195077097E+03  0.97301657898E+03  0.00000000000E+00 0. -1.
          1    1    1    2  502    0  0.75312028844E+02 -0.81295097224E+01  0.16983110231E+04  0.16999995064E+04  0.00000000000E+00 0. -1.
         22    1    3    3    0    0 -0.72140279458E+01  0.61019759428E+02 -0.43950565545E+03  0.44377998424E+03  0.00000000000E+00 0. -1.
         22    1    3    3    0    0 -0.45854643909E+02 -0.13163749124E+02 -0.63477810458E+02  0.79406328964E+02  0.00000000000E+00 0. -1.
</event>
<event>
 7    1  0.6103724E-006  0.7099160E+02  0.7818608E-02  0.1470676E+00
          2   -1    0    0  502    0  0.00000000000E+00  0.00000000000E+00  0.63691897470E+03  0.63691897470E+03  0.00000000000E+00 0. -1.
          1   -1    0    0  501    0 -0.00000000000E+00 -0.00000000000E+00 -0.31976421901E+03  0.31976421901E+03  0.00000000000E+00 0. -1.
         25    2    1    2    0    0 -0.13699345458E+02  0.40506404286E+02 -0.39940799203E+02  0.13801948561E+03  0.12500268042E+03 0.  0.
          2    1    1    2  501    0 -0.14733318029E+02  0.25303791689E+02 -0.22765738692E+03  0.22953265205E+03  0.00000000000E+00 0. -1.
          1    1    1    2  502    0  0.28432663487E+02 -0.65810195975E+02  0.58475294182E+03  0.58913105606E+03  0.00000000000E+00 0. -1.
         22    1    3    3    0    0  0.37485757879E+02  0.45314111903E+01 -0.61227709664E+02  0.71934332289E+02  0.00000000000E+00 0. -1.
         22    1    3    3    0    0 -0.51185103337E+02  0.35974993095E+02  0.21286910461E+02  0.66085153316E+02  0.00000000000E+00 0. -1.
</event>
<event>
 7    1  0.6103724E-006  0.1083252E+03  0.7818608E-02  0.1273910E+00
          2   -1    0    0  502    0  0.00000000000E+00  0.00000000000E+00  0.19340036792E+04  0.19340036792E+04  0.00000000000E+00 0. -1.
          1   -1    0    0  501    0 -0.00000000000E+00 -0.00000000000E+00 -0.72581039598E+02  0.72581039598E+02  0.00000000000E+00 0. -1.
         25    2    1    2    0    0 -0.14180896627E+03 -0.10022441738E+02  0.35278148268E+03  0.40036121953E+03  0.12499639727E+03 0.  0.
          2    1    1    2  501    0  0.72915218894E+02  0.79896331329E+02  0.14813440889E+02  0.10917642116E+03  0.00000000000E+00 0. -1.
          1    1    1    2  502    0  0.68893747379E+02 -0.69873889591E+02  0.14938277160E+04  0.14970470781E+04  0.00000000000E+00 0. -1.
         22    1    3    3    0    0 -0.56924305641E+01  0.39489489521E+02  0.44610728754E+02  0.59849316357E+02  0.00000000000E+00 0.  1.
         22    1    3    3    0    0 -0.13611653571E+03 -0.49511931258E+02  0.30817075392E+03  0.34051190318E+03  0.00000000000E+00 0.  1.
</event>
<event>
 7    1  0.6103724E-006  0.1826739E+03  0.7818608E-02  0.1340641E+00
          2   -1    0    0  502    0  0.00000000000E+00  0.00000000000E+00  0.10228005999E+04  0.10228005999E+04  0.00000000000E+00 0. -1.
          1   -1    0    0  501    0 -0.00000000000E+00 -0.00000000000E+00 -0.70001346601E+03  0.70001346601E+03  0.00000000000E+00 0. -1.
         25    2    1    2    0    0  0.20628335893E+03  0.41012000751E+02  0.69862462064E+03  0.74022720616E+03  0.12500059117E+03 0.  0.
          2    1    1    2  501    0 -0.17557583867E+03 -0.48732328261E+02 -0.66611510071E+03  0.69058746176E+03  0.00000000000E+00 0. -1.
          1    1    1    2  502    0 -0.30707520260E+02  0.77203275098E+01  0.29027761392E+03  0.29199939795E+03  0.00000000000E+00 0. -1.
         22    1    3    3    0    0 -0.44994795244E+01 -0.23956734910E+01 -0.32870092243E+01  0.60653934008E+01  0.00000000000E+00 0. -1.
         22    1    3    3    0    0  0.21078283845E+03  0.43407674242E+02  0.70191162987E+03  0.73416181276E+03  0.00000000000E+00 0. -1.
</event>
<event>
 7    1  0.6103724E-006  0.1591400E+03  0.7818608E-02  0.1320782E+00
          2   -1    0    0  502    0  0.00000000000E+00  0.00000000000E+00  0.67105146901E+03  0.67105146901E+03  0.00000000000E+00 0. -1.
          1   -1    0    0  501    0 -0.00000000000E+00 -0.00000000000E+00 -0.25373026469E+04  0.25373026469E+04  0.00000000000E+00 0. -1.
         25    2    1    2    0    0  0.81798818433E+02 -0.18361441649E+03 -0.66801422162E+03  0.70871178383E+03  0.12499636640E+03 0.  0.
          2    1    1    2  501    0 -0.10546804347E+02  0.41970716645E+02 -0.18390226037E+04  0.18395317102E+04  0.00000000000E+00 0. -1.
          1    1    1    2  502    0 -0.71252014086E+02  0.14164369985E+03  0.64078564737E+03  0.66011062187E+03  0.00000000000E+00 0. -1.
         22    1    3    3    0    0  0.80903482249E+01 -0.64006262789E+02 -0.40890614255E+03  0.41396435695E+03  0.00000000000E+00 0.  1.
         22    1    3    3    0    0  0.73708470208E+02 -0.11960815371E+03 -0.25910807907E+03  0.29474742688E+03  0.00000000000E+00 0.  1.
</event>
<event>
 7    1  0.6103724E-006  0.1448852E+03  0.7818608E-02  0.1393447E+00
          2   -1    0    0  502    0  0.00000000000E+00  0.00000000000E+00  0.28401666509E+03  0.28401666509E+03  0.00000000000E+00 0. -1.
          1   -1    0    0  501    0 -0.00000000000E+00 -0.00000000000E+00 -0.26593975394E+04  0.26593975394E+04  0.00000000000E+00 0. -1.
         25    2    1    2    0    0  0.69274906141E+02  0.10954235643E+03 -0.12656279886E+04  0.12783724840E+04  0.12499384749E+03 0.  0.
          2    1    1    2  501    0 -0.81897118701E+02 -0.13196445602E+03 -0.13824431855E+04  0.13911401499E+04  0.00000000000E+00 0. -1.
          1    1    1    2  502    0  0.12622212560E+02  0.22422099588E+02  0.27269029972E+03  0.27390157057E+03  0.00000000000E+00 0. -1.
         22    1    3    3    0    0  0.92190094915E+02  0.52043654502E+02 -0.10019322801E+04  0.10075097268E+04  0.00000000000E+00 0.  1.
         22    1    3    3    0    0 -0.22915188774E+02  0.57498701930E+02 -0.26369570841E+03  0.27086275719E+03  0.00000000000E+00 0.  1.
</event>
<event>
 7    1  0.6103724E-006  0.5387150E+02  0.7818608E-02  0.1434025E+00
          2   -1    0    0  502    0  0.00000000000E+00  0.00000000000E+00  0.40218604309E+03  0.40218604309E+03  0.00000000000E+00 0. -1.
          1   -1    0    0  501    0 -0.00000000000E+00 -0.00000000000E+00 -0.42212525970E+03  0.42212525970E+03  0.00000000000E+00 0. -1.
         25    2    1    2    0    0  0.88277773157E+02 -0.16393758373E+02 -0.10214443059E+03  0.18471331593E+03  0.12499521524E+03 0.  0.
          2    1    1    2  501    0 -0.47210170559E+02 -0.17939406082E+02 -0.27439428869E+03  0.27900331210E+03  0.00000000000E+00 0. -1.
          1    1    1    2  502    0 -0.41067602598E+02  0.34333164455E+02  0.35659950267E+03  0.36059467477E+03  0.00000000000E+00 0. -1.
         22    1    3    3    0    0  0.62795353953E+02  0.20261582067E+02 -0.11974925234E+03  0.13672480251E+03  0.00000000000E+00 0. -1.
         22    1    3    3    0    0  0.25482419205E+02 -0.36655340440E+02  0.17604821745E+02  0.47988513417E+02  0.00000000000E+00 0. -1.
</event>
<event>
 7    1  0.6103724E-006  0.8385505E+02  0.7818608E-02  0.1477999E+00
          2   -1    0    0  502    0  0.00000000000E+00  0.00000000000E+00  0.16049090862E+03  0.16049090862E+03  0.00000000000E+00 0. -1.
          1   -1    0    0  501    0 -0.00000000000E+00 -0.00000000000E+00 -0.59053101023E+03  0.59053101023E+03  0.00000000000E+00 0. -1.
         25    2    1    2    0    0 -0.15379231790E+02 -0.61784935212E+02 -0.90378321231E+02  0.16687511598E+03  0.12500065757E+03 0.  0.
          2    1    1    2  501    0  0.29011214774E+02  0.80963367419E+02 -0.45672003575E+03  0.46474714470E+03  0.00000000000E+00 0. -1.
          1    1    1    2  502    0 -0.13631982984E+02 -0.19178432207E+02  0.11705825537E+03  0.11939965817E+03  0.00000000000E+00 0. -1.
         22    1    3    3    0    0  0.14006896869E+01 -0.98574171074E+02 -0.53587218786E+02  0.11220703700E+03  0.00000000000E+00 0. -1.
         22    1    3    3    0    0 -0.16779921477E+02  0.36789235861E+02 -0.36791102445E+02  0.54668078978E+02  0.00000000000E+00 0. -1.
</event>
<event>
 7    1  0.6103724E-006  0.1638566E+03  0.7818608E-02  0.1311372E+00
          2   -1    0    0  502    0  0.00000000000E+00  0.00000000000E+00  0.18721503533E+04  0.18721503533E+04  0.00000000000E+00 0. -1.
          1   -1    0    0  501    0 -0.00000000000E+00 -0.00000000000E+00 -0.95006284704E+03  0.95006284704E+03  0.00000000000E+00 0. -1.
         25    2    1    2    0    0 -0.14488383915E+03  0.62344801105E+01  0.73631031394E+02  0.20514741170E+03  0.12503493972E+03 0.  0.
          2    1    1    2  501    0 -0.16312066791E+02 -0.42731935913E+02 -0.87976806722E+03  0.88095627245E+03  0.00000000000E+00 0. -1.
          1    1    1    2  502    0  0.16119590594E+03  0.36497455802E+02  0.17282245421E+04  0.17361095162E+04  0.00000000000E+00 0. -1.
         22    1    3    3    0    0 -0.15232711389E+03 -0.15668029079E+02  0.89244229840E+02  0.17723873539E+03  0.00000000000E+00 0. -1.
         22    1    3    3    0    0  0.74432747380E+01  0.21902509190E+02 -0.15613198446E+02  0.27908676310E+02  0.00000000000E+00 0. -1.
</event>
<event>
 7    1  0.6103724E-006  0.1677848E+03  0.7818608E-02  0.1245931E+00
          2   -1    0    0  502    0  0.00000000000E+00  0.00000000000E+00  0.28900018754E+03  0.28900018754E+03  0.00000000000E+00 0. -1.
          1   -1    0    0  501    0 -0.00000000000E+00 -0.00000000000E+00 -0.18381285410E+04  0.18381285410E+04  0.00000000000E+00 0. -1.
         25    2    1    2    0    0  0.10626663659E+03  0.29606364470E+02 -0.33462272868E+03  0.37385399103E+03  0.12500120474E+03 0.  0.
          2    1    1    2  501    0 -0.16112534874E+03 -0.92434081502E+02 -0.14714516247E+04  0.14831302442E+04  0.00000000000E+00 0. -1.
          1    1    1    2  502    0  0.54858712150E+02  0.62827717032E+02  0.25694599998E+03  0.27014449325E+03  0.00000000000E+00 0. -1.
         22    1    3    3    0    0  0.74401629494E+02 -0.41034816665E+02 -0.21653240502E+03  0.23260640807E+03  0.00000000000E+00 0.  1.
         22    1    3    3    0    0  0.31865007099E+02  0.70641181136E+02 -0.11809032366E+03  0.14124758296E+03  0.00000000000E+00 0.  1.
</event>
<event>
 7    1  0.6103724E-006  0.6573043E+02  0.7818608E-02  0.1401202E+00
          2   -1    0    0  502    0  0.00000000000E+00  0.00000000000E+00  0.22050394335E+03  0.22050394335E+03  0.00000000000E+00 0. -1.
          1   -1    0    0  501    0 -0.00000000000E+00 -0.00000000000E+00 -0.18489947419E+04  0.18489947419E+04  0.00000000000E+00 0. -1.
         25    2    1    2    0    0 -0.67163554599E+02  0.17731082759E+02 -0.30386957507E+02  0.14619490137E+03  0.12499699051E+03 0.  0.
          2    1    1    2  501    0  0.98485735999E+01 -0.52408513729E+02 -0.17533815612E+04  0.17541922773E+04  0.00000000000E+00 0. -1.
          1    1    1    2  502    0  0.57314980999E+02  0.34677430970E+02  0.15527772016E+03  0.16911150654E+03  0.00000000000E+00 0. -1.
         22    1    3    3    0    0 -0.10282128135E+03 -0.52649535786E+00 -0.24538474097E+02  0.10571012159E+03  0.00000000000E+00 0. -1.
         22    1    3    3    0    0  0.35657726748E+02  0.18257578117E+02 -0.58484834105E+01  0.40484779779E+02  0.00000000000E+00 0. -1.
</event>
<event>
 7    1  0.6103724E-006  0.9842037E+02  0.7818608E-02  0.1285097E+00
          2   -1    0    0  502    0  0.00000000000E+00  0.00000000000E+00  0.43263112554E+03  0.43263112554E+03  0.00000000000E+00 0. -1.
          1   -1    0    0  501    0 -0.00000000000E+00 -0.00000000000E+00 -0.75232031947E+03  0.75232031947E+03  0.00000000000E+00 0. -1.
         25    2    1    2    0    0  0.10687480314E+03  0.10215100915E+03 -0.44185393389E+03  0.48240808017E+03  0.12500241877E+03 0.  0.
          2    1    1    2  501    0 -0.96986239950E+02 -0.44178271769E+01 -0.27592797419E+03  0.29250999107E+03  0.00000000000E+00 0. -1.
          1    1    1    2  502    0 -0.98885631898E+01 -0.97733181971E+02  0.39809271415E+03  0.41003337377E+03  0.00000000000E+00 0. -1.
         22    1    3    3    0    0  0.68633492549E+02  0.89020815197E+02 -0.14831898707E+03  0.18610154154E+03  0.00000000000E+00 0. -1.
         22    1    3    3    0    0  0.38241310591E+02  0.13130193951E+02 -0.29353494682E+03  0.29630653863E+03  0.00000000000E+00 0. -1.
</event>
<event>
 7    1  0.6103724E-006  0.6561318E+02  0.7818608E-02  0.1457174E+00
          2   -1    0    0  502    0  0.00000000000E+00  0.00000000000E+00  0.41793616297E+03  0.41793616297E+03  0.00000000000E+00 0. -1.
          1   -1    0    0  501    0 -0.00000000000E+00 -0.00000000000E+00 -0.11796066908E+03  0.11796066908E+03  0.00000000000E+00 0. -1.
         25    2    1    2    0    0  0.34351060021E+02  0.32740439282E+02  0.17743320463E+03  0.22217043657E+03  0.12500091636E+03 0.  0.
          2    1    1    2  501    0  0.33432764170E+02 -0.10105277772E+02 -0.86244397551E+02  0.93048172834E+02  0.00000000000E+00 0. -1.
          1    1    1    2  502    0 -0.67783824191E+02 -0.22635161511E+02  0.20878668680E+03  0.22067822264E+03  0.00000000000E+00 0. -1.
         22    1    3    3    0    0  0.47491547435E+02 -0.34454144996E+02  0.48248547008E+02  0.75963527258E+02  0.00000000000E+00 0.  1.
         22    1    3    3    0    0 -0.13140487413E+02  0.67194584278E+02  0.12918465763E+03  0.14620690932E+03  0.00000000000E+00 0.  1.
</event>
<event>
 7    1  0.6103724E-006  0.4437688E+02  0.7818608E-02  0.1572231E+00
          2   -1    0    0  502    0  0.00000000000E+00  0.00000000000E+00  0.36853181358E+02  0.36853181358E+02  0.00000000000E+00 0. -1.
          1   -1    0    0  501    0 -0.00000000000E+00 -0.00000000000E+00 -0.24126251052E+04  0.24126251052E+04  0.00000000000E+00 0. -1.
         25    2    1    2    0    0 -0.29960370667E+02 -0.11868243983E+01 -0.16431637278E+04  0.16481841750E+04  0.12500002352E+03 0.  0.
          2    1    1    2  501    0  0.47043324868E+02 -0.15336238085E+02 -0.76193856830E+03  0.76354348696E+03  0.00000000000E+00 0. -1.
          1    1    1    2  502    0 -0.17082954201E+02  0.16523062483E+02  0.29330372300E+02  0.37750624595E+02  0.00000000000E+00 0. -1.
         22    1    3    3    0    0  0.19280590062E+02  0.48166889174E+02 -0.44910419977E+03  0.45209111097E+03  0.00000000000E+00 0. -1.
         22    1    3    3    0    0 -0.49240960729E+02 -0.49353713573E+02 -0.11940595280E+04  0.11960930640E+04  0.00000000000E+00 0. -1.
</event>
<event>
 7    1  0.6103724E-006  0.9347958E+02  0.7818608E-02  0.1456123E+00
          2   -1    0    0  502    0  0.00000000000E+00  0.00000000000E+00  0.67497462135E+03  0.67497462135E+03  0.00000000000E+00 0. -1.
          1   -1    0    0  501    0 -0.00000000000E+00 -0.00000000000E+00 -0.90687006594E+02  0.90687006594E+02  0.00000000000E+00 0. -1.
         25    2    1    2    0    0 -0.57479390593E+02 -0.42851619777E+02  0.10739628595E+03  0.17971891638E+03  0.12499914004E+03 0.  0.
          2    1    1    2  501    0 -0.16951664728E+02 -0.17969969710E+02 -0.47112137322E+02  0.53196167451E+02  0.00000000000E+00 0. -1.
          1    1    1    2  502    0  0.74431055321E+02  0.60821589488E+02  0.52400346613E+03  0.53274654411E+03  0.00000000000E+00 0. -1.
         22    1    3    3    0    0 -0.58866258734E+02 -0.76456590271E+02  0.40114565471E+02  0.10449892333E+03  0.00000000000E+00 0. -1.
         22    1    3    3    0    0  0.13868681413E+01  0.33604970494E+02  0.67281720476E+02  0.75219993056E+02  0.00000000000E+00 0. -1.
</event>
<event>
 7    1  0.6103724E-006  0.9714822E+02  0.7818608E-02  0.1376157E+00
          2   -1    0    0  502    0  0.00000000000E+00  0.00000000000E+00  0.20433028115E+04  0.20433028115E+04  0.00000000000E+00 0. -1.
          1   -1    0    0  501    0 -0.00000000000E+00 -0.00000000000E+00 -0.47560673486E+02  0.47560673486E+02  0.00000000000E+00 0. -1.
         25    2    1    2    0    0 -0.56512158615E+02  0.49547861769E+02  0.86220641535E+03  0.87445602174E+03  0.12499926642E+03 0.  0.
          2    1    1    2  501    0  0.40245800208E+02 -0.90582766655E+02  0.18910715756E+02  0.10090875690E+03  0.00000000000E+00 0. -1.
          1    1    1    2  502    0  0.16266358407E+02  0.41034904885E+02  0.11146250069E+04  0.11154987063E+04  0.00000000000E+00 0. -1.
         22    1    3    3    0    0 -0.62273049899E+02 -0.59233109601E+01  0.70274389187E+03  0.70552249852E+03  0.00000000000E+00 0. -1.
         22    1    3    3    0    0  0.57608912840E+01  0.55471172729E+02  0.15946252348E+03  0.16893352322E+03  0.00000000000E+00 0. -1.
</event>
<event>
 7    1  0.6103724E-006  0.6287866E+02  0.7818608E-02  0.1438249E+00
          2   -1    0    0  502    0  0.00000000000E+00  0.00000000000E+00  0.21605076869E+03  0.21605076869E+03  0.00000000000E+00 0. -1.
          1   -1    0    0  501    0 -0.00000000000E+00 -0.00000000000E+00 -0.95942975645E+03  0.95942975645E+03  0.00000000000E+00 0. -1.
         25    2    1    2    0    0  0.61751873932E+01  0.57910992955E+02 -0.54530660300E+03  0.56247252789E+03  0.12499694920E+03 0.  0.
          2    1    1    2  501    0  0.39386211459E+02 -0.14346009961E+02 -0.39963017892E+03  0.40182254984E+03  0.00000000000E+00 0. -1.
          1    1    1    2  502    0 -0.45561398852E+02 -0.43564982993E+02  0.20155779416E+03  0.21118544740E+03  0.00000000000E+00 0. -1.
         22    1    3    3    0    0 -0.29649233983E+02  0.70571901862E+02 -0.48632158953E+03  0.49230900748E+03  0.00000000000E+00 0.  1.
         22    1    3    3    0    0  0.35824421376E+02 -0.12660908907E+02 -0.58985013474E+02  0.70163520406E+02  0.00000000000E+00 0.  1.
</event>
<event>
 7    1  0.6103724E-006  0.4293976E+02  0.7818608E-02  0.1529943E+00
          2   -1    0    0  502    0  0.00000000000E+00  0.00000000000E+00  0.16948080213E+04  0.16948080213E+04  0.00000000000E+00 0. -1.
          1   -1    0    0  501    0 -0.00000000000E+00 -0.00000000000E+00 -0.11734001409E+03  0.11734001409E+03  0.00000000000E+00 0. -1.
         25    2    1    2    0    0 -0.23612995426E+02 -0.50401068321E+02  0.21422595710E+03  0.25420765309E+03  0.12502371357E+03 0.  0.
          2    1    1    2  501    0 -0.13664310328E+02  0.29174696020E+02 -0.94359608669E+02  0.99707632670E+02  0.00000000000E+00 0. -1.
          1    1    1    2  502    0  0.37277305754E+02  0.21226372300E+02  0.14576016588E+04  0.14582327496E+04  0.00000000000E+00 0. -1.
         22    1    3    3    0    0  0.87843744415E+01 -0.22618772912E+00 -0.14969572563E+02  0.17358124839E+02  0.00000000000E+00 0.  1.
         22    1    3    3    0    0 -0.32397369868E+02 -0.50174880592E+02  0.22919552966E+03  0.23684952825E+03  0.00000000000E+00 0.  1.
</event>
<event>
 7    1  0.6103724E-006  0.7186285E+02  0.7818608E-02  0.1464152E+00
          2   -1    0    0  502    0  0.00000000000E+00  0.00000000000E+00  0.23817990217E+04  0.23817990217E+04  0.00000000000E+00 0. -1.
          1   -1    0    0  501    0 -0.00000000000E+00 -0.00000000000E+00 -0.18252981625E+03  0.18252981625E+03  0.00000000000E+00 0. -1.
         25    2    1    2    0    0 -0.54429299806E+02  0.51893186955E+02  0.11833622711E+04  0.11923199716E+04  0.12500079392E+03 0.  0.
          2    1    1    2  501    0  0.27759224836E+02 -0.66304424454E+02 -0.17059473280E+03  0.18511999926E+03  0.00000000000E+00 0. -1.
          1    1    1    2  502    0  0.26670074970E+02  0.14411237499E+02  0.11865016672E+04  0.11868888671E+04  0.00000000000E+00 0. -1.
         22    1    3    3    0    0 -0.38066712718E+02 -0.36650244457E+02  0.56008209619E+03  0.56256934640E+03  0.00000000000E+00 0.  1.
         22    1    3    3    0    0 -0.16362587087E+02  0.88543431412E+02  0.62328017489E+03  0.62975062518E+03  0.00000000000E+00 0.  1.
</event>
<event>
 7    1  0.6103724E-006  0.6244420E+02  0.7818608E-02  0.1432378E+00
          2   -1    0    0  502    0  0.00000000000E+00  0.00000000000E+00  0.73734533688E+03  0.73734533688E+03  0.00000000000E+00 0. -1.
          1   -1    0    0  501    0 -0.00000000000E+00 -0.00000000000E+00 -0.41485635969E+03  0.41485635969E+03  0.00000000000E+00 0. -1.
         25    2    1    2    0    0 -0.74683183351E+02 -0.67979963471E+02 -0.43550195541E+02  0.16649480344E+03  0.12500018693E+03 0.  0.
          2    1    1    2  501    0  0.41165782369E+02  0.15859965754E+02 -0.30683261072E+03  0.30998775968E+03  0.00000000000E+00 0. -1.
          1    1    1    2  502    0  0.33517400981E+02  0.52119997717E+02  0.67287178345E+03  0.67571913344E+03  0.00000000000E+00 0. -1.
         22    1    3    3    0    0 -0.28090536906E+02  0.36560238483E+02 -0.93847422438E+01  0.47051064691E+02  0.00000000000E+00 0. -1.
         22    1    3    3    0    0 -0.46592646445E+02 -0.10454020195E+03 -0.34165453298E+02  0.11944373875E+03  0.00000000000E+00 0. -1.
</event>
<event>
 7    1  0.6103724E-006  0.6748376E+02  0.7818608E-02  0.1480826E+00
          2   -1    0    0  502    0  0.00000000000E+00  0.00000000000E+00  0.61268628504E+03  0.61268628504E+03  0.00000000000E+00 0. -1.
          1   -1    0    0  501    0 -0.00000000000E+00 -0.00000000000E+00 -0.29775471849E+03  0.29775471849E+03  0.00000000000E+00 0. -1.
         25    2    1    2    0    0 -0.39995526579E+01  0.89446405456E+02  0.14209329722E+03  0.20936065015E+03  0.12499888338E+03 0.  0.
          2    1    1    2  501    0 -0.12806823275E+02 -0.25638697688E+02 -0.26084069110E+03  0.26241041076E+03  0.00000000000E+00 0. -1.
          1    1    1    2  502    0  0.16806375933E+02 -0.63807707769E+02  0.43367896043E+03  0.43866994262E+03  0.00000000000E+00 0. -1.
         22    1    3    3    0    0 -0.48842964878E+02  0.51124920510E+02  0.13167874097E+03  0.14946131118E+03  0.00000000000E+00 0. -1.
         22    1    3    3    0    0  0.44843412220E+02  0.38321484946E+02  0.10414556255E+02  0.59899338978E+02  0.00000000000E+00 0. -1.
</event>
<event>
 7    1  0.6103724E-006  0.1238970E+03  0.7818608E-02  0.1262639E+00
          2   -1    0    0  502    0  0.00000000000E+00  0.00000000000E+00  0.31791004410E+03  0.31791004410E+03  0.00000000000E+00 0. -1.
          1   -1    0    0  501    0 -0.00000000000E+00 -0.00000000000E+00 -0.25564539614E+04  0.25564539614E+04  0.00000000000E+00 0. -1.
         25    2    1    2    0    0 -0.85416010866E+02 -0.12065400774E+03 -0.82484288503E+02  0.21042713297E+03  0.12499054343E+03 0.  0.
          2    1    1    2  501    0 -0.10236060011E+02  0.12372023654E+03 -0.23993194969E+04  0.24025289847E+04  0.00000000000E+00 0. -1.
          1    1    1    2  502    0  0.95652070878E+02 -0.30662288010E+01  0.24325986809E+03  0.26140788788E+03  0.00000000000E+00 0. -1.
         22    1    3    3    0    0 -0.64281648571E+02 -0.12926598826E+03 -0.22322964231E+02  0.14608265057E+03  0.00000000000E+00 0. -1.
         22    1    3    3    0    0 -0.21134362295E+02  0.86119805239E+01 -0.60161324272E+02  0.64344482408E+02  0.00000000000E+00 0. -1.
</event>
<event>
 7    1  0.6103724E-006  0.5069821E+02  0.7818608E-02  0.1512191E+00
          2   -1    0    0  502    0  0.00000000000E+00  0.00000000000E+00  0.56409620158E+03  0.56409620158E+03  0.00000000000E+00 0. -1.
          1   -1    0    0  501    0 -0.00000000000E+00 -0.00000000000E+00 -0.28867741497E+03  0.28867741497E+03  0.00000000000E+00 0. -1.
         25    2    1    2    0    0  0.64196026675E+02  0.44823236129E+02 -0.33939854715E+02  0.15134452618E+03  0.12499199786E+03 0.  0.
          2    1    1    2  501    0 -0.44455749046E+02 -0.21285578632E+02 -0.19245992889E+03  0.19867111947E+03  0.00000000000E+00 0. -1.
          1    1    1    2  502    0 -0.19740277630E+02 -0.23537657497E+02  0.50181857023E+03  0.50275797090E+03  0.00000000000E+00 0. -1.
         22    1    3    3    0    0  0.59881930965E+02  0.84077985878E+02 -0.68397404013E+01  0.10344919243E+03  0.00000000000E+00 0. -1.
         22    1    3    3    0    0  0.43140957100E+01 -0.39254749749E+02 -0.27100114314E+02  0.47895333755E+02  0.00000000000E+00 0. -1.
</event>
<event>
 7    1  0.6103724E-006  0.1204042E+03  0.7818608E-02  0.1378577E+00
          2   -1    0    0  502    0  0.00000000000E+00  0.00000000000E+00  0.17954517670E+04  0.17954517670E+04  0.00000000000E+00 0. -1.
          1   -1    0    0  501    0 -0.00000000000E+00 -0.00000000000E+00 -0.18879065293E+04  0.18879065293E+04  0.00000000000E+00 0. -1.
         25    2    1    2    0    0 -0.90345326717E+02 -0.23155792094E+02 -0.66689984140E+02  0.16961891875E+03  0.12499821937E+03 0.  0.
          2    1    1    2  501    0  0.12136399219E+03  0.71237957101E+01 -0.17674890341E+04  0.17716651638E+04  0.00000000000E+00 0. -1.
          1    1    1    2  502    0 -0.31018665469E+02  0.16031996384E+02  0.17417242559E+04  0.17420742137E+04  0.00000000000E+00 0. -1.
         22    1    3    3    0    0 -0.48259033485E+02 -0.62452766090E+02 -0.77969829847E+02  0.11094402495E+03  0.00000000000E+00 0. -1.
         22    1    3    3    0    0 -0.42086293232E+02  0.39296973996E+02  0.11279845707E+02  0.58674893800E+02  0.00000000000E+00 0. -1.
</event>
<event>
 7    1  0.6103724E-006  0.4848981E+02  0.7818608E-02  0.1555333E+00
          2   -1    0    0  502    0  0.00000000000E+00  0.00000000000E+00  0.81424248214E+03  0.81424248214E+03  0.00000000000E+00 0. -1.
          1   -1    0    0  501    0 -0.00000000000E+00 -0.00000000000E+00 -0.33917692862E+03  0.33917692862E+03  0.00000000000E+00 0. -1.
         25    2    1    2    0    0  0.42945124391E+02 -0.54852688727E+02 -0.23619814638E+03  0.27616599555E+03  0.12499996631E+03 0.  0.
          2    1    1    2  501    0 -0.61029231391E+01  0.23414278899E+02 -0.80475411534E+02  0.84034314352E+02  0.00000000000E+00 0. -1.
          1    1    1    2  502    0 -0.36842201252E+02  0.31438409828E+02  0.79173911142E+03  0.79321910086E+03  0.00000000000E+00 0. -1.
         22    1    3    3    0    0 -0.29929461528E+02 -0.56965902595E+02 -0.15032379615E+03  0.16351798193E+03  0.00000000000E+00 0.  1.
         22    1    3    3    0    0  0.72874585919E+02  0.21132138681E+01 -0.85874350225E+02  0.11264801362E+03  0.00000000000E+00 0.  1.
</event>
<event>
 7    1  0.6103724E-006  0.3581314E+03  0.7818608E-02  0.1296883E+00
          2   -1    0    0  502    0  0.00000000000E+00  0.00000000000E+00  0.13981586281E+04  0.13981586281E+04  0.00000000000E+00 0. -1.
          1   -1    0    0  501    0 -0.00000000000E+00 -0.00000000000E+00 -0.39531493216E+03  0.39531493216E+03  0.00000000000E+00 0. -1.
         25    2    1    2    0    0 -0.26453162902E+03 -0.26572240716E+03  0.26348793435E+03  0.47501190010E+03  0.12500013310E+03 0.  0.
          2    1    1    2  501    0  0.25602636365E+03  0.24339026971E+03 -0.18159802151E+03  0.39719788983E+03  0.00000000000E+00 0. -1.
          1    1    1    2  502    0  0.85052653753E+01  0.22332137440E+02  0.92095378315E+03  0.92126377037E+03  0.00000000000E+00 0. -1.
         22    1    3    3    0    0 -0.12207101835E+03 -0.16771710360E+03  0.20712847480E+03  0.29314256844E+03  0.00000000000E+00 0. -1.
         22    1    3    3    0    0 -0.14246061067E+03 -0.98005303553E+02  0.56359459548E+02  0.18186933166E+03  0.00000000000E+00 0. -1.
</event>
<event>
 7    1  0.6103724E-006  0.3649279E+02  0.7818608E-02  0.1536230E+00
          2   -1    0    0  502    0  0.00000000000E+00  0.00000000000E+00  0.69933365256E+02  0.69933365256E+02  0.00000000000E+00 0. -1.
          1   -1    0    0  501    0 -0.00000000000E+00 -0.00000000000E+00 -0.27629337436E+03  0.27629337436E+03  0.00000000000E+00 0. -1.
         25    2    1    2    0    0  0.10222168507E+02  0.34521391246E+00 -0.40347216560E+02  0.13174895162E+03  0.12500110587E+03 0.  0.
          2    1    1    2  501    0  0.23934330269E+02 -0.27389670049E+02 -0.16698444512E+03  0.17090012026E+03  0.00000000000E+00 0. -1.
          1    1    1    2  502    0 -0.34156498776E+02  0.27044456137E+02  0.97165258164E+00  0.43577667734E+02  0.00000000000E+00 0. -1.
         22    1    3    3    0    0  0.48559646878E+01  0.41236633789E+02  0.29291755352E+02  0.50813849400E+02  0.00000000000E+00 0. -1.
         22    1    3    3    0    0  0.53662038193E+01 -0.40891419877E+02 -0.69638971912E+02  0.80935102223E+02  0.00000000000E+00 0. -1.
</event>
<event>
 7    1  0.6103724E-006  0.7894183E+02  0.7818608E-02  0.1348707E+00
          2   -1    0    0  502    0  0.00000000000E+00  0.00000000000E+00  0.14229088919E+04  0.14229088919E+04  0.00000000000E+00 0. -1.
          1   -1    0    0  501    0 -0.00000000000E+00 -0.00000000000E+00 -0.21026740959E+04  0.21026740959E+04  0.00000000000E+00 0. -1.
         25    2    1    2    0    0  0.10074550976E+03 -0.35833769449E+02 -0.33317796801E+02  0.16783553739E+03  0.12499990102E+03 0.  0.
          2    1    1    2  501    0 -0.26651670283E+02  0.62949683671E+02 -0.20003650848E+04  0.20015327744E+04  0.00000000000E+00 0. -1.
          1    1    1    2  502    0 -0.74093839481E+02 -0.27115914222E+02  0.13539176776E+04  0.13562146761E+04  0.00000000000E+00 0. -1.
         22    1    3    3    0    0  0.49180339449E+02 -0.26262029036E+02 -0.80075307083E+02  0.97572817741E+02  0.00000000000E+00 0.  1.
         22    1    3    3    0    0  0.51565170315E+02 -0.95717404131E+01  0.46757510283E+02  0.70262719646E+02  0.00000000000E+00 0.  1.
</event>
<event>
 7    1  0.6103724E-006  0.3357694E+03  0.7818608E-02  0.1209182E+00
          2   -1    0    0  502    0  0.00000000000E+00  0.00000000000E+00  0.30078200046E+04  0.30078200046E+04  0.00000000000E+00 0. -1.
          1   -1    0    0  501    0 -0.00000000000E+00 -0.00000000000E+00 -0.79881810697E+03  0.79881810697E+03  0.00000000000E+00 0. -1.
         25    2    1    2    0    0 -0.26877425416E+03  0.12813926999E+03  0.95398390645E+03  0.10071592242E+04  0.12500054738E+03 0.  0.
          2    1    1    2  501    0 -0.51839974188E+02  0.32170018799E+02 -0.75514483541E+03  0.75760544842E+03  0.00000000000E+00 0. -1.
          1    1    1    2  502    0  0.32061422835E+03 -0.16030928879E+03  0.20101628266E+04  0.20418734390E+04  0.00000000000E+00 0. -1.
         22    1    3    3    0    0 -0.46817233937E+02  0.27745326174E+02  0.37626105595E+03  0.38017632586E+03  0.00000000000E+00 0.  1.
         22    1    3    3    0    0 -0.22195702022E+03  0.10039394382E+03  0.57772285049E+03  0.62698289830E+03  0.00000000000E+00 0.  1.
</event>
<event>
 7    1  0.6103724E-006  0.1066174E+03  0.7818608E-02  0.1391835E+00
          2   -1    0    0  502    0  0.00000000000E+00  0.00000000000E+00  0.15662258732E+03  0.15662258732E+03  0.00000000000E+00 0. -1.
          1   -1    0    0  501    0 -0.00000000000E+00 -0.00000000000E+00 -0.24665103878E+04  0.24665103878E+04  0.00000000000E+00 0. -1.
         25    2    1    2    0    0  0.64515188609E+01 -0.98627694049E+02 -0.53854333157E+03  0.56162980200E+03  0.12502027988E+03 0.  0.
          2    1    1    2  501    0  0.35420279196E+02  0.62723796525E-01 -0.18964737800E+04  0.18968045230E+04  0.00000000000E+00 0. -1.
          1    1    1    2  502    0 -0.41871798056E+02  0.98564970253E+02  0.12512931115E+03  0.16469865009E+03  0.00000000000E+00 0. -1.
         22    1    3    3    0    0 -0.54882255739E+02 -0.44495652773E+02 -0.33285061647E+03  0.34026674536E+03  0.00000000000E+00 0. -1.
         22    1    3    3    0    0  0.61333774600E+02 -0.54132041277E+02 -0.20569271510E+03  0.22136305664E+03  0.00000000000E+00 0. -1.
</event>
<event>
 7    1  0.6103724E-006  0.9427077E+02  0.7818608E-02  0.1307374E+00
          2   -1    0    0  502    0  0.00000000000E+00  0.00000000000E+00  0.44340740819E+03  0.44340740819E+03  0.00000000000E+00 0. -1.
          1   -1    0    0  501    0 -0.00000000000E+00 -0.00000000000E+00 -0.17960997714E+03  0.17960997714E+03  0.00000000000E+00 0. -1.
         25    2    1    2    0    0  0.83690177862E+02 -0.66550384297E+02  0.58415455181E+02  0.17455704310E+03  0.12499918548E+03 0.  0.
          2    1    1    2  501    0  0.11745809866E+02  0.81601302399E+02 -0.99162877393E+02  0.12895740714E+03  0.00000000000E+00 0. -1.
          1    1    1    2  502    0 -0.95435987728E+02 -0.15050918102E+02  0.30454485326E+03  0.31950293510E+03  0.00000000000E+00 0. -1.
         22    1    3    3    0    0  0.58423830127E+02  0.25234521681E+02  0.15339861268E+01  0.63659077315E+02  0.00000000000E+00 0. -1.
         22    1    3    3    0    0  0.25266347735E+02 -0.91784905978E+02  0.56881469054E+02  0.11089796578E+03  0.00000000000E+00 0. -1.
</event>
<event>
 7    1  0.6275622E-006  0.1189401E+03  0.7818608E-02  0.1309909E+00
          2   -1    0    0  502    0  0.00000000000E+00  0.00000000000E+00  0.19303113881E+04  0.19303113881E+04  0.00000000000E+00 0. -1.
          1   -1    0    0  501    0 -0.00000000000E+00 -0.00000000000E+00 -0.45426931753E+03  0.45426931753E+03  0.00000000000E+00 0. -1.
         25    2    1    2    0    0  0.87388581564E+02  0.12531213683E+01 -0.80838133286E+02  0.17264261663E+03  0.12502933569E+03 0.  0.
          2    1    1    2  501    0  0.13919446712E+02  0.62318151802E+02 -0.32249768712E+03  0.32875836299E+03  0.00000000000E+00 0. -1.
          1    1    1    2  502    0 -0.10130802828E+03 -0.63571273170E+02  0.18793778909E+04  0.18831797260E+04  0.00000000000E+00 0. -1.
         22    1    3    3    0    0  0.39937354127E+02  0.38917701858E+02 -0.95247033877E+02  0.11037018273E+03  0.00000000000E+00 0.  1.
         22    1    3    3    0    0  0.47451227437E+02 -0.37664580489E+02  0.14408900591E+02  0.62272433909E+02  0.00000000000E+00 0.  1.
</event>
<event>
 7    1  0.6103724E-006  0.3707367E+02  0.7818608E-02  0.1535946E+00
          2   -1    0    0  502    0  0.00000000000E+00  0.00000000000E+00  0.24565133808E+03  0.24565133808E+03  0.00000000000E+00 0. -1.
          1   -1    0    0  501    0 -0.00000000000E+00 -0.00000000000E+00 -0.18568000973E+03  0.18568000973E+03  0.00000000000E+00 0. -1.
         25    2    1    2    0    0 -0.10877765637E+02 -0.20728941050E+02 -0.83184627205E+01  0.12744475730E+03  0.12499981824E+03 0.  0.
          2    1    1    2  501    0 -0.25653398638E+02  0.27048024227E+02 -0.11292461030E+03  0.11891871210E+03  0.00000000000E+00 0. -1.
          1    1    1    2  502    0  0.36531164275E+02 -0.63190831776E+01  0.18121440138E+03  0.18496787841E+03  0.00000000000E+00 0. -1.
         22    1    3    3    0    0 -0.21789280926E+02  0.24007088041E+02 -0.53741669560E+02  0.62763684457E+02  0.00000000000E+00 0. -1.
         22    1    3    3    0    0  0.10911515289E+02 -0.44736029091E+02  0.45423206840E+02  0.64681072845E+02  0.00000000000E+00 0. -1.
</event>
<event>
 7    1  0.6103724E-006  0.6353089E+02  0.7818608E-02  0.1510479E+00
          2   -1    0    0  502    0  0.00000000000E+00  0.00000000000E+00  0.84939748582E+03  0.84939748582E+03  0.00000000000E+00 0. -1.
          1   -1    0    0  501    0 -0.00000000000E+00 -0.00000000000E+00 -0.62843289491E+02  0.62843289491E+02  0.00000000000E+00 0. -1.
         25    2    1    2    0    0  0.22047386685E+02 -0.34922822986E+02  0.23911341194E+03  0.27296148082E+03  0.12500822140E+03 0.  0.
          2    1    1    2  501    0  0.10289095058E+02 -0.22565013859E+02 -0.40586825479E+02  0.47564017177E+02  0.00000000000E+00 0. -1.
          1    1    1    2  502    0 -0.32336481742E+02  0.57487836845E+02  0.58802760987E+03  0.59171527731E+03  0.00000000000E+00 0. -1.
         22    1    3    3    0    0  0.57730878169E+02 -0.84988134113E+01  0.21428718771E+03  0.22209025854E+03  0.00000000000E+00 0.  1.
         22    1    3    3    0    0 -0.35683491484E+02 -0.26424009575E+02  0.24826224226E+02  0.50871222276E+02  0.00000000000E+00 0.  1.
</event>
<event>
 7    1  0.6103724E-006  0.1719932E+03  0.7818608E-02  0.1376644E+00
          2   -1    0    0  502    0  0.00000000000E+00  0.00000000000E+00  0.49938600247E+03  0.49938600247E+03  0.00000000000E+00 0. -1.
          1   -1    0    0  501    0 -0.00000000000E+00 -0.00000000000E+00 -0.15844989083E+04  0.15844989083E+04  0.00000000000E+00 0. -1.
         25    2    1    2    0    0 -0.12792918108E+02  0.18897269545E+03 -0.23562943336E+03  0.32714133435E+03  0.12500353752E+03 0.  0.
          2    1    1    2  501    0  0.26019942608E+02 -0.16795509959E+03 -0.12972262722E+04  0.13083126362E+04  0.00000000000E+00 0. -1.
          1    1    1    2  502    0 -0.13227024501E+02 -0.21017595861E+02  0.44774279967E+03  0.44843094024E+03  0.00000000000E+00 0. -1.
         22    1    3    3    0    0 -0.31757387307E+00 -0.18751926696E+02 -0.21991833192E+02  0.28902877627E+02  0.00000000000E+00 0. -1.
         22    1    3    3    0    0 -0.12475344235E+02  0.20772462215E+03 -0.21363760017E+03  0.29823845672E+03  0.00000000000E+00 0. -1.
</event>
<event>
 7    1  0.6103724E-006  0.1841343E+03  0.7818608E-02  0.1221969E+00
          2   -1    0    0  502    0  0.00000000000E+00  0.00000000000E+00  0.21684337510E+04  0.21684337510E+04  0.00000000000E+00 0. -1.
          1   -1    0    0  501    0 -0.00000000000E+00 -0.00000000000E+00 -0.64137773144E+03  0.64137773144E+03  0.00000000000E+00 0. -1.
         25    2    1    2    0    0  0.11995907556E+03 -0.10101386130E+03 -0.14588189686E+02  0.20107759268E+03  0.12500161206E+03 0.  0.
          2    1    1    2  501    0 -0.65240879473E+02  0.18132337571E+03 -0.51496009596E+03  0.54983492010E+03  0.00000000000E+00 0. -1.
          1    1    1    2  502    0 -0.54718196087E+02 -0.80309514409E+02  0.20566043052E+04  0.20588989696E+04  0.00000000000E+00 0. -1.
         22    1    3    3    0    0  0.19896507981E+01 -0.78308832492E+02  0.83326577376E+01  0.78776044211E+02  0.00000000000E+00 0. -1.
         22    1    3    3    0    0  0.11796942476E+03 -0.22705028804E+02 -0.22920847424E+02  0.12230154847E+03  0.00000000000E+00 0. -1.
</event>
<event>
 7    1  0.6103724E-006  0.3026070E+02  0.7818608E-02  0.1619731E+00
          2   -1    0    0  502    0  0.00000000000E+00  0.00000000000E+00  0.19354853987E+04  0.19354853987E+04  0.00000000000E+00 0. -1.
          1   -1    0    0  501    0 -0.00000000000E+00 -0.00000000000E+00 -0.11122569344E+04  0.11122569344E+04  0.00000000000E+00 0. -1.
         25    2    1    2    0    0 -0.24747999046E+02  0.50458933422E+02  0.82745537059E+03  0.83872853639E+03  0.12499840006E+03 0.  0.
          2    1    1    2  501    0  0.15417405971E+02 -0.26031258078E+02 -0.11062584449E+04  0.11066720696E+04  0.00000000000E+00 0. -1.
          1    1    1    2  502    0  0.93305930748E+01 -0.24427675344E+02  0.11020315386E+04  0.11023417272E+04  0.00000000000E+00 0. -1.
         22    1    3    3    0    0 -0.52921886105E+02  0.33562070111E+02  0.76998544710E+03  0.77253137627E+03  0.00000000000E+00 0.  1.
         22    1    3    3    0    0  0.28173887059E+02  0.16896863310E+02  0.57469923490E+02  0.66197160118E+02  0.00000000000E+00 0.  1.
</event>
<event>
 7    1  0.6103724E-006  0.5390766E+02  0.7818608E-02  0.1507505E+00
          2   -1    0    0  502    0  0.00000000000E+00  0.00000000000E+00  0.58520572737E+03  0.58520572737E+03  0.00000000000E+00 0. -1.
          1   -1    0    0  501    0 -0.00000000000E+00 -0.00000000000E+00 -0.83451008382E+02  0.83451008382E+02  0.00000000000E+00 0. -1.
         25    2    1    2    0    0  0.23536836145E+02  0.16205970953E+02  0.21811688242E+03  0.25301449711E+03  0.12499898081E+03 0.  0.
          2    1    1    2  501    0  0.28984157788E+02  0.70244887864E+01 -0.60125114064E+02  0.67115230660E+02  0.00000000000E+00 0. -1.
          1    1    1    2  502    0 -0.52520993933E+02 -0.23230459740E+02  0.34376295064E+03  0.34852700798E+03  0.00000000000E+00 0. -1.
         22    1    3    3    0    0 -0.32440404719E+02  0.53612891967E+01  0.60706860585E+01  0.33436155721E+02  0.00000000000E+00 0.  1.
         22    1    3    3    0    0  0.55977240864E+02  0.10844681757E+02  0.21204619636E+03  0.21957834139E+03  0.00000000000E+00 0.  1.
</event>
<event>
 7    1  0.6103724E-006  0.3713727E+02  0.7818608E-02  0.1553788E+00
          2   -1    0    0  502    0  0.00000000000E+00  0.00000000000E+00  0.11141839399E+04  0.11141839399E+04  0.00000000000E+00 0. -1.
          1   -1    0    0  501    0 -0.00000000000E+00 -0.00000000000E+00 -0.22551548363E+03  0.22551548363E+03  0.00000000000E+00 0. -1.
         25    2    1    2    0    0 -0.15295052538E+02 -0.62706591331E+02  0.83078576752E+03  0.84261435478E+03  0.12501161604E+03 0.  0.
          2    1    1    2  501    0  0.84829346724E+01  0.30758205644E+02 -0.21747166076E+03  0.21979979670E+03  0.00000000000E+00 0. -1.
          1    1    1    2  502    0  0.68121178654E+01  0.31948385687E+02  0.27535434954E+03  0.27728527207E+03  0.00000000000E+00 0. -1.
         22    1    3    3    0    0 -0.36418713007E+02 -0.41273705075E+02  0.12987637376E+03  0.14105925651E+03  0.00000000000E+00 0.  1.
         22    1    3    3    0    0  0.21123660469E+02 -0.21432886256E+02  0.70090939376E+03  0.70155509827E+03  0.00000000000E+00 0.  1.
</event>
<event>
 7    1  0.6103724E-006  0.3536753E+03  0.7818608E-02  0.1237015E+00
          2   -1    0    0  502    0  0.00000000000E+00  0.00000000000E+00  0.80963677709E+03  0.80963677709E+03  0.00000000000E+00 0. -1.
          1   -1    0    0  501    0 -0.00000000000E+00 -0.00000000000E+00 -0.87003608750E+03  0.87003608750E+03  0.00000000000E+00 0. -1.
         25    2    1    2    0    0 -0.28966060056E+03 -0.12015619233E+03 -0.58670185553E+03  0.67689375332E+03  0.12500124770E+03 0.  0.
          2    1    1    2  501    0 -0.42280361095E+02 -0.93830475897E+01 -0.19420629376E+03  0.19897677014E+03  0.00000000000E+00 0. -1.
          1    1    1    2  502    0  0.33194096166E+03  0.12953923992E+03  0.72050883889E+03  0.80380234114E+03  0.00000000000E+00 0. -1.
         22    1    3    3    0    0 -0.22397286832E+03 -0.13334528294E+03 -0.38995357165E+03  0.46905074168E+03  0.00000000000E+00 0.  1.
         22    1    3    3    0    0 -0.65687732246E+02  0.13189090616E+02 -0.19674828387E+03  0.20784301164E+03  0.00000000000E+00 0.  1.
</event>
<event>
 7    1  0.6103724E-006  0.3040705E+02  0.7818608E-02  0.1614735E+00
          2   -1    0    0  502    0  0.00000000000E+00  0.00000000000E+00  0.17102543837E+04  0.17102543837E+04  0.00000000000E+00 0. -1.
          1   -1    0    0  501    0 -0.00000000000E+00 -0.00000000000E+00 -0.77320897978E+02  0.77320897978E+02  0.00000000000E+00 0. -1.
         25    2    1    2    0    0  0.70429969833E+01 -0.48466349107E+01  0.12182199884E+03  0.17475316458E+03  0.12499990181E+03 0.  0.
          2    1    1    2  501    0 -0.19546490751E+01  0.31158864434E+02 -0.45937604026E+02  0.55542406767E+02  0.00000000000E+00 0. -1.
          1    1    1    2  502    0 -0.50883479082E+01 -0.26312229523E+02  0.15570490909E+04  0.15572797103E+04  0.00000000000E+00 0. -1.
         22    1    3    3    0    0  0.21238235123E+02 -0.22593508057E+02  0.14139825006E+03  0.14475839996E+03  0.00000000000E+00 0. -1.
         22    1    3    3    0    0 -0.14195238140E+02  0.17746873147E+02 -0.19576251228E+02  0.29994764618E+02  0.00000000000E+00 0. -1.
</event>
<event>
 7    1  0.6103724E-006  0.5192606E+02  0.7818608E-02  0.1457122E+00
          2   -1    0    0  502    0  0.00000000000E+00  0.00000000000E+00  0.63204126586E+03  0.63204126586E+03  0.00000000000E+00 0. -1.
          1   -1    0    0  501    0 -0.00000000000E+00 -0.00000000000E+00 -0.60942340938E+03  0.60942340938E+03  0.00000000000E+00 0. -1.
         25    2    1    2    0    0  0.54299816868E+02  0.74490104101E+02  0.28797300111E+03  0.32719158055E+03  0.12501454034E+03 0.  0.
          2    1    1    2  501    0 -0.23372003163E+02 -0.37456026105E+02 -0.58718700926E+03  0.58884445168E+03  0.00000000000E+00 0. -1.
          1    1    1    2  502    0 -0.30927813705E+02 -0.37034077996E+02  0.32183186464E+03  0.32542864301E+03  0.00000000000E+00 0. -1.
         22    1    3    3    0    0  0.42685392205E+02  0.66881553786E+02  0.29907097451E+03  0.30941660062E+03  0.00000000000E+00 0.  1.
         22    1    3    3    0    0  0.11614424663E+02  0.76085503151E+01 -0.11097973399E+02  0.17774979936E+02  0.00000000000E+00 0.  1.
</event>
<event>
 7    1  0.6103724E-006  0.9045829E+02  0.7818608E-02  0.1387743E+00
          2   -1    0    0  502    0  0.00000000000E+00  0.00000000000E+00  0.20547479203E+04  0.20547479203E+04  0.00000000000E+00 0. -1.
          1   -1    0    0  501    0 -0.00000000000E+00 -0.00000000000E+00 -0.47302651954E+03  0.47302651954E+03  0.00000000000E+00 0. -1.
         25    2    1    2    0    0 -0.10942331806E+03  0.72596660131E+02  0.30540999550E+03  0.35516763416E+03  0.12500018161E+03 0.  0.
          2    1    1    2  501    0  0.38455652398E+02 -0.19558453526E+02 -0.44596803922E+03  0.44805006674E+03  0.00000000000E+00 0. -1.
          1    1    1    2  502    0  0.70967665658E+02 -0.53038206605E+02  0.17222794445E+04  0.17245567390E+04  0.00000000000E+00 0. -1.
         22    1    3    3    0    0 -0.13057069160E+03  0.43565811435E+02  0.27721090597E+03  0.30950375090E+03  0.00000000000E+00 0.  1.
         22    1    3    3    0    0  0.21147373543E+02  0.29030848696E+02  0.28199089526E+02  0.45663883255E+02  0.00000000000E+00 0.  1.
</event>
<event>
 7    1  0.6103724E-006  0.7013138E+02  0.7818608E-02  0.1395839E+00
          2   -1    0    0  502    0  0.00000000000E+00  0.00000000000E+00  0.94936545752E+03  0.94936545752E+03  0.00000000000E+00 0. -1.
          1   -1    0    0  501    0 -0.00000000000E+00 -0.00000000000E+00 -0.23124290356E+04  0.23124290356E+04  0.00000000000E+00 0. -1.
         25    2    1    2    0    0 -0.15193817715E+02  0.37976577692E+02 -0.15190838103E+03  0.20093371252E+03  0.12500051220E+03 0.  0.
          2    1    1    2  501    0 -0.29596098068E+02 -0.64692578783E+02 -0.21346797432E+04  0.21358648517E+04  0.00000000000E+00 0. -1.
          1    1    1    2  502    0  0.44789915783E+02  0.26716001091E+02  0.92352454611E+03  0.92499592893E+03  0.00000000000E+00 0. -1.
         22    1    3    3    0    0  0.22116253455E+02  0.69305049598E+02 -0.12664984543E+03  0.14605650247E+03  0.00000000000E+00 0.  1.
         22    1    3    3    0    0 -0.37310071170E+02 -0.31328471906E+02 -0.25258535607E+02  0.54877210057E+02  0.00000000000E+00 0.  1.
</event>
<event>
 7    1  0.6103724E-006  0.1057936E+03  0.7818608E-02  0.1275292E+00
          2   -1    0    0  502    0  0.00000000000E+00  0.00000000000E+00  0.39296633722E+03  0.39296633722E+03  0.00000000000E+00 0. -1.
          1   -1    0    0  501    0 -0.00000000000E+00 -0.00000000000E+00 -0.26673584676E+03  0.26673584676E+03  0.00000000000E+00 0. -1.
         25    2    1    2    0    0 -0.12034312702E+03 -0.14147532506E+02  0.17837138961E+03  0.24924594181E+03  0.12499826391E+03 0.  0.
          2    1    1    2  501    0  0.38102371836E+02  0.91536005065E+02 -0.20069627945E+03  0.22385179818E+03  0.00000000000E+00 0. -1.
          1    1    1    2  502    0  0.82240755187E+02 -0.77388472559E+02  0.14855538031E+03  0.18660444399E+03  0.00000000000E+00 0. -1.
         22    1    3    3    0    0 -0.30885972988E+01 -0.24783120347E+02 -0.10167659556E+02  0.26965232954E+02  0.00000000000E+00 0.  1.
         22    1    3    3    0    0 -0.11725452972E+03  0.10635587841E+02  0.18853904916E+03  0.22228070886E+03  0.00000000000E+00 0.  1.
</event>
<event>
 7    1  0.6103724E-006  0.1838302E+03  0.7818608E-02  0.1235662E+00
          2   -1    0    0  502    0  0.00000000000E+00  0.00000000000E+00  0.21285221453E+04  0.21285221453E+04  0.00000000000E+00 0. -1.
          1   -1    0    0  501    0 -0.00000000000E+00 -0.00000000000E+00 -0.15804611422E+03  0.15804611422E+03  0.00000000000E+00 0. -1.
         25    2    1    2    0    0 -0.25839129648E+03  0.62302419136E+01  0.69616339993E+03  0.75304342249E+03  0.12500415489E+03 0.  0.
          2    1    1    2  501    0  0.17689833784E+03  0.16046794219E+02 -0.66787827066E+02  0.18976600164E+03  0.00000000000E+00 0. -1.
          1    1    1    2  502    0  0.81492958641E+02 -0.22277036133E+02  0.13411004582E+04  0.13437588354E+04  0.00000000000E+00 0. -1.
         22    1    3    3    0    0 -0.16447800519E+02 -0.12279613719E+02  0.19658411924E+03  0.19765281428E+03  0.00000000000E+00 0.  1.
         22    1    3    3    0    0 -0.24194349596E+03  0.18509855633E+02  0.49957928069E+03  0.55539060821E+03  0.00000000000E+00 0.  1.
</event>
<event>
 7    1  0.6103724E-006  0.5324751E+02  0.7818608E-02  0.1531195E+00
          2   -1    0    0  502    0  0.00000000000E+00  0.00000000000E+00  0.10749845874E+03  0.10749845874E+03  0.00000000000E+00 0. -1.
          1   -1    0    0  501    0 -0.00000000000E+00 -0.00000000000E+00 -0.45425348304E+03  0.45425348304E+03  0.00000000000E+00 0. -1.
         25    2    1    2    0    0 -0.18449802312E+02 -0.42104062391E+02 -0.13347881492E+01  0.13319080405E+03  0.12499944539E+03 0.  0.
          2    1    1    2  501    0  0.42453986045E+02  0.32739822550E+02 -0.38093225531E+03  0.38468639182E+03  0.00000000000E+00 0. -1.
          1    1    1    2  502    0 -0.24004183733E+02  0.93642398409E+01  0.35512019162E+02  0.43874745919E+02  0.00000000000E+00 0. -1.
         22    1    3    3    0    0 -0.85690445888E+01  0.38422816811E+02 -0.27413931859E+02  0.47971502340E+02  0.00000000000E+00 0.  1.
         22    1    3    3    0    0 -0.98807577228E+01 -0.80526879202E+02  0.26079143709E+02  0.85219301709E+02  0.00000000000E+00 0.  1.
</event>
<event>
 7    1  0.6103724E-006  0.2264066E+02  0.7818608E-02  0.1705303E+00
          2   -1    0    0  502    0  0.00000000000E+00  0.00000000000E+00  0.88347177554E+03  0.88347177554E+03  0.00000000000E+00 0. -1.
          1   -1    0    0  501    0 -0.00000000000E+00 -0.00000000000E+00 -0.40976333428E+03  0.40976333428E+03  0.00000000000E+00 0. -1.
         25    2    1    2    0    0 -0.20775756332E+02 -0.10132266495E+02 -0.19550696355E+03  0.23320130397E+03  0.12500232198E+03 0.  0.
          2    1    1    2  501    0  0.19862098128E+02 -0.11560497638E+02 -0.19459662182E+03  0.19594895578E+03  0.00000000000E+00 0. -1.
          1    1    1    2  502    0  0.91365820478E+00  0.21692764133E+02  0.86381202662E+03  0.86408485007E+03  0.00000000000E+00 0. -1.
         22    1    3    3    0    0 -0.17532068942E+02  0.22542035645E+02 -0.19820876959E+03  0.20025541979E+03  0.00000000000E+00 0. -1.
         22    1    3    3    0    0 -0.32436873903E+01 -0.32674302141E+02  0.27018060416E+01  0.32945884176E+02  0.00000000000E+00 0. -1.
</event>
<event>
 7    1  0.6103724E-006  0.1145171E+03  0.7818608E-02  0.1290040E+00
          2   -1    0    0  502    0  0.00000000000E+00  0.00000000000E+00  0.36637487893E+03  0.36637487893E+03  0.00000000000E+00 0. -1.
          1   -1    0    0  501    0 -0.00000000000E+00 -0.00000000000E+00 -0.67237850845E+03  0.67237850845E+03  0.00000000000E+00 0. -1.
         25    2    1    2    0    0 -0.98274935263E+01 -0.47836796629E+02 -0.53576700272E+02  0.14449992872E+03  0.12499931139E+03 0.  0.
          2    1    1    2  501    0  0.32050497024E+02 -0.72918523180E+02 -0.55866674506E+03  0.56431629200E+03  0.00000000000E+00 0. -1.
          1    1    1    2  502    0 -0.22223003497E+02  0.12075531981E+03  0.30623981581E+03  0.32993716665E+03  0.00000000000E+00 0. -1.
         22    1    3    3    0    0 -0.29216402129E+02 -0.85851580808E+02 -0.28776053864E+02  0.95142805070E+02  0.00000000000E+00 0. -1.
         22    1    3    3    0    0  0.19388908602E+02  0.38014784179E+02 -0.24800646409E+02  0.49357123653E+02  0.00000000000E+00 0. -1.
</event>
<event>
 7    1  0.6103724E-006  0.3845226E+02  0.7818608E-02  0.1568787E+00
          2   -1    0    0  502    0  0.00000000000E+00  0.00000000000E+00  0.29493035168E+03  0.29493035168E+03  0.00000000000E+00 0. -1.
          1   -1    0    0  501    0 -0.00000000000E+00 -0.00000000000E+00 -0.52004496561E+02  0.52004496561E+02  0.00000000000E+00 0. -1.
         25    2    1    2    0    0 -0.10207977538E+02  0.14107023297E+02  0.84119447704E+02  0.15163320656E+03  0.12495333904E+03 0.  0.
          2    1    1    2  501    0  0.36260720133E+02 -0.24434599691E+02  0.11307020674E+02  0.45163460930E+02  0.00000000000E+00 0. -1.
          1    1    1    2  502    0 -0.26052742595E+02  0.10327576394E+02  0.14749938674E+03  0.15013818075E+03  0.00000000000E+00 0. -1.
         22    1    3    3    0    0 -0.22473195706E+02 -0.46276774284E+02  0.54899311542E+01  0.51737063189E+02  0.00000000000E+00 0.  1.
         22    1    3    3    0    0  0.12265218168E+02  0.60383797581E+02  0.78629516550E+02  0.99896143368E+02  0.00000000000E+00 0.  1.
</event>
<event>
 7    1  0.6103724E-006  0.4689923E+02  0.7818608E-02  0.1527946E+00
          2   -1    0    0  502    0  0.00000000000E+00  0.00000000000E+00  0.11450196946E+04  0.11450196946E+04  0.00000000000E+00 0. -1.
          1   -1    0    0  501    0 -0.00000000000E+00 -0.00000000000E+00 -0.25944923932E+04  0.25944923932E+04  0.00000000000E+00 0. -1.
         25    2    1    2    0    0 -0.17954006443E+02  0.55853243959E+01  0.35168904665E+03  0.37371486497E+03  0.12499629020E+03 0.  0.
          2    1    1    2  501    0  0.37495885490E+02 -0.28199376430E+02 -0.25829809211E+04  0.25834069724E+04  0.00000000000E+00 0. -1.
          1    1    1    2  502    0 -0.19541879047E+02  0.22614052034E+02  0.78181917576E+03  0.78239025043E+03  0.00000000000E+00 0. -1.
         22    1    3    3    0    0 -0.64134182949E+02  0.33578630443E+02  0.20345720701E+03  0.21595266363E+03  0.00000000000E+00 0.  1.
         22    1    3    3    0    0  0.46180176506E+02 -0.27993306047E+02  0.14823183964E+03  0.15776220133E+03  0.00000000000E+00 0.  1.
</event>
<event>
 7    1  0.6103724E-006  0.6426643E+02  0.7818608E-02  0.1537784E+00
          2   -1    0    0  502    0  0.00000000000E+00  0.00000000000E+00  0.91087287238E+03  0.91087287238E+03  0.00000000000E+00 0. -1.
          1   -1    0    0  501    0 -0.00000000000E+00 -0.00000000000E+00 -0.11532944519E+04  0.11532944519E+04  0.00000000000E+00 0. -1.
         25    2    1    2    0    0 -0.54695201360E+02 -0.55062510806E+02 -0.44589958716E+02  0.15374906246E+03  0.12500825829E+03 0.  0.
          2    1    1    2  501    0  0.34271236982E+02  0.54122237829E+02 -0.10530293893E+04  0.10549761273E+04  0.00000000000E+00 0. -1.
          1    1    1    2  502    0  0.20423964378E+02  0.94027297782E+00  0.85519776848E+03  0.85544213460E+03  0.00000000000E+00 0. -1.
         22    1    3    3    0    0 -0.30085273026E+02  0.51703551775E+01  0.37913553576E+02  0.48675391837E+02  0.00000000000E+00 0. -1.
         22    1    3    3    0    0 -0.24609928334E+02 -0.60232865984E+02 -0.82503512292E+02  0.10507367062E+03  0.00000000000E+00 0. -1.
</event>
<event>
 7    1  0.6103724E-006  0.1238493E+03  0.7818608E-02  0.1297349E+00
          2   -1    0    0  502    0  0.00000000000E+00  0.00000000000E+00  0.66868356665E+03  0.66868356665E+03  0.00000000000E+00 0. -1.
          1   -1    0    0  501    0 -0.00000000000E+00 -0.00000000000E+00 -0.91893395618E+03  0.91893395618E+03  0.00000000000E+00 0. -1.
         25    2    1    2    0    0  0.51276393541E+02  0.68531410252E+02  0.25452475728E+03  0.29619949635E+03  0.12500186737E+03 0.  0.
          2    1    1    2  501    0  0.59418886275E+02  0.34690488287E+02 -0.88214649606E+03  0.88482567466E+03  0.00000000000E+00 0. -1.
          1    1    1    2  502    0 -0.11069527982E+03 -0.10322189854E+03  0.37737134926E+03  0.40659235181E+03  0.00000000000E+00 0. -1.
         22    1    3    3    0    0 -0.36448231190E+02  0.12361952745E+02  0.12023946102E+03  0.12624903730E+03  0.00000000000E+00 0.  1.
         22    1    3    3    0    0  0.87724624731E+02  0.56169457507E+02  0.13428529626E+03  0.16995045905E+03  0.00000000000E+00 0.  1.
</event>
<event>
 7    1  0.6103724E-006  0.7883668E+02  0.7818608E-02  0.1509962E+00
          2   -1    0    0  502    0  0.00000000000E+00  0.00000000000E+00  0.89474916401E+03  0.89474916401E+03  0.00000000000E+00 0. -1.
          1   -1    0    0  501    0 -0.00000000000E+00 -0.00000000000E+00 -0.55981915995E+03  0.55981915995E+03  0.00000000000E+00 0. -1.
         25    2    1    2    0    0  0.51574775832E+02 -0.53027236236E+02  0.22953342562E+03  0.27162783055E+03  0.12499695824E+03 0.  0.
          2    1    1    2  501    0 -0.11978753022E+02 -0.16085014777E+02 -0.53612152318E+03  0.53649651056E+03  0.00000000000E+00 0. -1.
          1    1    1    2  502    0 -0.39596022811E+02  0.69112251013E+02  0.64151810161E+03  0.64644398285E+03  0.00000000000E+00 0. -1.
         22    1    3    3    0    0 -0.23081045238E+02 -0.65536635397E+02  0.10576733702E+03  0.12654846822E+03  0.00000000000E+00 0.  1.
         22    1    3    3    0    0  0.74655821070E+02  0.12509399161E+02  0.12376608861E+03  0.14507936234E+03  0.00000000000E+00 0.  1.
</event>
<event>
 7    1  0.6103724E-006  0.8398813E+02  0.7818608E-02  0.1374603E+00
          2   -1    0    0  502    0  0.00000000000E+00  0.00000000000E+00  0.52425685676E+03  0.52425685676E+03  0.00000000000E+00 0. -1.
          1   -1    0    0  501    0 -0.00000000000E+00 -0.00000000000E+00 -0.17005370908E+04  0.17005370908E+04  0.00000000000E+00 0. -1.
         25    2    1    2    0    0  0.82923850824E+02 -0.35202556236E+02  0.16464268211E+03  0.22549389415E+03  0.12499879411E+03 0.  0.
          2    1    1    2  501    0 -0.82402344017E+02 -0.16508568418E+02 -0.16670154368E+04  0.16691324530E+04  0.00000000000E+00 0. -1.
          1    1    1    2  502    0 -0.52150680753E+00  0.51711124654E+02  0.32609252062E+03  0.33016760045E+03  0.00000000000E+00 0. -1.
         22    1    3    3    0    0  0.98634232033E+02 -0.66393916521E+02  0.13255775709E+03  0.17806859028E+03  0.00000000000E+00 0. -1.
         22    1    3    3    0    0 -0.15710381209E+02  0.31191360285E+02  0.32084925019E+02  0.47425303875E+02  0.00000000000E+00 0. -1.
</event>
<event>
 7    1  0.6103724E-006  0.6312771E+02  0.7818608E-02  0.1456031E+00
          2   -1    0    0  502    0  0.00000000000E+00  0.00000000000E+00  0.16763953788E+04  0.16763953788E+04  0.00000000000E+00 0. -1.
          1   -1    0    0  501    0 -0.00000000000E+00 -0.00000000000E+00 -0.51266542831E+02  0.51266542831E+02  0.00000000000E+00 0. -1.
         25    2    1    2    0    0 -0.59148186640E+02  0.29704068547E+02  0.14056247007E+03  0.19940607561E+03  0.12499654126E+03 0.  0.
          2    1    1    2  501    0  0.64234769408E+02  0.65468423460E+01  0.26603434245E+02  0.69833440838E+02  0.00000000000E+00 0. -1.
          1    1    1    2  502    0 -0.50865827682E+01 -0.36250910893E+02  0.14579629317E+04  0.14584224052E+04  0.00000000000E+00 0. -1.
         22    1    3    3    0    0 -0.19608214116E+02  0.19917370047E+02  0.15399840860E+03  0.15651419598E+03  0.00000000000E+00 0. -1.
         22    1    3    3    0    0 -0.39539972524E+02  0.97866985005E+01 -0.13435938528E+02  0.42891879638E+02  0.00000000000E+00 0. -1.
</event>
<event>
 7    1  0.6103724E-006  0.7375703E+02  0.7818608E-02  0.1358512E+00
          2   -1    0    0  502    0  0.00000000000E+00  0.00000000000E+00  0.12120134488E+03  0.12120134488E+03  0.00000000000E+00 0. -1.
          1   -1    0    0  501    0 -0.00000000000E+00 -0.00000000000E+00 -0.34273382319E+03  0.34273382319E+03  0.00000000000E+00 0. -1.
         25    2    1    2    0    0 -0.13208059103E+02  0.70878284518E+02 -0.36242510385E+02  0.14878306728E+03  0.12499879003E+03 0.  0.
          2    1    1    2  501    0 -0.58474444299E+02 -0.33365194080E+02 -0.21779386735E+03  0.22796198250E+03  0.00000000000E+00 0. -1.
          1    1    1    2  502    0  0.71682503402E+02 -0.37513090439E+02  0.32503899430E+02  0.87190118284E+02  0.00000000000E+00 0. -1.
         22    1    3    3    0    0 -0.28275209646E+02 -0.15027055659E+01 -0.63863743653E+02  0.69859311175E+02  0.00000000000E+00 0.  1.
         22    1    3    3    0    0  0.15067150543E+02  0.72380990084E+02  0.27621233267E+02  0.78923756108E+02  0.00000000000E+00 0.  1.
</event>
<event>
 7    1  0.6103724E-006  0.5213740E+02  0.7818608E-02  0.1501113E+00
          2   -1    0    0  502    0  0.00000000000E+00  0.00000000000E+00  0.21385824911E+04  0.21385824911E+04  0.00000000000E+00 0. -1.
          1   -1    0    0  501    0 -0.00000000000E+00 -0.00000000000E+00 -0.12136705133E+03  0.12136705133E+03  0.00000000000E+00 0. -1.
         25    2    1    2    0    0  0.76699338130E+02  0.29624044738E+02  0.10761625730E+03  0.18430466667E+03  0.12500631514E+03 0.  0.
          2    1    1    2  501    0 -0.48649235648E+02 -0.13786965156E+02 -0.75180847886E+02  0.90603468069E+02  0.00000000000E+00 0. -1.
          1    1    1    2  502    0 -0.28050102483E+02 -0.15837079582E+02  0.19847800304E+04  0.19850414077E+04  0.00000000000E+00 0. -1.
         22    1    3    3    0    0  0.33778658088E+02 -0.31694493249E+02  0.98572008955E+02  0.10891271548E+03  0.00000000000E+00 0. -1.
         22    1    3    3    0    0  0.42920680043E+02  0.61318537987E+02  0.90442483498E+01  0.75391951191E+02  0.00000000000E+00 0. -1.
</event>
<event>
 7    1  0.7163998E-006  0.7927409E+02  0.7818608E-02  0.1474571E+00
          2   -1    0    0  502    0  0.00000000000E+00  0.00000000000E+00  0.10359494643E+04  0.10359494643E+04  0.00000000000E+00 0. -1.
          1   -1    0    0  501    0 -0.00000000000E+00 -0.00000000000E+00 -0.25171597401E+04  0.25171597401E+04  0.00000000000E+00 0. -1.
         25    2    1    2    0    0 -0.28736106871E+02 -0.76712109415E+02 -0.14499533763E+04  0.14576354105E+04  0.12500273909E+03 0.  0.
          2    1    1    2  501    0  0.25380527911E+02 -0.24924038141E+01 -0.10616897190E+04  0.10619959711E+04  0.00000000000E+00 0. -1.
          1    1    1    2  502    0  0.33555789602E+01  0.79204513229E+02  0.10304328194E+04  0.10334778228E+04  0.00000000000E+00 0. -1.
         22    1    3    3    0    0 -0.57186294895E+02 -0.20744304560E+02 -0.30757431441E+03  0.31353238650E+03  0.00000000000E+00 0. -1.
         22    1    3    3    0    0  0.28450188024E+02 -0.55967804855E+02 -0.11423790619E+04  0.11441030240E+04  0.00000000000E+00 0. -1.
</event>
<event>
 7    1  0.6103724E-006  0.1305004E+03  0.7818608E-02  0.1317435E+00
          2   -1    0    0  502    0  0.00000000000E+00  0.00000000000E+00  0.13885837085E+04  0.13885837085E+04  0.00000000000E+00 0. -1.
          1   -1    0    0  501    0 -0.00000000000E+00 -0.00000000000E+00 -0.29681921879E+03  0.29681921879E+03  0.00000000000E+00 0. -1.
         25    2    1    2    0    0 -0.10109871266E+03 -0.55423648991E+02  0.91913227324E+03  0.93473083700E+03  0.12499948538E+03 0.  0.
          2    1    1    2  501    0  0.13054866693E+03  0.97124142217E+01 -0.27245631233E+03  0.30227425884E+03  0.00000000000E+00 0. -1.
          1    1    1    2  502    0 -0.29449954272E+02  0.45711234769E+02  0.44508852878E+03  0.44839783144E+03  0.00000000000E+00 0. -1.
         22    1    3    3    0    0  0.78231457380E+01  0.15474961842E+02  0.37087729988E+03  0.37128243646E+03  0.00000000000E+00 0.  1.
         22    1    3    3    0    0 -0.10892185840E+03 -0.70898610833E+02  0.54825497336E+03  0.56344840054E+03  0.00000000000E+00 0.  1.
</event>
<event>
 7    1  0.6103724E-006  0.6019470E+02  0.7818608E-02  0.1471689E+00
          2   -1    0    0  502    0  0.00000000000E+00  0.00000000000E+00  0.14136177551E+04  0.14136177551E+04  0.00000000000E+00 0. -1.
          1   -1    0    0  501    0 -0.00000000000E+00 -0.00000000000E+00 -0.63807733644E+03  0.63807733644E+03  0.00000000000E+00 0. -1.
         25    2    1    2    0    0  0.84676712783E+02 -0.22733461886E+02  0.18922106487E+01  0.15269371055E+03  0.12499933121E+03 0.  0.
          2    1    1    2  501    0 -0.59692354795E+02 -0.74260142145E+00 -0.56087243986E+03  0.56404044401E+03  0.00000000000E+00 0. -1.
          1    1    1    2  502    0 -0.24984357988E+02  0.23476063308E+02  0.13345206479E+04  0.13349609370E+04  0.00000000000E+00 0. -1.
         22    1    3    3    0    0 -0.32608405774E+02 -0.41877140243E+01 -0.70201625720E+01  0.33617372866E+02  0.00000000000E+00 0. -1.
         22    1    3    3    0    0  0.11728511856E+03 -0.18545747862E+02  0.89123732206E+01  0.11907633768E+03  0.00000000000E+00 0. -1.
</event>
<event>
 7    1  0.6103724E-006  0.3604891E+03  0.7818608E-02  0.1233184E+00
          2   -1    0    0  502    0  0.00000000000E+00  0.00000000000E+00  0.20970650720E+04  0.20970650720E+04  0.00000000000E+00 0. -1.
          1   -1    0    0  501    0 -0.00000000000E+00 -0.00000000000E+00 -0.14217364335E+03  0.14217364335E+03  0.00000000000E+00 0. -1.
         25    2    1    2    0    0 -0.20816064949E+03  0.27133544264E+03  0.39253343841E+03  0.53540777897E+03  0.12500084433E+03 0.  0.
          2    1    1    2  501    0  0.21509201536E+03 -0.31497823200E+03  0.44704840003E+03  0.58764626577E+03  0.00000000000E+00 0. -1.
          1    1    1    2  502    0 -0.69313658747E+01  0.43642789364E+02  0.11153095902E+04  0.11161846706E+04  0.00000000000E+00 0. -1.
         22    1    3    3    0    0 -0.15660673585E+02  0.25347307041E+02 -0.46063885068E+01  0.30148988150E+02  0.00000000000E+00 0.  1.
         22    1    3    3    0    0 -0.19249997590E+03  0.24598813560E+03  0.39713982692E+03  0.50525879082E+03  0.00000000000E+00 0.  1.
</event>
<event>
 7    1  0.6103724E-006  0.3652745E+02  0.7818608E-02  0.1574711E+00
          2   -1    0    0  502    0  0.00000000000E+00  0.00000000000E+00  0.10128184891E+03  0.10128184891E+03  0.00000000000E+00 0. -1.
          1   -1    0    0  501    0 -0.00000000000E+00 -0.00000000000E+00 -0.14693454331E+03  0.14693454331E+03  0.00000000000E+00 0. -1.
         25    2    1    2    0    0  0.13012599785E+00 -0.57226524756E+01  0.24250384113E+02  0.12745398604E+03  0.12499468686E+03 0.  0.
          2    1    1    2  501    0 -0.36515506900E+02 -0.93381448620E+00 -0.75001448386E+02  0.83423447026E+02  0.00000000000E+00 0. -1.
          1    1    1    2  502    0  0.36385380902E+02  0.66564669618E+01  0.50983698706E+01  0.37338959160E+02  0.00000000000E+00 0. -1.
         22    1    3    3    0    0 -0.98420380876E+01  0.56010874171E+02  0.30634246563E+02  0.64595207265E+02  0.00000000000E+00 0. -1.
         22    1    3    3    0    0  0.99721640855E+01 -0.61733526647E+02 -0.63838624503E+01  0.62858778771E+02  0.00000000000E+00 0. -1.
</event>
<event>
 7    1  0.6103724E-006  0.1048482E+03  0.7818608E-02  0.1353019E+00
          2   -1    0    0  502    0  0.00000000000E+00  0.00000000000E+00  0.59446886106E+03  0.59446886106E+03  0.00000000000E+00 0. -1.
          1   -1    0    0  501    0 -0.00000000000E+00 -0.00000000000E+00 -0.97655657985E+03  0.97655657985E+03  0.00000000000E+00 0. -1.
         25    2    1    2    0    0 -0.30062374920E+02 -0.76094573273E+02 -0.77581812428E+03  0.79007216392E+03  0.12500452699E+03 0.  0.
          2    1    1    2  501    0  0.40671847203E+02 -0.28410302807E+02 -0.18563106581E+03  0.19214639485E+03  0.00000000000E+00 0. -1.
          1    1    1    2  502    0 -0.10609472283E+02  0.10450487608E+03  0.57936147130E+03  0.58880688214E+03  0.00000000000E+00 0. -1.
         22    1    3    3    0    0 -0.13621330303E+02 -0.47841931743E+01 -0.59265287391E+03  0.59282869203E+03  0.00000000000E+00 0. -1.
         22    1    3    3    0    0 -0.16441044617E+02 -0.71310380099E+02 -0.18316525038E+03  0.19724347189E+03  0.00000000000E+00 0. -1.
</event>
<event>
 7    1  0.6103724E-006  0.7888830E+02  0.7818608E-02  0.1455427E+00
          2   -1    0    0  502    0  0.00000000000E+00  0.00000000000E+00  0.55329581253E+03  0.55329581253E+03  0.00000000000E+00 0. -1.
          1   -1    0    0  501    0 -0.00000000000E+00 -0.00000000000E+00 -0.39403052599E+03  0.39403052599E+03  0.00000000000E+00 0. -1.
         25    2    1    2    0    0 -0.20539405785E+02  0.63109421124E+02 -0.82954955511E+02  0.16404611834E+03  0.12499975229E+03 0.  0.
          2    1    1    2  501    0  0.24631615466E+02  0.16091934772E+02 -0.26664938150E+03  0.26826770118E+03  0.00000000000E+00 0. -1.
          1    1    1    2  502    0 -0.40922096803E+01 -0.79201355896E+02  0.50886962355E+03  0.51501251900E+03  0.00000000000E+00 0. -1.
         22    1    3    3    0    0  0.68363268192E+01 -0.20972058391E+02  0.18981648391E+02  0.29100954850E+02  0.00000000000E+00 0.  1.
         22    1    3    3    0    0 -0.27375732605E+02  0.84081479515E+02 -0.10193660390E+03  0.13494516349E+03  0.00000000000E+00 0.  1.
</event>
<event>
 7    1  0.6103724E-006  0.1128847E+03  0.7818608E-02  0.1290423E+00
          2   -1    0    0  502    0  0.00000000000E+00  0.00000000000E+00  0.23457055711E+04  0.23457055711E+04  0.00000000000E+00 0. -1.
          1   -1    0    0  501    0 -0.00000000000E+00 -0.00000000000E+00 -0.27570029573E+03  0.27570029573E+03  0.00000000000E+00 0. -1.
         25    2    1    2    0    0  0.71023634860E+02 -0.17840544786E+02  0.11066007965E+04  0.11160430697E+04  0.12499667508E+03 0.  0.
          2    1    1    2  501    0  0.73710325796E+02 -0.32392531232E+02 -0.26011401218E+03  0.27228989614E+03  0.00000000000E+00 0. -1.
          1    1    1    2  502    0 -0.14473396066E+03  0.50233076018E+02  0.12235184910E+04  0.12330729010E+04  0.00000000000E+00 0. -1.
         22    1    3    3    0    0  0.68931328725E+02 -0.65504894717E+02  0.64293598526E+03  0.64993007351E+03  0.00000000000E+00 0. -1.
         22    1    3    3    0    0  0.20923061350E+01  0.47664349931E+02  0.46366481126E+03  0.46611299617E+03  0.00000000000E+00 0. -1.
</event>
<event>
 7    1  0.6103724E-006  0.1176991E+03  0.7818608E-02  0.1354595E+00
          2   -1    0    0  502    0  0.00000000000E+00  0.00000000000E+00  0.16020233628E+04  0.16020233628E+04  0.00000000000E+00 0. -1.
          1   -1    0    0  501    0 -0.00000000000E+00 -0.00000000000E+00 -0.15986221062E+03  0.15986221062E+03  0.00000000000E+00 0. -1.
         25    2    1    2    0    0  0.76855944043E+02 -0.60099891239E+01  0.34818823389E+03  0.37789423066E+03  0.12500418890E+03 0.  0.
          2    1    1    2  501    0 -0.12043294237E+03  0.43610910742E+01 -0.11951149169E+03  0.16972362643E+03  0.00000000000E+00 0. -1.
          1    1    1    2  502    0  0.43576998329E+02  0.16488980497E+01  0.12134844100E+04  0.12142677163E+04  0.00000000000E+00 0. -1.
         22    1    3    3    0    0  0.10633591069E+02  0.55481702252E+02  0.13276660643E+03  0.14428535729E+03  0.00000000000E+00 0. -1.
         22    1    3    3    0    0  0.66222352974E+02 -0.61491691376E+02  0.21542162746E+03  0.23360887337E+03  0.00000000000E+00 0. -1.
</event>
<event>
 7    1  0.6103724E-006  0.8277914E+02  0.7818608E-02  0.1430456E+00
          2   -1    0    0  502    0  0.00000000000E+00  0.00000000000E+00  0.10092372784E+03  0.10092372784E+03  0.00000000000E+00 0. -1.
          1   -1    0    0  501    0 -0.00000000000E+00 -0.00000000000E+00 -0.69724844109E+03  0.69724844109E+03  0.00000000000E+00 0. -1.
         25    2    1    2    0    0  0.64824134695E+02 -0.17059737864E+02 -0.33286911128E+03  0.36182947053E+03  0.12500206960E+03 0.  0.
          2    1    1    2  501    0  0.18422356168E+02  0.28297350197E+02 -0.32841999301E+03  0.33015120027E+03  0.00000000000E+00 0. -1.
          1    1    1    2  502    0 -0.83246490863E+02 -0.11237612333E+02  0.64964391034E+02  0.10619149813E+03  0.00000000000E+00 0. -1.
         22    1    3    3    0    0 -0.17418270230E+02  0.32198512222E+02 -0.16023606224E+03  0.16436464331E+03  0.00000000000E+00 0.  1.
         22    1    3    3    0    0  0.82242404925E+02 -0.49258250085E+02 -0.17263304903E+03  0.19746482722E+03  0.00000000000E+00 0.  1.
</event>
<event>
 7    1  0.6983854E-006  0.1280892E+03  0.7818608E-02  0.1406423E+00
          2   -1    0    0  502    0  0.00000000000E+00  0.00000000000E+00  0.31689323568E+04  0.31689323568E+04  0.00000000000E+00 0. -1.
          1   -1    0    0  501    0 -0.00000000000E+00 -0.00000000000E+00 -0.11848831635E+04  0.11848831635E+04  0.00000000000E+00 0. -1.
         25    2    1    2    0    0  0.95440235064E+01 -0.10173500508E+03 -0.42715971168E+03  0.45665354752E+03  0.12500377410E+03 0.  0.
          2    1    1    2  501    0  0.66746294094E+01 -0.25400411966E+02 -0.74144198929E+03  0.74190697199E+03  0.00000000000E+00 0. -1.
          1    1    1    2  502    0 -0.16218652916E+02  0.12713541704E+03  0.31526508943E+04  0.31552550008E+04  0.00000000000E+00 0. -1.
         22    1    3    3    0    0  0.48948359537E+02 -0.26459742972E+02 -0.69445820665E+02  0.88987537933E+02  0.00000000000E+00 0. -1.
         22    1    3    3    0    0 -0.39404336031E+02 -0.75275262106E+02 -0.35771389101E+03  0.36766600959E+03  0.00000000000E+00 0. -1.
</event>
<event>
 7    1  0.6103724E-006  0.7175605E+02  0.7818608E-02  0.1380472E+00
          2   -1    0    0  502    0  0.00000000000E+00  0.00000000000E+00  0.32161252680E+03  0.32161252680E+03  0.00000000000E+00 0. -1.
          1   -1    0    0  501    0 -0.00000000000E+00 -0.00000000000E+00 -0.33310933284E+03  0.33310933284E+03  0.00000000000E+00 0. -1.
         25    2    1    2    0    0  0.70470129809E+02  0.10158598605E+03 -0.16310135683E+03  0.23980051775E+03  0.12496593117E+03 0.  0.
          2    1    1    2  501    0 -0.45496324437E+02 -0.35471750423E+02 -0.12060191042E+03  0.13368987026E+03  0.00000000000E+00 0. -1.
          1    1    1    2  502    0 -0.24973805372E+02 -0.66114235631E+02  0.27220646121E+03  0.28123147162E+03  0.00000000000E+00 0. -1.
         22    1    3    3    0    0 -0.38999537418E+01  0.38605275412E+02 -0.13187513934E+03  0.13746501121E+03  0.00000000000E+00 0. -1.
         22    1    3    3    0    0  0.74370083551E+02  0.62980710642E+02 -0.31226217488E+02  0.10233550654E+03  0.00000000000E+00 0. -1.
</event>
<event>
 7    1  0.6103724E-006  0.1884372E+03  0.7818608E-02  0.1310408E+00
          2   -1    0    0  502    0  0.00000000000E+00  0.00000000000E+00  0.26241016498E+04  0.26241016498E+04  0.00000000000E+00 0. -1.
          1   -1    0    0  501    0 -0.00000000000E+00 -0.00000000000E+00 -0.87299604609E+02  0.87299604609E+02  0.00000000000E+00 0. -1.
         25    2    1    2    0    0  0.90339488517E+02 -0.15299631350E+03  0.22140521091E+03  0.31018508817E+03  0.12500170550E+03 0.  0.
          2    1    1    2  501    0 -0.29874502327E+02 -0.26782442384E+02 -0.28780903657E+02  0.49377378674E+02  0.00000000000E+00 0. -1.
          1    1    1    2  502    0 -0.60464986190E+02  0.17977875588E+03  0.23441777379E+04  0.23518387875E+04  0.00000000000E+00 0. -1.
         22    1    3    3    0    0 -0.99439315127E+01  0.64354860286E+01 -0.72941157462E+01  0.13910477306E+02  0.00000000000E+00 0.  1.
         22    1    3    3    0    0  0.10028342003E+03 -0.15943179953E+03  0.22869932665E+03  0.29627461087E+03  0.00000000000E+00 0.  1.
</event>
<event>
 7    1  0.6103724E-006  0.6031166E+02  0.7818608E-02  0.1517030E+00
          2   -1    0    0  502    0  0.00000000000E+00  0.00000000000E+00  0.19487760384E+03  0.19487760384E+03  0.00000000000E+00 0. -1.
          1   -1    0    0  501    0 -0.00000000000E+00 -0.00000000000E+00 -0.60457359485E+03  0.60457359485E+03  0.00000000000E+00 0. -1.
         25    2    1    2    0    0 -0.35182515139E+02 -0.15672300186E+02 -0.53047500966E+02  0.14114082550E+03  0.12499305941E+03 0.  0.
          2    1    1    2  501    0  0.59975423914E+02  0.12500988854E+02 -0.50457821501E+03  0.50828387862E+03  0.00000000000E+00 0. -1.
          1    1    1    2  502    0 -0.24792908775E+02  0.31713113318E+01  0.14792972497E+03  0.15002649456E+03  0.00000000000E+00 0. -1.
         22    1    3    3    0    0  0.45301038081E+02 -0.12646377641E+02 -0.48548954680E+01  0.47283030028E+02  0.00000000000E+00 0. -1.
         22    1    3    3    0    0 -0.80483553220E+02 -0.30259225452E+01 -0.48192605498E+02  0.93857795472E+02  0.00000000000E+00 0. -1.
</event>
<event>
 7    1  0.6103724E-006  0.1020461E+03  0.7818608E-02  0.1341878E+00
          2   -1    0    0  502    0  0.00000000000E+00  0.00000000000E+00  0.76941089240E+03  0.76941089240E+03  0.00000000000E+00 0. -1.
          1   -1    0    0  501    0 -0.00000000000E+00 -0.00000000000E+00 -0.18261384913E+03  0.18261384913E+03  0.00000000000E+00 0. -1.
         25    2    1    2    0    0 -0.55981145909E+01 -0.85659400015E+02  0.78775606126E+02  0.17087978420E+03  0.12500173131E+03 0.  0.
          2    1    1    2  501    0  0.61658536547E+02  0.87050571828E+02 -0.11427455100E+03  0.15632738145E+03  0.00000000000E+00 0. -1.
          1    1    1    2  502    0 -0.56060421956E+02 -0.13911718129E+01  0.62229598814E+03  0.62481757588E+03  0.00000000000E+00 0. -1.
         22    1    3    3    0    0 -0.42179577160E+02 -0.10060385407E+03  0.72207932600E+02  0.13082139624E+03  0.00000000000E+00 0. -1.
         22    1    3    3    0    0  0.36581462569E+02  0.14944454054E+02  0.65676735263E+01  0.40058387963E+02  0.00000000000E+00 0. -1.
</event>
<event>
 7    1  0.6103724E-006  0.7764968E+02  0.7818608E-02  0.1444426E+00
          2   -1    0    0  502    0  0.00000000000E+00  0.00000000000E+00  0.19951685658E+04  0.19951685658E+04  0.00000000000E+00 0. -1.
          1   -1    0    0  501    0 -0.00000000000E+00 -0.00000000000E+00 -0.24681119049E+03  0.24681119049E+03  0.00000000000E+00 0. -1.
         25    2    1    2    0    0  0.88883360580E+02  0.60144697423E+01  0.18240510093E+03  0.23839601022E+03  0.12499844482E+03 0.  0.
          2    1    1    2  501    0 -0.70285578609E+02 -0.32563949426E+02 -0.21180772866E+03  0.22552824054E+03  0.00000000000E+00 0. -1.
          1    1    1    2  502    0 -0.18597781971E+02  0.26549479684E+02  0.17777600031E+04  0.17780555056E+04  0.00000000000E+00 0. -1.
         22    1    3    3    0    0  0.13351760309E+02  0.16788309998E+02 -0.15387255820E+02  0.26398569992E+02  0.00000000000E+00 0.  1.
         22    1    3    3    0    0  0.75531600271E+02 -0.10773840256E+02  0.19779235675E+03  0.21199744022E+03  0.00000000000E+00 0.  1.
</event>
<event>
 7    1  0.6103724E-006  0.5417582E+02  0.7818608E-02  0.1533552E+00
          2   -1    0    0  502    0  0.00000000000E+00  0.00000000000E+00  0.83482235017E+03  0.83482235017E+03  0.00000000000E+00 0. -1.
          1   -1    0    0  501    0 -0.00000000000E+00 -0.00000000000E+00 -0.24379493379E+03  0.24379493379E+03  0.00000000000E+00 0. -1.
         25    2    1    2    0    0 -0.75244702143E+02 -0.13301641082E+02  0.83389446987E+02  0.16857371544E+03  0.12499839524E+03 0.  0.
          2    1    1    2  501    0  0.53562083967E+02  0.98832444422E+00 -0.19741259717E+03  0.20455221130E+03  0.00000000000E+00 0. -1.
          1    1    1    2  502    0  0.21682618176E+02  0.12313316637E+02  0.70505056657E+03  0.70549135723E+03  0.00000000000E+00 0. -1.
         22    1    3    3    0    0 -0.69466441361E+02  0.46887176773E+02  0.33778187345E+02  0.90360166895E+02  0.00000000000E+00 0.  1.
         22    1    3    3    0    0 -0.57782607818E+01 -0.60188817854E+02  0.49611259642E+02  0.78213548542E+02  0.00000000000E+00 0.  1.
</event>
<event>
 7    1  0.6103724E-006  0.6864335E+02  0.7818608E-02  0.1468905E+00
          2   -1    0    0  502    0  0.00000000000E+00  0.00000000000E+00  0.90202662954E+03  0.90202662954E+03  0.00000000000E+00 0. -1.
          1   -1    0    0  501    0 -0.00000000000E+00 -0.00000000000E+00 -0.14667724798E+04  0.14667724798E+04  0.00000000000E+00 0. -1.
         25    2    1    2    0    0  0.75531987761E+02  0.50689354124E+02 -0.11404274892E+03  0.19210358781E+03  0.12499419215E+03 0.  0.
          2    1    1    2  501    0 -0.64539938958E+02 -0.22057860026E+02 -0.13125410931E+04  0.13143120154E+04  0.00000000000E+00 0. -1.
          1    1    1    2  502    0 -0.10992048803E+02 -0.28631494098E+02  0.86183799174E+03  0.86238350610E+03  0.00000000000E+00 0. -1.
         22    1    3    3    0    0  0.34251357817E+02 -0.18784739393E+02 -0.10347404017E+03  0.11060243639E+03  0.00000000000E+00 0. -1.
         22    1    3    3    0    0  0.41280629944E+02  0.69474093517E+02 -0.10568708753E+02  0.81501151423E+02  0.00000000000E+00 0. -1.
</event>
<event>
 7    1  0.6103724E-006  0.8263987E+02  0.7818608E-02  0.1430165E+00
          2   -1    0    0  502    0  0.00000000000E+00  0.00000000000E+00  0.16780248785E+04  0.16780248785E+04  0.00000000000E+00 0. -1.
          1   -1    0    0  501    0 -0.00000000000E+00 -0.00000000000E+00 -0.39717470665E+02  0.39717470665E+02  0.00000000000E+00 0. -1.
         25    2    1    2    0    0  0.72897005370E+02 -0.40255013820E+01  0.31743303106E+03  0.34888320351E+03  0.12500232970E+03 0.  0.
          2    1    1    2  501    0 -0.77336802321E+02  0.37630661231E+02  0.54046633278E+02  0.10157798101E+03  0.00000000000E+00 0. -1.
          1    1    1    2  502    0  0.44397969509E+01 -0.33605159849E+02  0.12668277435E+04  0.12672811647E+04  0.00000000000E+00 0. -1.
         22    1    3    3    0    0  0.10613658273E+03 -0.19164685334E+02  0.22567557716E+03  0.25012342051E+03  0.00000000000E+00 0.  1.
         22    1    3    3    0    0 -0.33239577356E+02  0.15139183952E+02  0.91757453896E+02  0.98759783004E+02  0.00000000000E+00 0.  1.
</event>
<event>
 7    1  0.6103724E-006  0.1810401E+03  0.7818608E-02  0.1267429E+00
          2   -1    0    0  502    0  0.00000000000E+00  0.00000000000E+00  0.51145778666E+03  0.51145778666E+03  0.00000000000E+00 0. -1.
          1   -1    0    0  501    0 -0.00000000000E+00 -0.00000000000E+00 -0.11900213541E+04  0.11900213541E+04  0.00000000000E+00 0. -1.
         25    2    1    2    0    0 -0.41929609005E+02  0.71727275176E+01 -0.73817391644E+03  0.74989180580E+03  0.12500979708E+03 0.  0.
          2    1    1    2  501    0  0.10697744189E+03  0.16177781714E+03 -0.40712936879E+03  0.45096624943E+03  0.00000000000E+00 0. -1.
          1    1    1    2  502    0 -0.65047832882E+02 -0.16895054466E+03  0.46673971780E+03  0.50062108553E+03  0.00000000000E+00 0. -1.
         22    1    3    3    0    0 -0.29629145471E+01 -0.89372057231E+01 -0.66770338889E+03  0.66776977173E+03  0.00000000000E+00 0.  1.
         22    1    3    3    0    0 -0.38966694458E+02  0.16109933241E+02 -0.70470527552E+02  0.82122034068E+02  0.00000000000E+00 0.  1.
</event>
<event>
 7    1  0.6103724E-006  0.1756978E+03  0.7818608E-02  0.1345157E+00
          2   -1    0    0  502    0  0.00000000000E+00  0.00000000000E+00  0.62274471709E+03  0.62274471709E+03  0.00000000000E+00 0. -1.
          1   -1    0    0  501    0 -0.00000000000E+00 -0.00000000000E+00 -0.75529665594E+03  0.75529665594E+03  0.00000000000E+00 0. -1.
         25    2    1    2    0    0  0.11996212962E+03 -0.11267533352E+03  0.36389800036E+03  0.41848869277E+03  0.12499755189E+03 0.  0.
          2    1    1    2  501    0  0.30959101082E+02 -0.66392437012E+01 -0.68761185108E+03  0.68834047043E+03  0.00000000000E+00 0. -1.
          1    1    1    2  502    0 -0.15092123071E+03  0.11931457722E+03  0.19116191186E+03  0.27121220983E+03  0.00000000000E+00 0. -1.
         22    1    3    3    0    0  0.57611890134E+02 -0.41778497254E+01  0.22155388221E+03  0.22896005555E+03  0.00000000000E+00 0.  1.
         22    1    3    3    0    0  0.62350239490E+02 -0.10849748379E+03  0.14234411815E+03  0.18952863722E+03  0.00000000000E+00 0.  1.
</event>
<event>
 7    1  0.6103724E-006  0.2446046E+03  0.7818608E-02  0.1198049E+00
          2   -1    0    0  502    0  0.00000000000E+00  0.00000000000E+00  0.18973947398E+04  0.18973947398E+04  0.00000000000E+00 0. -1.
          1   -1    0    0  501    0 -0.00000000000E+00 -0.00000000000E+00 -0.39545579169E+03  0.39545579169E+03  0.00000000000E+00 0. -1.
         25    2    1    2    0    0  0.55424323443E+02 -0.16252742649E+03  0.25551705968E+03  0.33226961070E+03  0.12500842538E+03 0.  0.
          2    1    1    2  501    0  0.18438017906E+02 -0.92624391263E+02 -0.33959060751E+03  0.35247839518E+03  0.00000000000E+00 0. -1.
          1    1    1    2  502    0 -0.73862341349E+02  0.25515181776E+03  0.15860124959E+04  0.16081025256E+04  0.00000000000E+00 0. -1.
         22    1    3    3    0    0 -0.39553968247E+02 -0.36150911463E+02  0.53158122128E+02  0.75479737360E+02  0.00000000000E+00 0.  1.
         22    1    3    3    0    0  0.94978291690E+02 -0.12637651503E+03  0.20235893755E+03  0.25678987334E+03  0.00000000000E+00 0.  1.
</event>
<event>
 7    1  0.6103724E-006  0.8417984E+02  0.7818608E-02  0.1370186E+00
          2   -1    0    0  502    0  0.00000000000E+00  0.00000000000E+00  0.88899018641E+02  0.88899018641E+02  0.00000000000E+00 0. -1.
          1   -1    0    0  501    0 -0.00000000000E+00 -0.00000000000E+00 -0.13210324170E+04  0.13210324170E+04  0.00000000000E+00 0. -1.
         25    2    1    2    0    0  0.67023822074E+01  0.82402682355E+02 -0.13387741126E+03  0.20095772301E+03  0.12500288479E+03 0.  0.
          2    1    1    2  501    0  0.50846086327E+02 -0.16673734634E+02 -0.11181053900E+04  0.11193850996E+04  0.00000000000E+00 0. -1.
          1    1    1    2  502    0 -0.57548468534E+02 -0.65728947721E+02  0.19849402905E+02  0.89588613087E+02  0.00000000000E+00 0. -1.
         22    1    3    3    0    0  0.46490844576E+02  0.37153304442E+02 -0.62729538408E+01  0.59842431520E+02  0.00000000000E+00 0. -1.
         22    1    3    3    0    0 -0.39788462369E+02  0.45249377913E+02 -0.12760445741E+03  0.14111529149E+03  0.00000000000E+00 0. -1.
</event>
<event>
 7    1  0.6103724E-006  0.1021167E+03  0.7818608E-02  0.1350826E+00
          2   -1    0    0  502    0  0.00000000000E+00  0.00000000000E+00  0.24374834655E+03  0.24374834655E+03  0.00000000000E+00 0. -1.
          1   -1    0    0  501    0 -0.00000000000E+00 -0.00000000000E+00 -0.15189156073E+04  0.15189156073E+04  0.00000000000E+00 0. -1.
         25    2    1    2    0    0 -0.79295342394E+02  0.35381081663E+02 -0.10052984458E+04  0.10167542023E+04  0.12499828147E+03 0.  0.
          2    1    1    2  501    0 -0.22482988595E+02 -0.46775508586E+02 -0.49545427327E+03  0.49816500266E+03  0.00000000000E+00 0. -1.
          1    1    1    2  502    0  0.10177833099E+03  0.11394426923E+02  0.22558545832E+03  0.24774474895E+03  0.00000000000E+00 0. -1.
         22    1    3    3    0    0  0.29028592039E+00 -0.37901451774E+02 -0.15337303282E+03  0.15798699791E+03  0.00000000000E+00 0.  1.
         22    1    3    3    0    0 -0.79585628314E+02  0.73282533438E+02 -0.85192541302E+03  0.85876720436E+03  0.00000000000E+00 0.  1.
</event>
<event>
 7    1  0.6103724E-006  0.4893025E+02  0.7818608E-02  0.1475914E+00
          2   -1    0    0  502    0  0.00000000000E+00  0.00000000000E+00  0.20255955829E+04  0.20255955829E+04  0.00000000000E+00 0. -1.
          1   -1    0    0  501    0 -0.00000000000E+00 -0.00000000000E+00 -0.32753942725E+03  0.32753942725E+03  0.00000000000E+00 0. -1.
         25    2    1    2    0    0 -0.31058674639E+02 -0.97046605468E+01  0.44367537983E+03  0.46209579873E+03  0.12500345127E+03 0.  0.
          2    1    1    2  501    0  0.14149514582E+02  0.46973449569E+02 -0.31617095791E+03  0.31995435355E+03  0.00000000000E+00 0. -1.
          1    1    1    2  502    0  0.16909160057E+02 -0.37268789022E+02  0.15705517337E+04  0.15710848578E+04  0.00000000000E+00 0. -1.
         22    1    3    3    0    0 -0.41535305844E+02 -0.62478916861E+02  0.27470783774E+03  0.28476866541E+03  0.00000000000E+00 0. -1.
         22    1    3    3    0    0  0.10476631205E+02  0.52774256314E+02  0.16896754209E+03  0.17732713332E+03  0.00000000000E+00 0. -1.
</event>
<event>
 7    1  0.6103724E-006  0.1053893E+03  0.7818608E-02  0.1325561E+00
          2   -1    0    0  502    0  0.00000000000E+00  0.00000000000E+00  0.39226835129E+03  0.39226835129E+03  0.00000000000E+00 0. -1.
          1   -1    0    0  501    0 -0.00000000000E+00 -0.00000000000E+00 -0.74515654356E+03  0.74515654356E+03  0.00000000000E+00 0. -1.
         25    2    1    2    0    0 -0.11393806639E+03 -0.15141246988E+02 -0.11352304190E+03  0.20426313162E+03  0.12499922226E+03 0.  0.
          2    1    1    2  501    0  0.33144229640E+02 -0.53139674175E+02 -0.57646350750E+03  0.57985562031E+03  0.00000000000E+00 0. -1.
          1    1    1    2  502    0  0.80793836754E+02  0.68280921163E+02  0.33709835712E+03  0.35330614292E+03  0.00000000000E+00 0. -1.
         22    1    3    3    0    0 -0.12911160359E+03 -0.41958296121E+02 -0.10678378259E+03  0.17272255504E+03  0.00000000000E+00 0.  1.
         22    1    3    3    0    0  0.15173537193E+02  0.26817049133E+02 -0.67392593007E+01  0.31540576581E+02  0.00000000000E+00 0.  1.
</event>
<event>
 7    1  0.6103724E-006  0.2859802E+02  0.7818608E-02  0.1616284E+00
          2   -1    0    0  502    0  0.00000000000E+00  0.00000000000E+00  0.21534277913E+04  0.21534277913E+04  0.00000000000E+00 0. -1.
          1   -1    0    0  501    0 -0.00000000000E+00 -0.00000000000E+00 -0.23987051857E+02  0.23987051857E+02  0.00000000000E+00 0. -1.
         25    2    1    2    0    0 -0.46144559382E+02  0.30487043612E+02  0.10772945825E+04  0.10859316095E+04  0.12500025085E+03 0.  0.
          2    1    1    2  501    0  0.26427537630E+02 -0.10275614749E+02 -0.91628639075E+01  0.29798675787E+02  0.00000000000E+00 0. -1.
          1    1    1    2  502    0  0.19717021752E+02 -0.20211428862E+02  0.10613090209E+04  0.10616845579E+04  0.00000000000E+00 0. -1.
         22    1    3    3    0    0 -0.67994827355E+02 -0.24455337296E+02  0.43932044874E+03  0.44522333356E+03  0.00000000000E+00 0. -1.
         22    1    3    3    0    0  0.21850267973E+02  0.54942380907E+02  0.63797413377E+03  0.64070827589E+03  0.00000000000E+00 0. -1.
</event>
<event>
 7    1  0.6103724E-006  0.7828462E+02  0.7818608E-02  0.1491947E+00
          2   -1    0    0  502    0  0.00000000000E+00  0.00000000000E+00  0.22555820036E+03  0.22555820036E+03  0.00000000000E+00 0. -1.
          1   -1    0    0  501    0 -0.00000000000E+00 -0.00000000000E+00 -0.10230828876E+04  0.10230828876E+04  0.00000000000E+00 0. -1.
         25    2    1    2    0    0  0.25948898924E+02 -0.50157670841E+02 -0.55303457610E+03  0.56978658228E+03  0.12498147737E+03 0.  0.
          2    1    1    2  501    0  0.38809360255E+01 -0.22522777518E+02 -0.45427067952E+03  0.45484523460E+03  0.00000000000E+00 0. -1.
          1    1    1    2  502    0 -0.29829834950E+02  0.72680448359E+02  0.20978056841E+03  0.22400927104E+03  0.00000000000E+00 0. -1.
         22    1    3    3    0    0  0.26966282035E+02  0.83509230513E+01 -0.22675694053E+02  0.36209189212E+02  0.00000000000E+00 0. -1.
         22    1    3    3    0    0 -0.10173831107E+01 -0.58508593892E+02 -0.53035888205E+03  0.53357739307E+03  0.00000000000E+00 0. -1.
</event>
<event>
 7    1  0.6103724E-006  0.9197346E+02  0.7818608E-02  0.1381328E+00
          2   -1    0    0  502    0  0.00000000000E+00  0.00000000000E+00  0.21999428446E+03  0.21999428446E+03  0.00000000000E+00 0. -1.
          1   -1    0    0  501    0 -0.00000000000E+00 -0.00000000000E+00 -0.27832544201E+03  0.27832544201E+03  0.00000000000E+00 0. -1.
         25    2    1    2    0    0  0.57533172666E+02  0.23494272409E+02  0.15796217122E+01  0.13960914629E+03  0.12500468683E+03 0.  0.
          2    1    1    2  501    0 -0.71791324215E+02 -0.65855180242E+02 -0.19415247060E+03  0.21722357339E+03  0.00000000000E+00 0. -1.
          1    1    1    2  502    0  0.14258151549E+02  0.42360907833E+02  0.13424169134E+03  0.14148700679E+03  0.00000000000E+00 0. -1.
         22    1    3    3    0    0  0.54886085333E+02 -0.31725655020E+02  0.37523432248E+02  0.73668225968E+02  0.00000000000E+00 0. -1.
         22    1    3    3    0    0  0.26470873325E+01  0.55219927429E+02 -0.35943810536E+02  0.65940920318E+02  0.00000000000E+00 0. -1.
</event>
<event>
 7    1  0.6103724E-006  0.7562405E+02  0.7818608E-02  0.1493638E+00
          2   -1    0    0  502    0  0.00000000000E+00  0.00000000000E+00  0.29498258834E+04  0.29498258834E+04  0.00000000000E+00 0. -1.
          1   -1    0    0  501    0 -0.00000000000E+00 -0.00000000000E+00 -0.77090683915E+03  0.77090683915E+03  0.00000000000E+00 0. -1.
         25    2    1    2    0    0 -0.79424310101E+02 -0.42775134435E+02 -0.13162516340E+03  0.20270201686E+03  0.12499996335E+03 0.  0.
          2    1    1    2  501    0  0.22370194798E+02 -0.68064185426E+01 -0.60302649709E+03  0.60347966754E+03  0.00000000000E+00 0. -1.
          1    1    1    2  502    0  0.57054115303E+02  0.49581552978E+02  0.29135707048E+04  0.29145510382E+04  0.00000000000E+00 0. -1.
         22    1    3    3    0    0 -0.10149215748E+03 -0.66590386004E+02 -0.10883850919E+03  0.16303606540E+03  0.00000000000E+00 0.  1.
         22    1    3    3    0    0  0.22067847375E+02  0.23815251569E+02 -0.22786654217E+02  0.39665951463E+02  0.00000000000E+00 0.  1.
</event>
<event>
 7    1  0.6103724E-006  0.1103559E+03  0.7818608E-02  0.1444336E+00
          2   -1    0    0  502    0  0.00000000000E+00  0.00000000000E+00  0.49267284876E+03  0.49267284876E+03  0.00000000000E+00 0. -1.
          1   -1    0    0  501    0 -0.00000000000E+00 -0.00000000000E+00 -0.86079629744E+03  0.86079629744E+03  0.00000000000E+00 0. -1.
         25    2    1    2    0    0 -0.61151371995E+02 -0.92886931924E+02 -0.11598128263E+03  0.20357446703E+03  0.12499373298E+03 0.  0.
          2    1    1    2  501    0  0.20605444028E+02 -0.98149022889E+01 -0.69403790561E+03  0.69441308387E+03  0.00000000000E+00 0. -1.
          1    1    1    2  502    0  0.40545927967E+02  0.10270183421E+03  0.44189573955E+03  0.45548159531E+03  0.00000000000E+00 0. -1.
         22    1    3    3    0    0 -0.25503781841E+02 -0.33561584660E+02 -0.12670891658E+03  0.13353640850E+03  0.00000000000E+00 0.  1.
         22    1    3    3    0    0 -0.35647590154E+02 -0.59325347264E+02  0.10727633952E+02  0.70038058525E+02  0.00000000000E+00 0.  1.
</event>
<event>
 7    1  0.6103724E-006  0.5276085E+02  0.7818608E-02  0.1514281E+00
          2   -1    0    0  502    0  0.00000000000E+00  0.00000000000E+00  0.91848071883E+03  0.91848071883E+03  0.00000000000E+00 0. -1.
          1   -1    0    0  501    0 -0.00000000000E+00 -0.00000000000E+00 -0.45775886436E+02  0.45775886436E+02  0.00000000000E+00 0. -1.
         25    2    1    2    0    0 -0.12062085943E+02  0.24926098313E+02  0.71002787526E+03  0.72147303688E+03  0.12496781584E+03 0.  0.
          2    1    1    2  501    0  0.38522566293E+02 -0.37049004771E+02 -0.20548135747E+02  0.57261180140E+02  0.00000000000E+00 0. -1.
          1    1    1    2  502    0 -0.26460480350E+02  0.12122906458E+02  0.18322509287E+03  0.18552238825E+03  0.00000000000E+00 0. -1.
         22    1    3    3    0    0  0.29331843613E+02  0.25166172791E+02  0.63168745764E+03  0.63286865734E+03  0.00000000000E+00 0. -1.
         22    1    3    3    0    0 -0.41393929556E+02 -0.24007447863E+00  0.78340417619E+02  0.88604379533E+02  0.00000000000E+00 0. -1.
</event>
<event>
 7    1  0.6103724E-006  0.8787670E+02  0.7818608E-02  0.1436951E+00
          2   -1    0    0  502    0  0.00000000000E+00  0.00000000000E+00  0.21725053437E+03  0.21725053437E+03  0.00000000000E+00 0. -1.
          1   -1    0    0  501    0 -0.00000000000E+00 -0.00000000000E+00 -0.60681715391E+03  0.60681715391E+03  0.00000000000E+00 0. -1.
         25    2    1    2    0    0 -0.85840773934E+01  0.85670493573E+02 -0.34627219765E+03  0.37807702127E+03  0.12499871718E+03 0.  0.
          2    1    1    2  501    0 -0.21616197282E+02 -0.87957413291E+02 -0.23502952602E+03  0.25187823376E+03  0.00000000000E+00 0. -1.
          1    1    1    2  502    0  0.30200274676E+02  0.22869197174E+01  0.19173510413E+03  0.19411243326E+03  0.00000000000E+00 0. -1.
         22    1    3    3    0    0  0.16457448969E+02 -0.12458865734E+02 -0.19465910575E+03  0.19575044933E+03  0.00000000000E+00 0.  1.
         22    1    3    3    0    0 -0.25041526363E+02  0.98129359307E+02 -0.15161309189E+03  0.18232657194E+03  0.00000000000E+00 0.  1.
</event>
<event>
 7    1  0.6103724E-006  0.8117274E+02  0.7818608E-02  0.1467742E+00
          2   -1    0    0  502    0  0.00000000000E+00  0.00000000000E+00  0.17169727404E+04  0.17169727404E+04  0.00000000000E+00 0. -1.
          1   -1    0    0  501    0 -0.00000000000E+00 -0.00000000000E+00 -0.14716769970E+02  0.14716769970E+02  0.00000000000E+00 0. -1.
         25    2    1    2    0    0  0.32577547619E+02  0.78319838544E+02  0.10510972464E+04  0.10618972104E+04  0.12499988099E+03 0.  0.
          2    1    1    2  501    0 -0.52743878349E+02 -0.61668307892E+02  0.17481124280E+03  0.19272744358E+03  0.00000000000E+00 0. -1.
          1    1    1    2  502    0  0.20166330731E+02 -0.16651530653E+02  0.47634748118E+03  0.47706485638E+03  0.00000000000E+00 0. -1.
         22    1    3    3    0    0 -0.16221368270E+02 -0.25763336735E+02  0.36194257258E+03  0.36322074302E+03  0.00000000000E+00 0.  1.
         22    1    3    3    0    0  0.48798915889E+02  0.10408317528E+03  0.68915467385E+03  0.69867646737E+03  0.00000000000E+00 0.  1.
</event>
<event>
 7    1  0.6103724E-006  0.6027523E+02  0.7818608E-02  0.1450841E+00
          2   -1    0    0  502    0  0.00000000000E+00  0.00000000000E+00  0.28677251771E+03  0.28677251771E+03  0.00000000000E+00 0. -1.
          1   -1    0    0  501    0 -0.00000000000E+00 -0.00000000000E+00 -0.10313090988E+04  0.10313090988E+04  0.00000000000E+00 0. -1.
         25    2    1    2    0    0  0.22326735601E+02  0.24346044081E+02 -0.20081541371E+03  0.23883698018E+03  0.12500023893E+03 0.  0.
          2    1    1    2  501    0  0.37493353933E+02 -0.13427163429E+02 -0.80753346379E+03  0.80851489500E+03  0.00000000000E+00 0. -1.
          1    1    1    2  502    0 -0.59820089534E+02 -0.10918880652E+02  0.26381229645E+03  0.27072974130E+03  0.00000000000E+00 0. -1.
         22    1    3    3    0    0 -0.88846508270E+01 -0.48618166298E+02 -0.66955997645E+02  0.83221203639E+02  0.00000000000E+00 0.  1.
         22    1    3    3    0    0  0.31211386428E+02  0.72964210379E+02 -0.13385941607E+03  0.15561577654E+03  0.00000000000E+00 0.  1.
</event>
<event>
 7    1  0.6103724E-006  0.1156896E+03  0.7818608E-02  0.1361610E+00
          2   -1    0    0  502    0  0.00000000000E+00  0.00000000000E+00  0.23634345963E+04  0.23634345963E+04  0.00000000000E+00 0. -1.
          1   -1    0    0  501    0 -0.00000000000E+00 -0.00000000000E+00 -0.39246571765E+03  0.39246571765E+03  0.00000000000E+00 0. -1.
         25    2    1    2    0    0  0.12621681709E+03  0.19708299738E+02  0.55564627694E+03  0.58367814255E+03  0.12497314518E+03 0.  0.
          2    1    1    2  501    0 -0.11382416495E+03  0.20232137531E+02 -0.36937016084E+03  0.38703952723E+03  0.00000000000E+00 0. -1.
          1    1    1    2  502    0 -0.12392652138E+02 -0.39940437269E+02  0.17846927625E+04  0.17851826442E+04  0.00000000000E+00 0. -1.
         22    1    3    3    0    0  0.73793223008E+02 -0.58779695112E+01  0.49121945413E+03  0.49676608419E+03  0.00000000000E+00 0.  1.
         22    1    3    3    0    0  0.52423594082E+02  0.25586269249E+02  0.64426822816E+02  0.86912058362E+02  0.00000000000E+00 0.  1.
</event>
<event>
 7    1  0.6103724E-006  0.6257224E+02  0.7818608E-02  0.1487036E+00
          2   -1    0    0  502    0  0.00000000000E+00  0.00000000000E+00  0.69400087001E+03  0.69400087001E+03  0.00000000000E+00 0. -1.
          1   -1    0    0  501    0 -0.00000000000E+00 -0.00000000000E+00 -0.21556492597E+03  0.21556492597E+03  0.00000000000E+00 0. -1.
         25    2    1    2    0    0 -0.59449581439E+02  0.57427898723E+02  0.37252690798E+03  0.40153714210E+03  0.12499425200E+03 0.  0.
          2    1    1    2  501    0  0.55687993678E+02 -0.28078381453E+02 -0.19548149922E+03  0.20518909494E+03  0.00000000000E+00 0. -1.
          1    1    1    2  502    0  0.37615877604E+01 -0.29349517270E+02  0.30139053528E+03  0.30283955894E+03  0.00000000000E+00 0. -1.
         22    1    3    3    0    0 -0.12278412259E+02  0.79330208360E+02  0.12464381967E+03  0.14825694974E+03  0.00000000000E+00 0. -1.
         22    1    3    3    0    0 -0.47171169179E+02 -0.21902309636E+02  0.24788308831E+03  0.25328019235E+03  0.00000000000E+00 0. -1.
</event>
<event>
 7    1  0.6103724E-006  0.7235267E+02  0.7818608E-02  0.1425408E+00
          2   -1    0    0  502    0  0.00000000000E+00  0.00000000000E+00  0.25007452245E+03  0.25007452245E+03  0.00000000000E+00 0. -1.
          1   -1    0    0  501    0 -0.00000000000E+00 -0.00000000000E+00 -0.68707665012E+03  0.68707665012E+03  0.00000000000E+00 0. -1.
         25    2    1    2    0    0  0.24115397503E+02  0.33552244015E+02 -0.19097237831E+03  0.23195345576E+03  0.12499860354E+03 0.  0.
          2    1    1    2  501    0 -0.62278341008E+02 -0.46003643460E+02 -0.47067148688E+03  0.47699745862E+03  0.00000000000E+00 0. -1.
          1    1    1    2  502    0  0.38162943505E+02  0.12451399444E+02  0.22464173752E+03  0.22820025819E+03  0.00000000000E+00 0. -1.
         22    1    3    3    0    0  0.54457771672E+02 -0.29931542293E+01 -0.26267101405E+02  0.60535679429E+02  0.00000000000E+00 0. -1.
         22    1    3    3    0    0 -0.30342374169E+02  0.36545398244E+02 -0.16470527690E+03  0.17141777633E+03  0.00000000000E+00 0. -1.
</event>
<event>
 7    1  0.6103724E-006  0.1034304E+03  0.7818608E-02  0.1285623E+00
          2   -1    0    0  502    0  0.00000000000E+00  0.00000000000E+00  0.18548841091E+03  0.18548841091E+03  0.00000000000E+00 0. -1.
          1   -1    0    0  501    0 -0.00000000000E+00 -0.00000000000E+00 -0.13016654995E+04  0.13016654995E+04  0.00000000000E+00 0. -1.
         25    2    1    2    0    0 -0.55093209349E+02 -0.98510290795E+02 -0.56672185122E+03  0.59121783375E+03  0.12500132471E+03 0.  0.
          2    1    1    2  501    0  0.91921678883E+02  0.98116114800E+00 -0.70374719780E+03  0.70972577531E+03  0.00000000000E+00 0. -1.
          1    1    1    2  502    0 -0.36828469534E+02  0.97529129647E+02  0.15429196040E+03  0.18621030139E+03  0.00000000000E+00 0. -1.
         22    1    3    3    0    0 -0.56536182178E+02 -0.11454587538E+03 -0.55891173184E+03  0.57332313877E+03  0.00000000000E+00 0. -1.
         22    1    3    3    0    0  0.14429728288E+01  0.16035584584E+02 -0.78101193826E+01  0.17894694976E+02  0.00000000000E+00 0. -1.
</event>
<event>
 7    1  0.6103724E-006  0.5830800E+02  0.7818608E-02  0.1520194E+00
          2   -1    0    0  502    0  0.00000000000E+00  0.00000000000E+00  0.31826290885E+03  0.31826290885E+03  0.00000000000E+00 0. -1.
          1   -1    0    0  501    0 -0.00000000000E+00 -0.00000000000E+00 -0.48546205981E+03  0.48546205981E+03  0.00000000000E+00 0. -1.
         25    2    1    2    0    0 -0.64090226016E+02  0.22804661657E+02 -0.35599837803E+02  0.14669842062E+03  0.12500187398E+03 0.  0.
          2    1    1    2  501    0  0.20180850139E+02  0.15277851899E+02 -0.39068354407E+03  0.39150263228E+03  0.00000000000E+00 0. -1.
          1    1    1    2  502    0  0.43909375878E+02 -0.38082513556E+02  0.25908423092E+03  0.26552391576E+03  0.00000000000E+00 0. -1.
         22    1    3    3    0    0 -0.95813566486E+02 -0.75408623386E+01 -0.36451174164E+02  0.10279003952E+03  0.00000000000E+00 0. -1.
         22    1    3    3    0    0  0.31723340469E+02  0.30345523996E+02  0.85133636107E+00  0.43908381099E+02  0.00000000000E+00 0. -1.
</event>
<event>
 7    1  0.6103724E-006  0.1190844E+03  0.7818608E-02  0.1269102E+00
          2   -1    0    0  502    0  0.00000000000E+00  0.00000000000E+00  0.25754066789E+04  0.25754066789E+04  0.00000000000E+00 0. -1.
          1   -1    0    0  501    0 -0.00000000000E+00 -0.00000000000E+00 -0.45444256732E+02  0.45444256732E+02  0.00000000000E+00 0. -1.
         25    2    1    2    0    0  0.15072438429E+03 -0.24021506000E+02  0.78206700585E+03  0.80656613181E+03  0.12500100226E+03 0.  0.
          2    1    1    2  501    0 -0.80922279162E+02  0.86226557704E+02  0.77744913878E+02  0.14151927838E+03  0.00000000000E+00 0. -1.
          1    1    1    2  502    0 -0.69802105125E+02 -0.62205051704E+02  0.16701505025E+04  0.16727655255E+04  0.00000000000E+00 0. -1.
         22    1    3    3    0    0  0.46582744588E+02 -0.61241239736E+02  0.20428810768E+03  0.21829812752E+03  0.00000000000E+00 0. -1.
         22    1    3    3    0    0  0.10414163970E+03  0.37219733736E+02  0.57777889817E+03  0.58826800429E+03  0.00000000000E+00 0. -1.
</event>
<event>
 7    1  0.6103724E-006  0.9480800E+02  0.7818608E-02  0.1367322E+00
          2   -1    0    0  502    0  0.00000000000E+00  0.00000000000E+00  0.52522819919E+03  0.52522819919E+03  0.00000000000E+00 0. -1.
          1   -1    0    0  501    0 -0.00000000000E+00 -0.00000000000E+00 -0.13269836069E+03  0.13269836069E+03  0.00000000000E+00 0. -1.
         25    2    1    2    0    0  0.60192801585E+02 -0.98976531475E+01  0.10046012983E+03  0.17157775512E+03  0.12500220585E+03 0.  0.
          2    1    1    2  501    0 -0.10078030790E+03 -0.16931856419E+02 -0.68166747970E+02  0.12284162060E+03  0.00000000000E+00 0. -1.
          1    1    1    2  502    0  0.40587506315E+02  0.26829509567E+02  0.36023645663E+03  0.36350718417E+03  0.00000000000E+00 0. -1.
         22    1    3    3    0    0  0.11421075563E+02  0.17255771407E+02 -0.26068305818E+02  0.33283016421E+02  0.00000000000E+00 0.  1.
         22    1    3    3    0    0  0.48771726022E+02 -0.27153424555E+02  0.12652843565E+03  0.13829473870E+03  0.00000000000E+00 0.  1.
</event>
<event>
 7    1  0.6103724E-006  0.5863265E+02  0.7818608E-02  0.1530264E+00
          2   -1    0    0  502    0  0.00000000000E+00  0.00000000000E+00  0.40065726735E+03  0.40065726735E+03  0.00000000000E+00 0. -1.
          1   -1    0    0  501    0 -0.00000000000E+00 -0.00000000000E+00 -0.34734855386E+03  0.34734855386E+03  0.00000000000E+00 0. -1.
         25    2    1    2    0    0  0.53267971680E+02  0.13104295264E+02  0.18086577872E+03  0.22659105481E+03  0.12498750676E+03 0.  0.
          2    1    1    2  501    0 -0.46649444704E+02 -0.35698423771E+02 -0.32110825483E+03  0.32643691499E+03  0.00000000000E+00 0. -1.
          1    1    1    2  502    0 -0.66185269759E+01  0.22594128508E+02  0.19355118960E+03  0.19497785141E+03  0.00000000000E+00 0. -1.
         22    1    3    3    0    0  0.91551920674E+02  0.57889304853E+01  0.15400160545E+03  0.17925334132E+03  0.00000000000E+00 0.  1.
         22    1    3    3    0    0 -0.38283948994E+02  0.73153647786E+01  0.26864173277E+02  0.47337713488E+02  0.00000000000E+00 0.  1.
</event>
<event>
 7    1  0.6103724E-006  0.1160000E+03  0.7818608E-02  0.1381710E+00
          2   -1    0    0  502    0  0.00000000000E+00  0.00000000000E+00  0.86342900165E+02  0.86342900165E+02  0.00000000000E+00 0. -1.
          1   -1    0    0  501    0 -0.00000000000E+00 -0.00000000000E+00 -0.16108614377E+04  0.16108614377E+04  0.00000000000E+00 0. -1.
         25    2    1    2    0    0 -0.67254812282E+01  0.12162747499E+03 -0.96207333032E+03  0.97777793515E+03  0.12500449106E+03 0.  0.
          2    1    1    2  501    0  0.34173705660E+02 -0.89586427420E+01 -0.59729502919E+03  0.59833891009E+03  0.00000000000E+00 0. -1.
          1    1    1    2  502    0 -0.27448224431E+02 -0.11266883225E+03  0.34849821947E+02  0.12108749265E+03  0.00000000000E+00 0. -1.
         22    1    3    3    0    0  0.20256921437E+01  0.53451049351E+02 -0.10393714323E+03  0.11689331824E+03  0.00000000000E+00 0. -1.
         22    1    3    3    0    0 -0.87511733720E+01  0.68176425642E+02 -0.85813618709E+03  0.86088461692E+03  0.00000000000E+00 0. -1.
</event>
<event>
 7    1  0.6103724E-006  0.8201245E+02  0.7818608E-02  0.1432732E+00
          2   -1    0    0  502    0  0.00000000000E+00  0.00000000000E+00  0.43282390973E+03  0.43282390973E+03  0.00000000000E+00 0. -1.
          1   -1    0    0  501    0 -0.00000000000E+00 -0.00000000000E+00 -0.12297971087E+04  0.12297971087E+04  0.00000000000E+00 0. -1.
         25    2    1    2    0    0 -0.53616773137E+02  0.49153175519E+02  0.15979332485E+03  0.21552174085E+03  0.12499968435E+03 0.  0.
          2    1    1    2  501    0  0.77884546626E+02 -0.26059845493E+02 -0.11993776380E+04  0.12021862737E+04  0.00000000000E+00 0. -1.
          1    1    1    2  502    0 -0.24267773489E+02 -0.23093330026E+02  0.24261111420E+03  0.24491300385E+03  0.00000000000E+00 0. -1.
         22    1    3    3    0    0  0.85145101919E+01 -0.36604759119E+02  0.54360271209E+02  0.66086642825E+02  0.00000000000E+00 0.  1.
         22    1    3    3    0    0 -0.62131283329E+02  0.85757934638E+02  0.10543305364E+03  0.14943509802E+03  0.00000000000E+00 0.  1.
</event>
<event>
 7    1  0.6103724E-006  0.7971406E+02  0.7818608E-02  0.1417727E+00
          2   -1    0    0  502    0  0.00000000000E+00  0.00000000000E+00  0.52463048386E+02  0.52463048386E+02  0.00000000000E+00 0. -1.
          1   -1    0    0  501    0 -0.00000000000E+00 -0.00000000000E+00 -0.13421772959E+04  0.13421772959E+04  0.00000000000E+00 0. -1.
         25    2    1    2    0    0  0.83059656057E+02 -0.31258757300E+01 -0.68455011347E+03  0.70081549704E+03  0.12499930191E+03 0.  0.
          2    1    1    2  501    0 -0.10655532618E+02  0.37149997474E+02 -0.61228963424E+03  0.61350815715E+03  0.00000000000E+00 0. -1.
          1    1    1    2  502    0 -0.72404123439E+02 -0.34024121745E+02  0.71255002192E+01  0.80316690076E+02  0.00000000000E+00 0. -1.
         22    1    3    3    0    0  0.48078781430E+02  0.49976124923E+02 -0.19126933510E+03  0.20345304332E+03  0.00000000000E+00 0. -1.
         22    1    3    3    0    0  0.34980874628E+02 -0.53102000653E+02 -0.49328077836E+03  0.49736245372E+03  0.00000000000E+00 0. -1.
</event>
<event>
 7    1  0.6103724E-006  0.6148576E+02  0.7818608E-02  0.1458463E+00
          2   -1    0    0  502    0  0.00000000000E+00  0.00000000000E+00  0.88906173827E+02  0.88906173827E+02  0.00000000000E+00 0. -1.
          1   -1    0    0  501    0 -0.00000000000E+00 -0.00000000000E+00 -0.17052445389E+04  0.17052445389E+04  0.00000000000E+00 0. -1.
         25    2    1    2    0    0  0.29157729472E+02 -0.37718105618E+02 -0.10604684342E+04  0.10688737836E+04  0.12500014615E+03 0.  0.
          2    1    1    2  501    0 -0.99905206829E+01  0.69276262630E+02 -0.63453182088E+03  0.63838048434E+03  0.00000000000E+00 0. -1.
          1    1    1    2  502    0 -0.19167208789E+02 -0.31558157013E+02  0.78661890071E+02  0.86896444786E+02  0.00000000000E+00 0. -1.
         22    1    3    3    0    0  0.50035000079E+02  0.30043879898E+02 -0.61927309923E+03  0.62201712789E+03  0.00000000000E+00 0. -1.
         22    1    3    3    0    0 -0.20877270607E+02 -0.67761985516E+02 -0.44119533500E+03  0.44685665569E+03  0.00000000000E+00 0. -1.
</event>
<event>
 7    1  0.6103724E-006  0.7135165E+02  0.7818608E-02  0.1425911E+00
          2   -1    0    0  502    0  0.00000000000E+00  0.00000000000E+00  0.20719537084E+03  0.20719537084E+03  0.00000000000E+00 0. -1.
          1   -1    0    0  501    0 -0.00000000000E+00 -0.00000000000E+00 -0.24719426967E+03  0.24719426967E+03  0.00000000000E+00 0. -1.
         25    2    1    2    0    0 -0.67721005789E+02 -0.33756813789E+02  0.31303821877E+02  0.14943588294E+03  0.12500198696E+03 0.  0.
          2    1    1    2  501    0  0.37775713593E+02  0.61098912988E+02 -0.17738902893E+03  0.19138168484E+03  0.00000000000E+00 0. -1.
          1    1    1    2  502    0  0.29945292196E+02 -0.27342099199E+02  0.10608630822E+03  0.11357207274E+03  0.00000000000E+00 0. -1.
         22    1    3    3    0    0 -0.71998786013E+02  0.31670864870E+02  0.50855542356E+01  0.78820883850E+02  0.00000000000E+00 0. -1.
         22    1    3    3    0    0  0.42777802248E+01 -0.65427678659E+02  0.26218267642E+02  0.70614999090E+02  0.00000000000E+00 0. -1.
</event>
<event>
 7    1  0.6103724E-006  0.1331756E+03  0.7818608E-02  0.1397504E+00
          2   -1    0    0  502    0  0.00000000000E+00  0.00000000000E+00  0.86461155232E+03  0.86461155232E+03  0.00000000000E+00 0. -1.
          1   -1    0    0  501    0 -0.00000000000E+00 -0.00000000000E+00 -0.14740511723E+03  0.14740511723E+03  0.00000000000E+00 0. -1.
         25    2    1    2    0    0 -0.12177031382E+03  0.40532946507E+02  0.16815854146E+02  0.17994117988E+03  0.12500050474E+03 0.  0.
          2    1    1    2  501    0  0.60421863876E+01  0.26420309243E+02 -0.56925451385E+02  0.63047979922E+02  0.00000000000E+00 0. -1.
          1    1    1    2  502    0  0.11572812743E+03 -0.66953255750E+02  0.75731603233E+03  0.76902750975E+03  0.00000000000E+00 0. -1.
         22    1    3    3    0    0 -0.71478955435E+02  0.84361716578E+02 -0.21331345061E+01  0.11059245253E+03  0.00000000000E+00 0.  1.
         22    1    3    3    0    0 -0.50291358385E+02 -0.43828770072E+02  0.18948988652E+02  0.69348727351E+02  0.00000000000E+00 0.  1.
</event>
<event>
 7    1  0.6103724E-006  0.7358228E+02  0.7818608E-02  0.1385981E+00
          2   -1    0    0  502    0  0.00000000000E+00  0.00000000000E+00  0.11998562274E+04  0.11998562274E+04  0.00000000000E+00 0. -1.
          1   -1    0    0  501    0 -0.00000000000E+00 -0.00000000000E+00 -0.19883193842E+03  0.19883193842E+03  0.00000000000E+00 0. -1.
         25    2    1    2    0    0  0.17222945360E+02  0.98703810333E+02  0.51361714066E+03  0.53801961256E+03  0.12499385702E+03 0.  0.
          2    1    1    2  501    0 -0.48614715983E+02 -0.55013784462E+02 -0.17828328851E+03  0.19280777488E+03  0.00000000000E+00 0. -1.
          1    1    1    2  502    0  0.31391770623E+02 -0.43690025870E+02  0.66569043685E+03  0.66786077841E+03  0.00000000000E+00 0. -1.
         22    1    3    3    0    0  0.15981566155E+02  0.10581042552E+03  0.22334172710E+03  0.24765456521E+03  0.00000000000E+00 0. -1.
         22    1    3    3    0    0  0.12413792051E+01 -0.71066151894E+01  0.29027541356E+03  0.29036504735E+03  0.00000000000E+00 0. -1.
</event>
<event>
 7    1  0.6103724E-006  0.1159786E+03  0.7818608E-02  0.1433137E+00
          2   -1    0    0  502    0  0.00000000000E+00  0.00000000000E+00  0.37875819892E+03  0.37875819892E+03  0.00000000000E+00 0. -1.
          1   -1    0    0  501    0 -0.00000000000E+00 -0.00000000000E+00 -0.80350881222E+03  0.80350881222E+03  0.00000000000E+00 0. -1.
         25    2    1    2    0    0  0.12294652128E+03  0.76840445867E+01 -0.94761598766E+02  0.19945188281E+03  0.12500560516E+03 0.  0.
          2    1    1    2  501    0 -0.11456781871E+03  0.14396190211E+02 -0.65088670919E+03  0.66104957725E+03  0.00000000000E+00 0. -1.
          1    1    1    2  502    0 -0.83787025664E+01 -0.22080234798E+02  0.32089769466E+03  0.32176555108E+03  0.00000000000E+00 0. -1.
         22    1    3    3    0    0  0.14318016637E+03 -0.31668144176E+01 -0.10148610254E+03  0.17552782618E+03  0.00000000000E+00 0.  1.
         22    1    3    3    0    0 -0.20233645089E+02  0.10850859004E+02  0.67245037743E+01  0.23924056632E+02  0.00000000000E+00 0.  1.
</event>
<event>
 7    1  0.6103724E-006  0.4439618E+02  0.7818608E-02  0.1527841E+00
          2   -1    0    0  502    0  0.00000000000E+00  0.00000000000E+00  0.13309782852E+04  0.13309782852E+04  0.00000000000E+00 0. -1.
          1   -1    0    0  501    0 -0.00000000000E+00 -0.00000000000E+00 -0.25048314159E+04  0.25048314159E+04  0.00000000000E+00 0. -1.
         25    2    1    2    0    0 -0.10509907458E+02 -0.36951325546E+02  0.43288573865E+03  0.45220655478E+03  0.12499938739E+03 0.  0.
          2    1    1    2  501    0  0.38452656266E+02  0.22205412924E+02 -0.24946924737E+04  0.24950876188E+04  0.00000000000E+00 0. -1.
          1    1    1    2  502    0 -0.27942748808E+02  0.14745912622E+02  0.88795360434E+03  0.88851552750E+03  0.00000000000E+00 0. -1.
         22    1    3    3    0    0 -0.29686192312E+02  0.32499522456E+02  0.27700189394E+03  0.28047733994E+03  0.00000000000E+00 0. -1.
         22    1    3    3    0    0  0.19176284854E+02 -0.69450848001E+02  0.15588384470E+03  0.17172921484E+03  0.00000000000E+00 0. -1.
</event>
<event>
 7    1  0.6103724E-006  0.6509800E+02  0.7818608E-02  0.1477653E+00
          2   -1    0    0  502    0  0.00000000000E+00  0.00000000000E+00  0.15962015023E+04  0.15962015023E+04  0.00000000000E+00 0. -1.
          1   -1    0    0  501    0 -0.00000000000E+00 -0.00000000000E+00 -0.33672609660E+04  0.33672609660E+04  0.00000000000E+00 0. -1.
         25    2    1    2    0    0  0.62958576531E+02  0.62728858202E+02 -0.12259261411E+03  0.19635071540E+03  0.12500384952E+03 0.  0.
          2    1    1    2  501    0 -0.55772645525E+02 -0.33207095353E+02 -0.32073128817E+04  0.32079696414E+04  0.00000000000E+00 0. -1.
          1    1    1    2  502    0 -0.71859310061E+01 -0.29521762849E+02  0.15588460321E+04  0.15591421115E+04  0.00000000000E+00 0. -1.
         22    1    3    3    0    0  0.31716397083E+02  0.58990839659E+02  0.28351723908E+01  0.67036461796E+02  0.00000000000E+00 0. -1.
         22    1    3    3    0    0  0.31242179448E+02  0.37380185429E+01 -0.12542778650E+03  0.12931425360E+03  0.00000000000E+00 0. -1.
</event>
<event>
 7    1  0.6103724E-006  0.5106332E+02  0.7818608E-02  0.1442729E+00
          2   -1    0    0  502    0  0.00000000000E+00  0.00000000000E+00  0.72282468989E+03  0.72282468989E+03  0.00000000000E+00 0. -1.
          1   -1    0    0  501    0 -0.00000000000E+00 -0.00000000000E+00 -0.68011851155E+02  0.68011851155E+02  0.00000000000E+00 0. -1.
         25    2    1    2    0    0 -0.21771757164E+02  0.34200586120E+02  0.12970821564E+03  0.18464246208E+03  0.12499971239E+03 0.  0.
          2    1    1    2  501    0  0.50355148765E+02  0.84747520508E+01 -0.22774986367E+02  0.55912095592E+02  0.00000000000E+00 0. -1.
          1    1    1    2  502    0 -0.28583391601E+02 -0.42675338171E+02  0.54787960946E+03  0.55028198337E+03  0.00000000000E+00 0. -1.
         22    1    3    3    0    0  0.11924947742E+01 -0.27620251372E+01 -0.24360908439E+02  0.24545970884E+02  0.00000000000E+00 0. -1.
         22    1    3    3    0    0 -0.22964251938E+02  0.36962611257E+02  0.15406912408E+03  0.16009649120E+03  0.00000000000E+00 0. -1.
</event>
<event>
 7    1  0.6103724E-006  0.1351584E+03  0.7818608E-02  0.1397181E+00
          2   -1    0    0  502    0  0.00000000000E+00  0.00000000000E+00  0.17649162695E+04  0.17649162695E+04  0.00000000000E+00 0. -1.
          1   -1    0    0  501    0 -0.00000000000E+00 -0.00000000000E+00 -0.49687951609E+03  0.49687951609E+03  0.00000000000E+00 0. -1.
         25    2    1    2    0    0  0.45402244208E+02  0.10775865856E+03 -0.25316786711E+03  0.30562075842E+03  0.12504713818E+03 0.  0.
          2    1    1    2  501    0  0.25735962241E+02  0.73811576651E+01 -0.21401599036E+03  0.21568417970E+03  0.00000000000E+00 0. -1.
          1    1    1    2  502    0 -0.71138206449E+02 -0.11513981622E+03  0.17352206109E+04  0.17404908475E+04  0.00000000000E+00 0. -1.
         22    1    3    3    0    0 -0.31488009779E+02  0.83859020070E+02 -0.11591151867E+03  0.14648996610E+03  0.00000000000E+00 0. -1.
         22    1    3    3    0    0  0.76890253987E+02  0.23899638489E+02 -0.13725634844E+03  0.15913079232E+03  0.00000000000E+00 0. -1.
</event>
<event>
 7    1  0.6103724E-006  0.3458824E+02  0.7818608E-02  0.1602483E+00
          2   -1    0    0  502    0  0.00000000000E+00  0.00000000000E+00  0.72437338361E+03  0.72437338361E+03  0.00000000000E+00 0. -1.
          1   -1    0    0  501    0 -0.00000000000E+00 -0.00000000000E+00 -0.30926890981E+03  0.30926890981E+03  0.00000000000E+00 0. -1.
         25    2    1    2    0    0  0.79657389366E+00 -0.57163631781E+02 -0.74024159023E+02  0.15612728998E+03  0.12501135640E+03 0.  0.
          2    1    1    2  501    0 -0.79979151960E+01  0.32866629181E+02 -0.19248293791E+03  0.19543250330E+03  0.00000000000E+00 0. -1.
          1    1    1    2  502    0  0.72013413023E+01  0.24297002600E+02  0.68161157073E+03  0.68208250015E+03  0.00000000000E+00 0. -1.
         22    1    3    3    0    0 -0.35996527660E+02  0.25392436859E+02 -0.94705838055E+01  0.45057938377E+02  0.00000000000E+00 0. -1.
         22    1    3    3    0    0  0.36793101554E+02 -0.82556068640E+02 -0.64553575218E+02  0.11106935160E+03  0.00000000000E+00 0. -1.
</event>
<event>
 7    1  0.6103724E-006  0.1037058E+03  0.7818608E-02  0.1274843E+00
          2   -1    0    0  502    0  0.00000000000E+00  0.00000000000E+00  0.28847331239E+04  0.28847331239E+04  0.00000000000E+00 0. -1.
          1   -1    0    0  501    0 -0.00000000000E+00 -0.00000000000E+00 -0.22475075967E+02  0.22475075967E+02  0.00000000000E+00 0. -1.
         25    2    1    2    0    0  0.12705964696E+01  0.55284466341E+02  0.68599819784E+03  0.69948303944E+03  0.12500003358E+03 0.  0.
          2    1    1    2  501    0  0.98975657219E+02 -0.81847332919E+02  0.27364305844E+03  0.30228412142E+03  0.00000000000E+00 0. -1.
          1    1    1    2  502    0 -0.10024625369E+03  0.26562866577E+02  0.19026167917E+04  0.19054410390E+04  0.00000000000E+00 0. -1.
         22    1    3    3    0    0  0.56099940617E+02 -0.26066194451E+01  0.32118101212E+03  0.32605404514E+03  0.00000000000E+00 0.  1.
         22    1    3    3    0    0 -0.54829344147E+02  0.57891085787E+02  0.36481718571E+03  0.37342899430E+03  0.00000000000E+00 0.  1.
</event>
<event>
 7    1  0.6103724E-006  0.2695970E+03  0.7818608E-02  0.1182506E+00
          2   -1    0    0  502    0  0.00000000000E+00  0.00000000000E+00  0.59412383271E+03  0.59412383271E+03  0.00000000000E+00 0. -1.
          1   -1    0    0  501    0 -0.00000000000E+00 -0.00000000000E+00 -0.52776596290E+03  0.52776596290E+03  0.00000000000E+00 0. -1.
         25    2    1    2    0    0  0.30469648173E+03  0.16811320343E+03 -0.44788205230E+02  0.37246918991E+03  0.12500127583E+03 0.  0.
          2    1    1    2  501    0 -0.21745736051E+03 -0.11578314070E+03 -0.26378243446E+03  0.36093574502E+03  0.00000000000E+00 0. -1.
          1    1    1    2  502    0 -0.87239121220E+02 -0.52330062730E+02  0.37492850950E+03  0.38848486067E+03  0.00000000000E+00 0. -1.
         22    1    3    3    0    0  0.26524318957E+03  0.18352086234E+03 -0.19483542005E+02  0.32313072422E+03  0.00000000000E+00 0. -1.
         22    1    3    3    0    0  0.39453292155E+02 -0.15407658911E+02 -0.25304663225E+02  0.49338465683E+02  0.00000000000E+00 0. -1.
</event>
<event>
 7    1  0.6103724E-006  0.8004751E+02  0.7818608E-02  0.1474473E+00
          2   -1    0    0  502    0  0.00000000000E+00  0.00000000000E+00  0.74300863777E+03  0.74300863777E+03  0.00000000000E+00 0. -1.
          1   -1    0    0  501    0 -0.00000000000E+00 -0.00000000000E+00 -0.68601064624E+03  0.68601064624E+03  0.00000000000E+00 0. -1.
         25    2    1    2    0    0 -0.41151794461E+02 -0.71473865170E+02  0.16888687380E+01  0.14976257974E+03  0.12499597763E+03 0.  0.
          2    1    1    2  501    0  0.16820012381E+02  0.78309721334E+02 -0.60911175031E+03  0.61435531220E+03  0.00000000000E+00 0. -1.
          1    1    1    2  502    0  0.24331782080E+02 -0.68358561638E+01  0.66442087311E+03  0.66490139206E+03  0.00000000000E+00 0. -1.
         22    1    3    3    0    0  0.26491700904E+02 -0.31467368719E+02  0.44227943114E+02  0.60399639593E+02  0.00000000000E+00 0.  1.
         22    1    3    3    0    0 -0.67643495365E+02 -0.40006496451E+02 -0.42539074376E+02  0.89362940150E+02  0.00000000000E+00 0.  1.
</event>
<event>
 7    1  0.6103724E-006  0.8557655E+02  0.7818608E-02  0.1336313E+00
          2   -1    0    0  502    0  0.00000000000E+00  0.00000000000E+00  0.65209717517E+03  0.65209717517E+03  0.00000000000E+00 0. -1.
          1   -1    0    0  501    0 -0.00000000000E+00 -0.00000000000E+00 -0.10208490447E+03  0.10208490447E+03  0.00000000000E+00 0. -1.
         25    2    1    2    0    0 -0.26899502888E+02  0.53966502382E+02  0.17680377622E+03  0.22476369063E+03  0.12499269862E+03 0.  0.
          2    1    1    2  501    0  0.89264727405E+02 -0.21787784364E+02 -0.47126264339E+02  0.10326559881E+03  0.00000000000E+00 0. -1.
          1    1    1    2  502    0 -0.62365224516E+02 -0.32178718018E+02  0.42033475883E+03  0.42615279021E+03  0.00000000000E+00 0. -1.
         22    1    3    3    0    0  0.15441526265E+02  0.30400109689E+02  0.17281009979E+03  0.17614181216E+03  0.00000000000E+00 0.  1.
         22    1    3    3    0    0 -0.42341029153E+02  0.23566392694E+02  0.39936764243E+01  0.48621878468E+02  0.00000000000E+00 0.  1.
</event>
<event>
 7    1  0.6103724E-006  0.6499700E+02  0.7818608E-02  0.1474232E+00
          2   -1    0    0  502    0  0.00000000000E+00  0.00000000000E+00  0.76814235788E+03  0.76814235788E+03  0.00000000000E+00 0. -1.
          1   -1    0    0  501    0 -0.00000000000E+00 -0.00000000000E+00 -0.64260814542E+03  0.64260814542E+03  0.00000000000E+00 0. -1.
         25    2    1    2    0    0  0.33992179648E+02  0.38081902476E+02  0.16122969858E+03  0.21029844172E+03  0.12499887724E+03 0.  0.
          2    1    1    2  501    0  0.27923850536E+02 -0.13872019669E+02 -0.61578077983E+03  0.61656965800E+03  0.00000000000E+00 0. -1.
          1    1    1    2  502    0 -0.61916030184E+02 -0.24209882807E+02  0.58008529372E+03  0.58388240358E+03  0.00000000000E+00 0. -1.
         22    1    3    3    0    0  0.37235462838E+01  0.59345726198E+02  0.16275375028E+03  0.17327597423E+03  0.00000000000E+00 0. -1.
         22    1    3    3    0    0  0.30268633364E+02 -0.21263823722E+02 -0.15240517013E+01  0.37022467484E+02  0.00000000000E+00 0. -1.
</event>
<event>
 7    1  0.6103724E-006  0.1606084E+03  0.7818608E-02  0.1192688E+00
          2   -1    0    0  502    0  0.00000000000E+00  0.00000000000E+00  0.53484395253E+03  0.53484395253E+03  0.00000000000E+00 0. -1.
          1   -1    0    0  501    0 -0.00000000000E+00 -0.00000000000E+00 -0.81643518833E+03  0.81643518833E+03  0.00000000000E+00 0. -1.
         25    2    1    2    0    0  0.76926013848E+02  0.93150518889E+02 -0.36086626305E+02  0.17754092448E+03  0.12499561788E+03 0.  0.
          2    1    1    2  501    0 -0.15044005964E+03  0.56239121126E+02 -0.68509704992E+03  0.70367110080E+03  0.00000000000E+00 0. -1.
          1    1    1    2  502    0  0.73514045787E+02 -0.14938964002E+03  0.43959244042E+03  0.47006711558E+03  0.00000000000E+00 0. -1.
         22    1    3    3    0    0 -0.30355374413E+02  0.28243116529E+02 -0.31496058066E+02  0.52068455525E+02  0.00000000000E+00 0.  1.
         22    1    3    3    0    0  0.10728138826E+03  0.64907402360E+02 -0.45905682393E+01  0.12547246895E+03  0.00000000000E+00 0.  1.
</event>
<event>
 7    1  0.6103724E-006  0.1389346E+03  0.7818608E-02  0.1348459E+00
          2   -1    0    0  502    0  0.00000000000E+00  0.00000000000E+00  0.49098601575E+03  0.49098601575E+03  0.00000000000E+00 0. -1.
          1   -1    0    0  501    0 -0.00000000000E+00 -0.00000000000E+00 -0.29544190837E+03  0.29544190837E+03  0.00000000000E+00 0. -1.
         25    2    1    2    0    0  0.55086001982E+02  0.14994535989E+03  0.14422940472E+03  0.24888769494E+03  0.12499953976E+03 0.  0.
          2    1    1    2  501    0 -0.18781648015E+02 -0.13590821783E+03 -0.22226788169E+03  0.26120261333E+03  0.00000000000E+00 0. -1.
          1    1    1    2  502    0 -0.36304353967E+02 -0.14037142057E+02  0.27358258435E+03  0.27633761585E+03  0.00000000000E+00 0. -1.
         22    1    3    3    0    0  0.66527645387E+02  0.65590859422E+02  0.13370775065E+03  0.16311300079E+03  0.00000000000E+00 0.  1.
         22    1    3    3    0    0 -0.11441643405E+02  0.84354500469E+02  0.10521654067E+02  0.85774694156E+02  0.00000000000E+00 0.  1.
</event>
<event>
 7    1  0.6103724E-006  0.7820337E+02  0.7818608E-02  0.1456273E+00
          2   -1    0    0  502    0  0.00000000000E+00  0.00000000000E+00  0.30263796103E+04  0.30263796103E+04  0.00000000000E+00 0. -1.
          1   -1    0    0  501    0 -0.00000000000E+00 -0.00000000000E+00 -0.30414290036E+03  0.30414290036E+03  0.00000000000E+00 0. -1.
         25    2    1    2    0    0  0.43516522996E+02 -0.51147483526E+02  0.10914342247E+04  0.11006192467E+04  0.12499722549E+03 0.  0.
          2    1    1    2  501    0 -0.25060463035E+02  0.74157120773E+02 -0.29432172597E+03  0.30455308856E+03  0.00000000000E+00 0. -1.
          1    1    1    2  502    0 -0.18456059961E+02 -0.23009637247E+02  0.19251242112E+04  0.19253501754E+04  0.00000000000E+00 0. -1.
         22    1    3    3    0    0  0.86233503555E+02 -0.45588307948E+02  0.82127216187E+03  0.82704442131E+03  0.00000000000E+00 0. -1.
         22    1    3    3    0    0 -0.42716980559E+02 -0.55591755782E+01  0.27016206287E+03  0.27357482537E+03  0.00000000000E+00 0. -1.
</event>
<event>
 7    1  0.6103724E-006  0.2495352E+03  0.7818608E-02  0.1134266E+00
          2   -1    0    0  502    0  0.00000000000E+00  0.00000000000E+00  0.23412747057E+04  0.23412747057E+04  0.00000000000E+00 0. -1.
          1   -1    0    0  501    0 -0.00000000000E+00 -0.00000000000E+00 -0.18941873405E+04  0.18941873405E+04  0.00000000000E+00 0. -1.
         25    2    1    2    0    0  0.95099262910E+02 -0.27693826051E+03  0.19857227859E+03  0.37522598710E+03  0.12499968651E+03 0.  0.
          2    1    1    2  501    0  0.12179698562E+03  0.14978719827E+03 -0.17929669321E+04  0.18033305659E+04  0.00000000000E+00 0. -1.
          1    1    1    2  502    0 -0.21689624853E+03  0.12715106225E+03  0.20414820187E+04  0.20569054932E+04  0.00000000000E+00 0. -1.
         22    1    3    3    0    0  0.31373491725E+01 -0.11534175442E+03  0.13755001462E+03  0.17953709865E+03  0.00000000000E+00 0. -1.
         22    1    3    3    0    0  0.91961913737E+02 -0.16159650609E+03  0.61022263975E+02  0.19568888844E+03  0.00000000000E+00 0. -1.
</event>
<event>
 7    1  0.6103724E-006  0.6287242E+02  0.7818608E-02  0.1417353E+00
          2   -1    0    0  502    0  0.00000000000E+00  0.00000000000E+00  0.90096848734E+02  0.90096848734E+02  0.00000000000E+00 0. -1.
          1   -1    0    0  501    0 -0.00000000000E+00 -0.00000000000E+00 -0.30489383379E+03  0.30489383379E+03  0.00000000000E+00 0. -1.
         25    2    1    2    0    0 -0.89448499642E+01 -0.40152119591E+02  0.33578243250E+01  0.13163921748E+03  0.12500162217E+03 0.  0.
          2    1    1    2  501    0 -0.38453338922E+02  0.53126553035E+02 -0.20079442341E+03  0.21123326060E+03  0.00000000000E+00 0. -1.
          1    1    1    2  502    0  0.47398188886E+02 -0.12974433444E+02 -0.17360385966E+02  0.52118204437E+02  0.00000000000E+00 0. -1.
         22    1    3    3    0    0 -0.37224826956E+02 -0.11615083582E+02  0.54243299382E+02  0.66805190190E+02  0.00000000000E+00 0. -1.
         22    1    3    3    0    0  0.28279976992E+02 -0.28537036009E+02 -0.50885475057E+02  0.64834027289E+02  0.00000000000E+00 0. -1.
</event>
<event>
 7    1  0.6103724E-006  0.1145198E+03  0.7818608E-02  0.1439289E+00
          2   -1    0    0  502    0  0.00000000000E+00  0.00000000000E+00  0.11614808407E+04  0.11614808407E+04  0.00000000000E+00 0. -1.
          1   -1    0    0  501    0 -0.00000000000E+00 -0.00000000000E+00 -0.10529773174E+04  0.10529773174E+04  0.00000000000E+00 0. -1.
         25    2    1    2    0    0 -0.31258952310E+01 -0.12225582488E+03  0.40537091174E+03  0.44148372098E+03  0.12500416741E+03 0.  0.
          2    1    1    2  501    0  0.23545018008E+02  0.11202913211E+03 -0.10315772777E+04  0.10379097139E+04  0.00000000000E+00 0. -1.
          1    1    1    2  502    0 -0.20419122777E+02  0.10226692766E+02  0.73470988933E+03  0.73506472321E+03  0.00000000000E+00 0. -1.
         22    1    3    3    0    0  0.21366048536E+02 -0.47606794188E+02  0.32474206280E+03  0.32890777163E+03  0.00000000000E+00 0.  1.
         22    1    3    3    0    0 -0.24491943767E+02 -0.74649030690E+02  0.80628848936E+02  0.11257594936E+03  0.00000000000E+00 0.  1.
</event>
<event>
 7    1  0.6103724E-006  0.9414246E+02  0.7818608E-02  0.1357907E+00
          2   -1    0    0  502    0  0.00000000000E+00  0.00000000000E+00  0.22573848264E+04  0.22573848264E+04  0.00000000000E+00 0. -1.
          1   -1    0    0  501    0 -0.00000000000E+00 -0.00000000000E+00 -0.14671529302E+04  0.14671529302E+04  0.00000000000E+00 0. -1.
         25    2    1    2    0    0  0.12280194517E+03  0.77892956617E+02  0.52985546248E+03  0.56348852876E+03  0.12499952196E+03 0.  0.
          2    1    1    2  501    0 -0.73346766997E+02 -0.58793100577E+02 -0.14484017011E+04  0.14514488847E+04  0.00000000000E+00 0. -1.
          1    1    1    2  502    0 -0.49455178173E+02 -0.19099856040E+02  0.17087781348E+04  0.17096003431E+04  0.00000000000E+00 0. -1.
         22    1    3    3    0    0 -0.85694047375E+01  0.47759641079E+02  0.22490981049E+03  0.23008442117E+03  0.00000000000E+00 0. -1.
         22    1    3    3    0    0  0.13137134991E+03  0.30133315538E+02  0.30494565200E+03  0.33340410758E+03  0.00000000000E+00 0. -1.
</event>
<event>
 7    1  0.6103724E-006  0.8880679E+02  0.7818608E-02  0.1379492E+00
          2   -1    0    0  502    0  0.00000000000E+00  0.00000000000E+00  0.10617372387E+04  0.10617372387E+04  0.00000000000E+00 0. -1.
          1   -1    0    0  501    0 -0.00000000000E+00 -0.00000000000E+00 -0.20422224478E+03  0.20422224478E+03  0.00000000000E+00 0. -1.
         25    2    1    2    0    0  0.76222363837E+02 -0.96074929637E+02  0.59144685350E+03  0.61682577449E+03  0.12499765878E+03 0.  0.
          2    1    1    2  501    0 -0.39826653299E+02  0.24933638361E+02 -0.18508592561E+03  0.19095719021E+03  0.00000000000E+00 0. -1.
          1    1    1    2  502    0 -0.36395710537E+02  0.71141291276E+02  0.45115406604E+03  0.45817651879E+03  0.00000000000E+00 0. -1.
         22    1    3    3    0    0  0.15523689882E+02 -0.14463170130E+02  0.52317138236E+01  0.21852667281E+02  0.00000000000E+00 0.  1.
         22    1    3    3    0    0  0.60698673955E+02 -0.81611759507E+02  0.58621513968E+03  0.59497310721E+03  0.00000000000E+00 0.  1.
</event>
<event>
 7    1  0.6103724E-006  0.5197209E+02  0.7818608E-02  0.1491271E+00
          2   -1    0    0  502    0  0.00000000000E+00  0.00000000000E+00  0.12850267118E+03  0.12850267118E+03  0.00000000000E+00 0. -1.
          1   -1    0    0  501    0 -0.00000000000E+00 -0.00000000000E+00 -0.20227791277E+04  0.20227791277E+04  0.00000000000E+00 0. -1.
         25    2    1    2    0    0  0.53148399604E+01  0.53770336967E+02 -0.97163982718E+02  0.16728788116E+03  0.12499959593E+03 0.  0.
          2    1    1    2  501    0  0.27860227122E+02 -0.43986330213E+02 -0.18869810217E+04  0.18876992255E+04  0.00000000000E+00 0. -1.
          1    1    1    2  502    0 -0.33175067083E+02 -0.97840067547E+01  0.89868547885E+02  0.96294692289E+02  0.00000000000E+00 0. -1.
         22    1    3    3    0    0  0.29683715556E+02  0.86524766096E+02 -0.47740259805E+02  0.10318328607E+03  0.00000000000E+00 0.  1.
         22    1    3    3    0    0 -0.24368875596E+02 -0.32754429129E+02 -0.49423722913E+02  0.64104595092E+02  0.00000000000E+00 0.  1.
</event>
<event>
 7    1  0.6103724E-006  0.3761798E+02  0.7818608E-02  0.1577389E+00
          2   -1    0    0  502    0  0.00000000000E+00  0.00000000000E+00  0.12243600172E+03  0.12243600172E+03  0.00000000000E+00 0. -1.
          1   -1    0    0  501    0 -0.00000000000E+00 -0.00000000000E+00 -0.10590493061E+04  0.10590493061E+04  0.00000000000E+00 0. -1.
         25    2    1    2    0    0  0.36871594074E+01  0.39430744529E+02  0.48935876419E+02  0.13995425345E+03  0.12499637715E+03 0.  0.
          2    1    1    2  501    0  0.21976830137E+02 -0.30566277365E+02 -0.10065199377E+04  0.10072237405E+04  0.00000000000E+00 0. -1.
          1    1    1    2  502    0 -0.25663989544E+02 -0.88644671647E+01  0.20970756942E+02  0.34307313859E+02  0.00000000000E+00 0. -1.
         22    1    3    3    0    0  0.68244319929E+00  0.85034689183E+02  0.26709492031E+02  0.89133389130E+02  0.00000000000E+00 0. -1.
         22    1    3    3    0    0  0.30047162081E+01 -0.45603944654E+02  0.22226384388E+02  0.50820864322E+02  0.00000000000E+00 0. -1.
</event>
<event>
 7    1  0.6103724E-006  0.5016621E+02  0.7818608E-02  0.1467046E+00
          2   -1    0    0  502    0  0.00000000000E+00  0.00000000000E+00  0.24766702598E+04  0.24766702598E+04  0.00000000000E+00 0. -1.
          1   -1    0    0  501    0 -0.00000000000E+00 -0.00000000000E+00 -0.77435942504E+03  0.77435942504E+03  0.00000000000E+00 0. -1.
         25    2    1    2    0    0  0.28569821847E+01 -0.50595648604E+02  0.39867730979E+03  0.42087752745E+03  0.12500485496E+03 0.  0.
          2    1    1    2  501    0  0.37517459739E+02  0.20029374534E+02 -0.76235637337E+03  0.76354173143E+03  0.00000000000E+00 0. -1.
          1    1    1    2  502    0 -0.40374441924E+02  0.30566274070E+02  0.20659898983E+04  0.20666104259E+04  0.00000000000E+00 0. -1.
         22    1    3    3    0    0  0.33343605163E+01  0.40350633805E+02  0.17053594838E+03  0.17527635693E+03  0.00000000000E+00 0. -1.
         22    1    3    3    0    0 -0.47737833162E+00 -0.90946282409E+02  0.22814136141E+03  0.24560117052E+03  0.00000000000E+00 0. -1.
</event>
<event>
 7    1  0.6103724E-006  0.7497421E+02  0.7818608E-02  0.1421192E+00
          2   -1    0    0  502    0  0.00000000000E+00  0.00000000000E+00  0.74438285900E+02  0.74438285900E+02  0.00000000000E+00 0. -1.
          1   -1    0    0  501    0 -0.00000000000E+00 -0.00000000000E+00 -0.51816542964E+03  0.51816542964E+03  0.00000000000E+00 0. -1.
         25    2    1    2    0    0 -0.21614766785E+01  0.10248349564E+02 -0.20351093389E+02  0.12704389411E+03  0.12496512865E+03 0.  0.
          2    1    1    2  501    0 -0.59467668101E+02  0.45658821663E+02 -0.33848549419E+03  0.34668943064E+03  0.00000000000E+00 0. -1.
          1    1    1    2  502    0  0.61629144780E+02 -0.55907171227E+02 -0.84890556168E+02  0.11887039079E+03  0.00000000000E+00 0. -1.
         22    1    3    3    0    0 -0.39036848526E+02  0.54133870037E+02 -0.16929279932E+01  0.66762395353E+02  0.00000000000E+00 0.  1.
         22    1    3    3    0    0  0.36875371848E+02 -0.43885520472E+02 -0.18658165396E+02  0.60281498754E+02  0.00000000000E+00 0.  1.
</event>
<event>
 7    1  0.6103724E-006  0.1513963E+03  0.7818608E-02  0.1277303E+00
          2   -1    0    0  502    0  0.00000000000E+00  0.00000000000E+00  0.98485714524E+03  0.98485714524E+03  0.00000000000E+00 0. -1.
          1   -1    0    0  501    0 -0.00000000000E+00 -0.00000000000E+00 -0.10370506641E+04  0.10370506641E+04  0.00000000000E+00 0. -1.
         25    2    1    2    0    0  0.15854186439E+03 -0.37896190811E+02 -0.54843101527E+03  0.58564013233E+03  0.12500456811E+03 0.  0.
          2    1    1    2  501    0 -0.99814606903E+01  0.67226907571E+02 -0.46157855998E+03  0.46655530614E+03  0.00000000000E+00 0. -1.
          1    1    1    2  502    0 -0.14856040370E+03 -0.29330716759E+02  0.95781605634E+03  0.96971237090E+03  0.00000000000E+00 0. -1.
         22    1    3    3    0    0  0.19525204539E+02 -0.21633229801E+01 -0.96256836904E+00  0.19668251485E+02  0.00000000000E+00 0.  1.
         22    1    3    3    0    0  0.13901665985E+03 -0.35732867831E+02 -0.54746844690E+03  0.56597188085E+03  0.00000000000E+00 0.  1.
</event>
<event>
 7    1  0.6103724E-006  0.1035768E+03  0.7818608E-02  0.1357312E+00
          2   -1    0    0  502    0  0.00000000000E+00  0.00000000000E+00  0.16321406154E+03  0.16321406154E+03  0.00000000000E+00 0. -1.
          1   -1    0    0  501    0 -0.00000000000E+00 -0.00000000000E+00 -0.15960511385E+04  0.15960511385E+04  0.00000000000E+00 0. -1.
         25    2    1    2    0    0  0.10336542888E+03  0.20344652239E+02 -0.25909484159E+03  0.30635078019E+03  0.12498938685E+03 0.  0.
          2    1    1    2  501    0 -0.10050512334E+03  0.27999536206E+02 -0.13069854717E+04  0.13111431184E+04  0.00000000000E+00 0. -1.
          1    1    1    2  502    0 -0.28603055432E+01 -0.48344188446E+02  0.13324323626E+03  0.14177130145E+03  0.00000000000E+00 0. -1.
         22    1    3    3    0    0  0.56559018076E+02  0.53683377863E+02 -0.57940480436E+02  0.97148993086E+02  0.00000000000E+00 0. -1.
         22    1    3    3    0    0  0.46806410808E+02 -0.33338725624E+02 -0.20115436115E+03  0.20920178711E+03  0.00000000000E+00 0. -1.
</event>
<event>
 7    1  0.6103724E-006  0.9706917E+02  0.7818608E-02  0.1473002E+00
          2   -1    0    0  502    0  0.00000000000E+00  0.00000000000E+00  0.84773534722E+03  0.84773534722E+03  0.00000000000E+00 0. -1.
          1   -1    0    0  501    0 -0.00000000000E+00 -0.00000000000E+00 -0.19060057886E+03  0.19060057886E+03  0.00000000000E+00 0. -1.
         25    2    1    2    0    0  0.85540931473E+01 -0.10284978699E+03  0.66723081487E+03  0.68663892870E+03  0.12499922758E+03 0.  0.
          2    1    1    2  501    0  0.11466418546E+02  0.96310143579E+02 -0.16714211019E+03  0.19324494174E+03  0.00000000000E+00 0. -1.
          1    1    1    2  502    0 -0.20020511693E+02  0.65396434090E+01  0.15704606367E+03  0.15845205565E+03  0.00000000000E+00 0. -1.
         22    1    3    3    0    0 -0.44577372636E+02 -0.42159900914E+02  0.13446980382E+03  0.14780638530E+03  0.00000000000E+00 0.  1.
         22    1    3    3    0    0  0.53131465784E+02 -0.60689886075E+02  0.53276101105E+03  0.53883254339E+03  0.00000000000E+00 0.  1.
</event>
<event>
 7    1  0.6103724E-006  0.9424874E+02  0.7818608E-02  0.1311710E+00
          2   -1    0    0  502    0  0.00000000000E+00  0.00000000000E+00  0.45848145080E+04  0.45848145080E+04  0.00000000000E+00 0. -1.
          1   -1    0    0  501    0 -0.00000000000E+00 -0.00000000000E+00 -0.29024755140E+02  0.29024755140E+02  0.00000000000E+00 0. -1.
         25    2    1    2    0    0 -0.23416676138E+02  0.60748184981E+02  0.15997507045E+04  0.16059471809E+04  0.12500139323E+03 0.  0.
          2    1    1    2  501    0  0.94198973133E+02 -0.25043590934E+02  0.68191933032E+02  0.11895699945E+03  0.00000000000E+00 0. -1.
          1    1    1    2  502    0 -0.70782296996E+02 -0.35704594047E+02  0.28878471153E+04  0.28889350828E+04  0.00000000000E+00 0. -1.
         22    1    3    3    0    0 -0.57857119192E+02  0.32868538758E+02  0.40942976963E+03  0.41480178802E+03  0.00000000000E+00 0. -1.
         22    1    3    3    0    0  0.34440443054E+02  0.27879646223E+02  0.11903209349E+04  0.11911453928E+04  0.00000000000E+00 0. -1.
</event>
<event>
 7    1  0.6103724E-006  0.5112215E+02  0.7818608E-02  0.1528778E+00
          2   -1    0    0  502    0  0.00000000000E+00  0.00000000000E+00  0.13959195585E+03  0.13959195585E+03  0.00000000000E+00 0. -1.
          1   -1    0    0  501    0 -0.00000000000E+00 -0.00000000000E+00 -0.14794109170E+04  0.14794109170E+04  0.00000000000E+00 0. -1.
         25    2    1    2    0    0 -0.76590527189E+02 -0.11248784284E+02 -0.13488018329E+03  0.19952097919E+03  0.12499325298E+03 0.  0.
          2    1    1    2  501    0  0.50647284870E+02  0.28507155582E+01 -0.13099785250E+04  0.13109603389E+04  0.00000000000E+00 0. -1.
          1    1    1    2  502    0  0.25943242319E+02  0.83980687256E+01  0.10503974714E+03  0.10852155482E+03  0.00000000000E+00 0. -1.
         22    1    3    3    0    0  0.77208175616E+01 -0.49299858543E+02 -0.72268499895E+02  0.87822680176E+02  0.00000000000E+00 0. -1.
         22    1    3    3    0    0 -0.84311344751E+02  0.38051074259E+02 -0.62611683395E+02  0.11169829902E+03  0.00000000000E+00 0. -1.
</event>
<event>
 7    1  0.6103724E-006  0.6622159E+02  0.7818608E-02  0.1510152E+00
          2   -1    0    0  502    0  0.00000000000E+00  0.00000000000E+00  0.89242848175E+03  0.89242848175E+03  0.00000000000E+00 0. -1.
          1   -1    0    0  501    0 -0.00000000000E+00 -0.00000000000E+00 -0.14713636000E+04  0.14713636000E+04  0.00000000000E+00 0. -1.
         25    2    1    2    0    0 -0.30042390756E+01  0.73117689684E+02  0.21565437495E+02  0.14644150190E+03  0.12499929355E+03 0.  0.
          2    1    1    2  501    0 -0.20920861576E+02 -0.11441704840E+02 -0.14074710571E+04  0.14076730344E+04  0.00000000000E+00 0. -1.
          1    1    1    2  502    0  0.23925100652E+02 -0.61675984844E+02  0.80697050138E+03  0.80967754548E+03  0.00000000000E+00 0. -1.
         22    1    3    3    0    0 -0.20025285213E+02 -0.25068572145E+02  0.33132588880E+02  0.46121728102E+02  0.00000000000E+00 0.  1.
         22    1    3    3    0    0  0.17021046137E+02  0.98186261829E+02 -0.11567151386E+02  0.10031977380E+03  0.00000000000E+00 0.  1.
</event>
<event>
 7    1  0.6103724E-006  0.7721921E+02  0.7818608E-02  0.1469329E+00
          2   -1    0    0  502    0  0.00000000000E+00  0.00000000000E+00  0.17375702252E+04  0.17375702252E+04  0.00000000000E+00 0. -1.
          1   -1    0    0  501    0 -0.00000000000E+00 -0.00000000000E+00 -0.29694040614E+02  0.29694040614E+02  0.00000000000E+00 0. -1.
         25    2    1    2    0    0 -0.36843987398E+02  0.40185169458E+02  0.54526153840E+03  0.56205656064E+03  0.12500041939E+03 0.  0.
          2    1    1    2  501    0  0.46525241446E+02 -0.65582706965E+02  0.55370071918E+02  0.97629577530E+02  0.00000000000E+00 0. -1.
          1    1    1    2  502    0 -0.96812540483E+01  0.25397537507E+02  0.11072445742E+04  0.11075781276E+04  0.00000000000E+00 0. -1.
         22    1    3    3    0    0 -0.44348368722E+02 -0.90987296400E+01  0.64985955586E+02  0.79200625710E+02  0.00000000000E+00 0.  1.
         22    1    3    3    0    0  0.75043813245E+01  0.49283899098E+02  0.48027558281E+03  0.48285593493E+03  0.00000000000E+00 0.  1.
</event>
<event>
 7    1  0.6103724E-006  0.4882320E+02  0.7818608E-02  0.1463620E+00
          2   -1    0    0  502    0  0.00000000000E+00  0.00000000000E+00  0.41982322934E+03  0.41982322934E+03  0.00000000000E+00 0. -1.
          1   -1    0    0  501    0 -0.00000000000E+00 -0.00000000000E+00 -0.43406311678E+03  0.43406311678E+03  0.00000000000E+00 0. -1.
         25    2    1    2    0    0 -0.22868552057E+02 -0.57944418016E+02  0.81009531506E+02  0.16146898696E+03  0.12501665210E+03 0.  0.
          2    1    1    2  501    0 -0.19904886441E+02  0.44649640166E+02 -0.39062137195E+03  0.39366845326E+03  0.00000000000E+00 0. -1.
          1    1    1    2  502    0  0.42773438498E+02  0.13294777850E+02  0.29537195300E+03  0.29874890590E+03  0.00000000000E+00 0. -1.
         22    1    3    3    0    0 -0.68037319201E+02 -0.21855801278E+02  0.13743639335E+02  0.72771151397E+02  0.00000000000E+00 0.  1.
         22    1    3    3    0    0  0.45168767144E+02 -0.36088616738E+02  0.67265892171E+02  0.88697835559E+02  0.00000000000E+00 0.  1.
</event>
<event>
 7    1  0.6103724E-006  0.1541766E+03  0.7818608E-02  0.1393362E+00
          2   -1    0    0  502    0  0.00000000000E+00  0.00000000000E+00  0.51865954058E+03  0.51865954058E+03  0.00000000000E+00 0. -1.
          1   -1    0    0  501    0 -0.00000000000E+00 -0.00000000000E+00 -0.23103639314E+04  0.23103639314E+04  0.00000000000E+00 0. -1.
         25    2    1    2    0    0 -0.75488613882E+02  0.10719013600E+03  0.13647416102E+03  0.22680049375E+03  0.12500004501E+03 0.  0.
          2    1    1    2  501    0  0.94318188025E+02 -0.12238618208E+03 -0.22621276360E+04  0.22673984519E+04  0.00000000000E+00 0. -1.
          1    1    1    2  502    0 -0.18829574143E+02  0.15196046078E+02  0.33394908412E+03  0.33482452637E+03  0.00000000000E+00 0. -1.
         22    1    3    3    0    0 -0.91986042377E+02  0.12090309365E+03  0.13807370941E+03  0.20528842947E+03  0.00000000000E+00 0.  1.
         22    1    3    3    0    0  0.16497428495E+02 -0.13712957643E+02 -0.15995483831E+01  0.21512064273E+02  0.00000000000E+00 0.  1.
</event>
<event>
 7    1  0.6103724E-006  0.2313860E+03  0.7818608E-02  0.1152188E+00
          2   -1    0    0  502    0  0.00000000000E+00  0.00000000000E+00  0.17530748615E+04  0.17530748615E+04  0.00000000000E+00 0. -1.
          1   -1    0    0  501    0 -0.00000000000E+00 -0.00000000000E+00 -0.47252195560E+03  0.47252195560E+03  0.00000000000E+00 0. -1.
         25    2    1    2    0    0  0.53958940249E+02 -0.62761672751E+02 -0.59771410439E+02  0.16139605610E+03  0.12500188246E+03 0.  0.
          2    1    1    2  501    0  0.15758293030E+03 -0.58052646368E+02 -0.33315231228E+03  0.37308571783E+03  0.00000000000E+00 0. -1.
          1    1    1    2  502    0 -0.21154187055E+03  0.12081431912E+03  0.16734766287E+04  0.16911150432E+04  0.00000000000E+00 0. -1.
         22    1    3    3    0    0  0.68833339307E+02 -0.58618887750E+02  0.90506544098E+01  0.90863177066E+02  0.00000000000E+00 0. -1.
         22    1    3    3    0    0 -0.14874399058E+02 -0.41427850016E+01 -0.68822064849E+02  0.70532879035E+02  0.00000000000E+00 0. -1.
</event>
<event>
 7    1  0.6103724E-006  0.2433010E+02  0.7818608E-02  0.1677271E+00
          2   -1    0    0  502    0  0.00000000000E+00  0.00000000000E+00  0.23414001424E+04  0.23414001424E+04  0.00000000000E+00 0. -1.
          1   -1    0    0  501    0 -0.00000000000E+00 -0.00000000000E+00 -0.26608879341E+03  0.26608879341E+03  0.00000000000E+00 0. -1.
         25    2    1    2    0    0  0.38480943510E+02  0.90762609401E-01  0.83918181998E+03  0.84931306172E+03  0.12500303426E+03 0.  0.
          2    1    1    2  501    0 -0.19796521356E+02  0.14135931452E+02 -0.26036410718E+03  0.26149798302E+03  0.00000000000E+00 0. -1.
          1    1    1    2  502    0 -0.18684422154E+02 -0.14226694061E+02  0.14964936362E+04  0.14966778910E+04  0.00000000000E+00 0. -1.
         22    1    3    3    0    0  0.18369065253E+02 -0.43053635010E+02  0.12386952314E+03  0.13241864222E+03  0.00000000000E+00 0.  1.
         22    1    3    3    0    0  0.20111878257E+02  0.43144397620E+02  0.71531229684E+03  0.71689441950E+03  0.00000000000E+00 0.  1.
</event>
<event>
 7    1  0.6103724E-006  0.4077712E+02  0.7818608E-02  0.1541417E+00
          2   -1    0    0  502    0  0.00000000000E+00  0.00000000000E+00  0.56577467755E+03  0.56577467755E+03  0.00000000000E+00 0. -1.
          1   -1    0    0  501    0 -0.00000000000E+00 -0.00000000000E+00 -0.15625481048E+03  0.15625481048E+03  0.00000000000E+00 0. -1.
         25    2    1    2    0    0 -0.13247926652E+01  0.24970936327E+02  0.29654294874E+03  0.32278071859E+03  0.12499747641E+03 0.  0.
          2    1    1    2  501    0 -0.30002193875E+02 -0.27962882829E+02 -0.13919986162E+03  0.14511600852E+03  0.00000000000E+00 0. -1.
          1    1    1    2  502    0  0.31326986540E+02  0.29919465025E+01  0.25217677995E+03  0.25413276092E+03  0.00000000000E+00 0. -1.
         22    1    3    3    0    0 -0.10064898829E+02  0.46341574218E+02  0.31946626673E+02  0.57178935327E+02  0.00000000000E+00 0.  1.
         22    1    3    3    0    0  0.87401061642E+01 -0.21370637891E+02  0.26459632207E+03  0.26560178326E+03  0.00000000000E+00 0.  1.
</event>
<event>
 7    1  0.6103724E-006  0.7104677E+02  0.7818608E-02  0.1408651E+00
          2   -1    0    0  502    0  0.00000000000E+00  0.00000000000E+00  0.81660150890E+03  0.81660150890E+03  0.00000000000E+00 0. -1.
          1   -1    0    0  501    0 -0.00000000000E+00 -0.00000000000E+00 -0.13617056004E+04  0.13617056004E+04  0.00000000000E+00 0. -1.
         25    2    1    2    0    0 -0.89098701210E+02 -0.71896260841E+02  0.99935335557E+02  0.19677253074E+03  0.12499882672E+03 0.  0.
          2    1    1    2  501    0  0.29785418381E+02  0.35746932216E+02 -0.13110681488E+04  0.13118935570E+04  0.00000000000E+00 0. -1.
          1    1    1    2  502    0  0.59313282829E+02  0.36149328625E+02  0.66602872174E+03  0.66964102149E+03  0.00000000000E+00 0. -1.
         22    1    3    3    0    0 -0.13049104787E+02  0.23049657596E+01  0.88976093416E+02  0.89957418830E+02  0.00000000000E+00 0.  1.
         22    1    3    3    0    0 -0.76049596423E+02 -0.74201226600E+02  0.10959242141E+02  0.10681511192E+03  0.00000000000E+00 0.  1.
</event>
<event>
 7    1  0.1180613E-005  0.7380838E+02  0.7818608E-02  0.1400641E+00
          2   -1    0    0  502    0  0.00000000000E+00  0.00000000000E+00  0.16161101776E+04  0.16161101776E+04  0.00000000000E+00 0. -1.
          1   -1    0    0  501    0 -0.00000000000E+00 -0.00000000000E+00 -0.12399656120E+04  0.12399656120E+04  0.00000000000E+00 0. -1.
         25    2    1    2    0    0 -0.25571830294E+02  0.52043968818E+02 -0.84365201474E+03  0.85483143156E+03  0.12500224482E+03 0.  0.
          2    1    1    2  501    0 -0.42081185116E+02 -0.22461986860E+02 -0.38841777800E+03  0.39133583693E+03  0.00000000000E+00 0. -1.
          1    1    1    2  502    0  0.67653015410E+02 -0.29581981958E+02  0.16082143583E+04  0.16099085211E+04  0.00000000000E+00 0. -1.
         22    1    3    3    0    0  0.19510233127E+02  0.78740547595E+02 -0.40363847983E+03  0.41170954012E+03  0.00000000000E+00 0.  1.
         22    1    3    3    0    0 -0.45082063422E+02 -0.26696578778E+02 -0.44001353492E+03  0.44312189144E+03  0.00000000000E+00 0.  1.
</event>
<event>
 7    1  0.6103724E-006  0.1348121E+03  0.7818608E-02  0.1283077E+00
          2   -1    0    0  502    0  0.00000000000E+00  0.00000000000E+00  0.26210065542E+03  0.26210065542E+03  0.00000000000E+00 0. -1.
          1   -1    0    0  501    0 -0.00000000000E+00 -0.00000000000E+00 -0.15643243830E+04  0.15643243830E+04  0.00000000000E+00 0. -1.
         25    2    1    2    0    0 -0.18862344182E+03  0.51546859156E+02 -0.33089309084E+03  0.40416748319E+03  0.12500094164E+03 0.  0.
          2    1    1    2  501    0  0.12879219557E+03 -0.11054444207E+02 -0.11874074767E+04  0.11944229344E+04  0.00000000000E+00 0. -1.
          1    1    1    2  502    0  0.59831246247E+02 -0.40492414950E+02  0.21607683997E+03  0.22783462087E+03  0.00000000000E+00 0. -1.
         22    1    3    3    0    0 -0.18551266695E+03  0.67608901589E+02 -0.33353298518E+03  0.38759536294E+03  0.00000000000E+00 0.  1.
         22    1    3    3    0    0 -0.31107748726E+01 -0.16062042433E+02  0.26398943385E+01  0.16572120249E+02  0.00000000000E+00 0.  1.
</event>
<event>
 7    1  0.6103724E-006  0.7553422E+02  0.7818608E-02  0.1370256E+00
          2   -1    0    0  502    0  0.00000000000E+00  0.00000000000E+00  0.14578189099E+03  0.14578189099E+03  0.00000000000E+00 0. -1.
          1   -1    0    0  501    0 -0.00000000000E+00 -0.00000000000E+00 -0.68197745671E+03  0.68197745671E+03  0.00000000000E+00 0. -1.
         25    2    1    2    0    0  0.46158338193E+02  0.11344287574E+03 -0.94190444902E+02  0.19873811213E+03  0.12500047625E+03 0.  0.
          2    1    1    2  501    0  0.10476765221E+01 -0.59591232914E+02 -0.51984501194E+03  0.52325046498E+03  0.00000000000E+00 0. -1.
          1    1    1    2  502    0 -0.47206014715E+02 -0.53851642823E+02  0.77839891127E+02  0.10577077059E+03  0.00000000000E+00 0. -1.
         22    1    3    3    0    0 -0.12555247900E+02  0.11479437003E+03 -0.53365893756E+02  0.12721360091E+03  0.00000000000E+00 0.  1.
         22    1    3    3    0    0  0.58713586093E+02 -0.13514942946E+01 -0.40824551145E+02  0.71524511218E+02  0.00000000000E+00 0.  1.
</event>
<event>
 7    1  0.6103724E-006  0.3101124E+02  0.7818608E-02  0.1646432E+00
          2   -1    0    0  502    0  0.00000000000E+00  0.00000000000E+00  0.87342573163E+03  0.87342573163E+03  0.00000000000E+00 0. -1.
          1   -1    0    0  501    0 -0.00000000000E+00 -0.00000000000E+00 -0.45781278136E+02  0.45781278136E+02  0.00000000000E+00 0. -1.
         25    2    1    2    0    0  0.11354319355E+02  0.49949733669E+02  0.62003594806E+03  0.63458105713E+03  0.12499857884E+03 0.  0.
          2    1    1    2  501    0 -0.76413483881E+00 -0.30810338186E+02 -0.31762615951E+02  0.44257480873E+02  0.00000000000E+00 0. -1.
          1    1    1    2  502    0 -0.10590184516E+02 -0.19139395483E+02  0.23937112139E+03  0.24036847177E+03  0.00000000000E+00 0. -1.
         22    1    3    3    0    0 -0.41938019799E+02  0.65226520022E+01  0.83585536637E+02  0.93743716743E+02  0.00000000000E+00 0. -1.
         22    1    3    3    0    0  0.53292339153E+02  0.43427081667E+02  0.53645041142E+03  0.54083734038E+03  0.00000000000E+00 0. -1.
</event>
<event>
 7    1  0.6103724E-006  0.3496130E+02  0.7818608E-02  0.1552828E+00
          2   -1    0    0  502    0  0.00000000000E+00  0.00000000000E+00  0.18094299992E+03  0.18094299992E+03  0.00000000000E+00 0. -1.
          1   -1    0    0  501    0 -0.00000000000E+00 -0.00000000000E+00 -0.20574756693E+04  0.20574756693E+04  0.00000000000E+00 0. -1.
         25    2    1    2    0    0 -0.13451798411E+01 -0.67041159146E+02 -0.32846146246E+03  0.35778197954E+03  0.12499874412E+03 0.  0.
          2    1    1    2  501    0  0.81445486074E+01  0.33624896420E+02 -0.17124290356E+04  0.17127784939E+04  0.00000000000E+00 0. -1.
          1    1    1    2  502    0 -0.67993687663E+01  0.33416262725E+02  0.16435782868E+03  0.16785819575E+03  0.00000000000E+00 0. -1.
         22    1    3    3    0    0  0.34877714513E+02 -0.14112441338E+02 -0.26464078412E+03  0.26730200260E+03  0.00000000000E+00 0.  1.
         22    1    3    3    0    0 -0.36222894355E+02 -0.52928717808E+02 -0.63820678338E+02  0.90479976943E+02  0.00000000000E+00 0.  1.
</event>
<event>
 7    1  0.6103724E-006  0.4605522E+02  0.7818608E-02  0.1533761E+00
          2   -1    0    0  502    0  0.00000000000E+00  0.00000000000E+00  0.19520472924E+04  0.19520472924E+04  0.00000000000E+00 0. -1.
          1   -1    0    0  501    0 -0.00000000000E+00 -0.00000000000E+00 -0.91869783979E+03  0.91869783979E+03  0.00000000000E+00 0. -1.
         25    2    1    2    0    0  0.53544788385E+02 -0.44744383418E+02 -0.25370757931E+02  0.14538869256E+03  0.12500036942E+03 0.  0.
          2    1    1    2  501    0 -0.42280698976E+02  0.17705249600E+02 -0.83257427038E+03  0.83383514502E+03  0.00000000000E+00 0. -1.
          1    1    1    2  502    0 -0.11264089409E+02  0.27039133818E+02  0.18912944809E+04  0.18915212946E+04  0.00000000000E+00 0. -1.
         22    1    3    3    0    0  0.26996026586E+02  0.79886418740E+01  0.45279152937E+02  0.53317966401E+02  0.00000000000E+00 0.  1.
         22    1    3    3    0    0  0.26548761800E+02 -0.52733025292E+02 -0.70649910868E+02  0.92070726158E+02  0.00000000000E+00 0.  1.
</event>
<event>
 7    1  0.6103724E-006  0.1797861E+03  0.7818608E-02  0.1307826E+00
          2   -1    0    0  502    0  0.00000000000E+00  0.00000000000E+00  0.12136180321E+04  0.12136180321E+04  0.00000000000E+00 0. -1.
          1   -1    0    0  501    0 -0.00000000000E+00 -0.00000000000E+00 -0.86270079748E+03  0.86270079748E+03  0.00000000000E+00 0. -1.
         25    2    1    2    0    0 -0.11498361638E+03 -0.18234278184E+03  0.12412963528E+02  0.24949894781E+03  0.12500208465E+03 0.  0.
          2    1    1    2  501    0  0.36373035233E+02  0.23029945919E+02 -0.73623712718E+03  0.73749473458E+03  0.00000000000E+00 0. -1.
          1    1    1    2  502    0  0.78610581146E+02  0.15931283592E+03  0.10747413983E+04  0.10893251472E+04  0.00000000000E+00 0. -1.
         22    1    3    3    0    0 -0.61505612685E+02 -0.63999645386E+01  0.21274280521E+02  0.65394915319E+02  0.00000000000E+00 0.  1.
         22    1    3    3    0    0 -0.53478003694E+02 -0.17594281730E+03 -0.88613169929E+01  0.18410403249E+03  0.00000000000E+00 0.  1.
</event>
<event>
 7    1  0.6103724E-006  0.1896581E+03  0.7818608E-02  0.1310075E+00
          2   -1    0    0  502    0  0.00000000000E+00  0.00000000000E+00  0.98590383377E+03  0.98590383377E+03  0.00000000000E+00 0. -1.
          1   -1    0    0  501    0 -0.00000000000E+00 -0.00000000000E+00 -0.14785882729E+03  0.14785882729E+03  0.00000000000E+00 0. -1.
         25    2    1    2    0    0  0.17626632440E+03  0.64355353572E+02  0.64500490114E+03  0.68327867541E+03  0.12500798827E+03 0.  0.
          2    1    1    2  501    0 -0.18845684141E+03 -0.26274885207E+02 -0.55925525822E+02  0.19832804921E+03  0.00000000000E+00 0. -1.
          1    1    1    2  502    0  0.12190517010E+02 -0.38080468365E+02  0.24896563117E+03  0.25215593644E+03  0.00000000000E+00 0. -1.
         22    1    3    3    0    0  0.78534289688E+02 -0.16556402846E+02  0.12921626336E+03  0.15211374641E+03  0.00000000000E+00 0.  1.
         22    1    3    3    0    0  0.97732034709E+02  0.80911756418E+02  0.51578863778E+03  0.53116492900E+03  0.00000000000E+00 0.  1.
</event>
<event>
 7    1  0.6103724E-006  0.2599873E+02  0.7818608E-02  0.1649890E+00
          2   -1    0    0  502    0  0.00000000000E+00  0.00000000000E+00  0.97709506615E+03  0.97709506615E+03  0.00000000000E+00 0. -1.
          1   -1    0    0  501    0 -0.00000000000E+00 -0.00000000000E+00 -0.84686196993E+02  0.84686196993E+02  0.00000000000E+00 0. -1.
         25    2    1    2    0    0 -0.28107758048E+02 -0.13526659893E+02  0.53026140356E+02  0.13932239254E+03  0.12500376359E+03 0.  0.
          2    1    1    2  501    0  0.48077726603E+01  0.25129760911E+02 -0.37386644313E+02  0.45303208875E+02  0.00000000000E+00 0. -1.
          1    1    1    2  502    0  0.23299985388E+02 -0.11603101017E+02  0.87676937311E+03  0.87715566173E+03  0.00000000000E+00 0. -1.
         22    1    3    3    0    0  0.46201467430E+02 -0.22739873871E+02  0.35127389559E+02  0.62334668953E+02  0.00000000000E+00 0.  1.
         22    1    3    3    0    0 -0.74309225478E+02  0.92132139775E+01  0.17898750797E+02  0.76987723586E+02  0.00000000000E+00 0.  1.
</event>
<event>
 7    1  0.6103724E-006  0.8704072E+02  0.7818608E-02  0.1329584E+00
          2   -1    0    0  502    0  0.00000000000E+00  0.00000000000E+00  0.17004768363E+04  0.17004768363E+04  0.00000000000E+00 0. -1.
          1   -1    0    0  501    0 -0.00000000000E+00 -0.00000000000E+00 -0.51494556991E+03  0.51494556991E+03  0.00000000000E+00 0. -1.
         25    2    1    2    0    0 -0.51709305418E+02 -0.12458181703E+03 -0.11379746112E+03  0.21626199788E+03  0.12499963267E+03 0.  0.
          2    1    1    2  501    0  0.62300466769E+02  0.38401013293E+02 -0.34493113922E+03  0.35260952452E+03  0.00000000000E+00 0. -1.
          1    1    1    2  502    0 -0.10591161352E+02  0.86180803736E+02  0.16442598668E+04  0.16465508838E+04  0.00000000000E+00 0. -1.
         22    1    3    3    0    0 -0.61022669101E+02 -0.69529161206E+02 -0.34283084248E+01  0.92573342280E+02  0.00000000000E+00 0.  1.
         22    1    3    3    0    0  0.93133636829E+01 -0.55052655823E+02 -0.11036915270E+03  0.12368865560E+03  0.00000000000E+00 0.  1.
</event>
<event>
 7    1  0.6103724E-006  0.3200112E+03  0.7818608E-02  0.1166579E+00
          2   -1    0    0  502    0  0.00000000000E+00  0.00000000000E+00  0.43495526232E+04  0.43495526232E+04  0.00000000000E+00 0. -1.
          1   -1    0    0  501    0 -0.00000000000E+00 -0.00000000000E+00 -0.89916558033E+03  0.89916558033E+03  0.00000000000E+00 0. -1.
         25    2    1    2    0    0  0.22335074436E+03  0.20639099066E+03  0.71202800249E+03  0.78427814638E+03  0.12500215411E+03 0.  0.
          2    1    1    2  501    0 -0.29325868144E+03 -0.13118265284E+03 -0.83237981737E+03  0.89222514144E+03  0.00000000000E+00 0. -1.
          1    1    1    2  502    0  0.69907937083E+02 -0.75208337816E+02  0.35707388577E+04  0.35722149157E+04  0.00000000000E+00 0. -1.
         22    1    3    3    0    0  0.20163302860E+03  0.20984607292E+03  0.70234517327E+03  0.76024995558E+03  0.00000000000E+00 0.  1.
         22    1    3    3    0    0  0.21717715762E+02 -0.34550822662E+01  0.96828292137E+01  0.24028190797E+02  0.00000000000E+00 0.  1.
</event>
<event>
 7    1  0.6103724E-006  0.1212365E+03  0.7818608E-02  0.1321071E+00
          2   -1    0    0  502    0  0.00000000000E+00  0.00000000000E+00  0.65705638421E+03  0.65705638421E+03  0.00000000000E+00 0. -1.
          1   -1    0    0  501    0 -0.00000000000E+00 -0.00000000000E+00 -0.16715856140E+03  0.16715856140E+03  0.00000000000E+00 0. -1.
         25    2    1    2    0    0  0.10180904950E+03  0.81698240979E+02  0.16669078488E+02  0.18149642035E+03  0.12499362898E+03 0.  0.
          2    1    1    2  501    0 -0.11788400511E+03 -0.27367374118E+02 -0.39167305560E+02  0.12719940900E+03  0.00000000000E+00 0. -1.
          1    1    1    2  502    0  0.16074955611E+02 -0.54330866861E+02  0.51239604988E+03  0.51551911625E+03  0.00000000000E+00 0. -1.
         22    1    3    3    0    0  0.10149691251E+03  0.77431547566E+02 -0.32828601531E+02  0.13181420594E+03  0.00000000000E+00 0.  1.
         22    1    3    3    0    0  0.31213698258E+00  0.42666934138E+01  0.49497680019E+02  0.49682214418E+02  0.00000000000E+00 0.  1.
</event>
<event>
 7    1  0.6103724E-006  0.1789695E+03  0.7818608E-02  0.1242315E+00
          2   -1    0    0  502    0  0.00000000000E+00  0.00000000000E+00  0.12540414645E+04  0.12540414645E+04  0.00000000000E+00 0. -1.
          1   -1    0    0  501    0 -0.00000000000E+00 -0.00000000000E+00 -0.43900662638E+03  0.43900662638E+03  0.00000000000E+00 0. -1.
         25    2    1    2    0    0 -0.11805734888E+03 -0.17919596858E+03  0.23306671469E+03  0.34057843744E+03  0.12499938310E+03 0.  0.
          2    1    1    2  501    0  0.14470603560E+03  0.10259967399E+03 -0.36300192980E+03  0.40402590373E+03  0.00000000000E+00 0. -1.
          1    1    1    2  502    0 -0.26648686725E+02  0.76596294591E+02  0.94497005323E+03  0.94844374971E+03  0.00000000000E+00 0. -1.
         22    1    3    3    0    0 -0.77537239421E+02 -0.19829386472E+02  0.10571394358E+03  0.13259210358E+03  0.00000000000E+00 0.  1.
         22    1    3    3    0    0 -0.40520109455E+02 -0.15936658210E+03  0.12735277111E+03  0.20798633386E+03  0.00000000000E+00 0.  1.
</event>
<event>
 7    1  0.6103724E-006  0.1548612E+03  0.7818608E-02  0.1253969E+00
          2   -1    0    0  502    0  0.00000000000E+00  0.00000000000E+00  0.11731151324E+04  0.11731151324E+04  0.00000000000E+00 0. -1.
          1   -1    0    0  501    0 -0.00000000000E+00 -0.00000000000E+00 -0.80306862221E+03  0.80306862221E+03  0.00000000000E+00 0. -1.
         25    2    1    2    0    0  0.57511909009E+02 -0.22950626913E+03 -0.35078266829E+03  0.44119615094E+03  0.12499926396E+03 0.  0.
          2    1    1    2  501    0 -0.12560630544E+02  0.82443718939E+02 -0.39749041429E+03  0.40614451330E+03  0.00000000000E+00 0. -1.
          1    1    1    2  502    0 -0.44951278466E+02  0.14706255019E+03  0.11183195928E+04  0.11288430904E+04  0.00000000000E+00 0. -1.
         22    1    3    3    0    0  0.77831689710E+02 -0.19010652544E+03 -0.33717619720E+03  0.39482407588E+03  0.00000000000E+00 0.  1.
         22    1    3    3    0    0 -0.20319780701E+02 -0.39399743688E+02 -0.13606471091E+02  0.46372075066E+02  0.00000000000E+00 0.  1.
</event>
<event>
 7    1  0.6103724E-006  0.9559265E+02  0.7818608E-02  0.1366404E+00
          2   -1    0    0  502    0  0.00000000000E+00  0.00000000000E+00  0.60917808192E+03  0.60917808192E+03  0.00000000000E+00 0. -1.
          1   -1    0    0  501    0 -0.00000000000E+00 -0.00000000000E+00 -0.88416091913E+03  0.88416091913E+03  0.00000000000E+00 0. -1.
         25    2    1    2    0    0  0.94553833037E+02  0.16256942068E+02 -0.42316544215E+03  0.45156072323E+03  0.12503351481E+03 0.  0.
          2    1    1    2  501    0 -0.44239271778E+01 -0.48422653444E+02 -0.44160670083E+03  0.44427559320E+03  0.00000000000E+00 0. -1.
          1    1    1    2  502    0 -0.90129905860E+02  0.32165711377E+02  0.58978930577E+03  0.59750268462E+03  0.00000000000E+00 0. -1.
         22    1    3    3    0    0  0.57076947718E+02  0.60924726447E+02 -0.33928886905E+03  0.34940883921E+03  0.00000000000E+00 0. -1.
         22    1    3    3    0    0  0.37476885319E+02 -0.44667784379E+02 -0.83876573101E+02  0.10215188402E+03  0.00000000000E+00 0. -1.
</event>
<event>
 7    1  0.6103724E-006  0.1610156E+03  0.7818608E-02  0.1253739E+00
          2   -1    0    0  502    0  0.00000000000E+00  0.00000000000E+00  0.45857196218E+03  0.45857196218E+03  0.00000000000E+00 0. -1.
          1   -1    0    0  501    0 -0.00000000000E+00 -0.00000000000E+00 -0.73581504471E+03  0.73581504471E+03  0.00000000000E+00 0. -1.
         25    2    1    2    0    0  0.21901624049E+01 -0.95186951355E+02 -0.37183280173E+02  0.16147135685E+03  0.12500020096E+03 0.  0.
          2    1    1    2  501    0 -0.20619312553E+02 -0.77701641836E+02 -0.61467962642E+03  0.61991430402E+03  0.00000000000E+00 0. -1.
          1    1    1    2  502    0  0.18429150148E+02  0.17288859319E+03  0.37461982407E+03  0.41300134602E+03  0.00000000000E+00 0. -1.
         22    1    3    3    0    0 -0.40135836689E+02 -0.53831547290E+02 -0.67303689449E+02  0.95071065440E+02  0.00000000000E+00 0.  1.
         22    1    3    3    0    0  0.42325999094E+02 -0.41355404065E+02  0.30120409276E+02  0.66400291413E+02  0.00000000000E+00 0.  1.
</event>
<event>
 7    1  0.6103724E-006  0.3671543E+02  0.7818608E-02  0.1557311E+00
          2   -1    0    0  502    0  0.00000000000E+00  0.00000000000E+00  0.14236560525E+04  0.14236560525E+04  0.00000000000E+00 0. -1.
          1   -1    0    0  501    0 -0.00000000000E+00 -0.00000000000E+00 -0.22748874006E+03  0.22748874006E+03  0.00000000000E+00 0. -1.
         25    2    1    2    0    0 -0.63887250444E+02  0.23008622892E+02 -0.11507790371E+03  0.18296985851E+03  0.12499627077E+03 0.  0.
          2    1    1    2  501    0  0.28418954769E+02 -0.13717102764E+02 -0.75039890647E+02  0.81405043374E+02  0.00000000000E+00 0. -1.
          1    1    1    2  502    0  0.35468295675E+02 -0.92915201274E+01  0.13862851068E+04  0.13867698907E+04  0.00000000000E+00 0. -1.
         22    1    3    3    0    0  0.28715322810E+01 -0.41110387317E+02 -0.67014631368E+02  0.78671916593E+02  0.00000000000E+00 0.  1.
         22    1    3    3    0    0 -0.66758782725E+02  0.64119010208E+02 -0.48063272338E+02  0.10429794192E+03  0.00000000000E+00 0.  1.
</event>
<event>
 7    1  0.6103724E-006  0.1176470E+03  0.7818608E-02  0.1322947E+00
          2   -1    0    0  502    0  0.00000000000E+00  0.00000000000E+00  0.13817095066E+04  0.13817095066E+04  0.00000000000E+00 0. -1.
          1   -1    0    0  501    0 -0.00000000000E+00 -0.00000000000E+00 -0.90030728092E+03  0.90030728092E+03  0.00000000000E+00 0. -1.
         25    2    1    2    0    0  0.58247304061E+02  0.14640928555E+03  0.13916648004E+03  0.24459079991E+03  0.12501569066E+03 0.  0.
          2    1    1    2  501    0 -0.48340305917E+02 -0.30988456751E+02 -0.84379732735E+03  0.84574878024E+03  0.00000000000E+00 0. -1.
          1    1    1    2  502    0 -0.99069981441E+01 -0.11542082880E+03  0.11860330730E+04  0.11916772074E+04  0.00000000000E+00 0. -1.
         22    1    3    3    0    0  0.91050631043E+02  0.13223047364E+03  0.13266670326E+03  0.20826802378E+03  0.00000000000E+00 0.  1.
         22    1    3    3    0    0 -0.32803326982E+02  0.14178811912E+02  0.64997767742E+01  0.36322776139E+02  0.00000000000E+00 0.  1.
</event>
<event>
 7    1  0.6103724E-006  0.3454032E+02  0.7818608E-02  0.1574340E+00
          2   -1    0    0  502    0  0.00000000000E+00  0.00000000000E+00  0.27446768537E+03  0.27446768537E+03  0.00000000000E+00 0. -1.
          1   -1    0    0  501    0 -0.00000000000E+00 -0.00000000000E+00 -0.38524460688E+03  0.38524460688E+03  0.00000000000E+00 0. -1.
         25    2    1    2    0    0 -0.61364633496E+02 -0.14197698945E+02  0.63680581105E+02  0.15381529033E+03  0.12504692811E+03 0.  0.
          2    1    1    2  501    0  0.31228482303E+02  0.14242262705E+02 -0.33793067031E+03  0.33966924807E+03  0.00000000000E+00 0. -1.
          1    1    1    2  502    0  0.30136151193E+02 -0.44563760036E-01  0.16347316769E+03  0.16622775385E+03  0.00000000000E+00 0. -1.
         22    1    3    3    0    0 -0.93043224122E+02  0.25407009822E+01  0.71222461465E+02  0.11720126166E+03  0.00000000000E+00 0.  1.
         22    1    3    3    0    0  0.31678590626E+02 -0.16738399927E+02 -0.75418803603E+01  0.36614028671E+02  0.00000000000E+00 0.  1.
</event>
<event>
 7    1  0.6103724E-006  0.2482899E+03  0.7818608E-02  0.1263568E+00
          2   -1    0    0  502    0  0.00000000000E+00  0.00000000000E+00  0.22593127229E+04  0.22593127229E+04  0.00000000000E+00 0. -1.
          1   -1    0    0  501    0 -0.00000000000E+00 -0.00000000000E+00 -0.22316846627E+03  0.22316846627E+03  0.00000000000E+00 0. -1.
         25    2    1    2    0    0 -0.20261497976E+03  0.49234089350E+02  0.57048168891E+03  0.62012189972E+03  0.12499995019E+03 0.  0.
          2    1    1    2  501    0  0.24254913645E+03 -0.74625590932E+02 -0.11668046147E+03  0.27930877628E+03  0.00000000000E+00 0. -1.
          1    1    1    2  502    0 -0.39934156694E+02  0.25391501582E+02  0.15823430292E+04  0.15830505132E+04  0.00000000000E+00 0. -1.
         22    1    3    3    0    0 -0.12257238821E+03  0.76414732092E+02  0.45242052285E+03  0.47491844681E+03  0.00000000000E+00 0. -1.
         22    1    3    3    0    0 -0.80042591551E+02 -0.27180642741E+02  0.11806116607E+03  0.14520345290E+03  0.00000000000E+00 0. -1.
</event>
<event>
 7    1  0.6103724E-006  0.1256063E+03  0.7818608E-02  0.1290732E+00
          2   -1    0    0  502    0  0.00000000000E+00  0.00000000000E+00  0.61659693473E+03  0.61659693473E+03  0.00000000000E+00 0. -1.
          1   -1    0    0  501    0 -0.00000000000E+00 -0.00000000000E+00 -0.13490603327E+04  0.13490603327E+04  0.00000000000E+00 0. -1.
         25    2    1    2    0    0  0.68226195162E+02 -0.10756281724E+03 -0.11024215013E+02  0.17881551597E+03  0.12501552734E+03 0.  0.
          2    1    1    2  501    0 -0.11486137989E+03  0.52509486820E+02 -0.12484969090E+04  0.12548684850E+04  0.00000000000E+00 0. -1.
          1    1    1    2  502    0  0.46635184731E+02  0.55053330419E+02  0.52705772606E+03  0.53197326648E+03  0.00000000000E+00 0. -1.
         22    1    3    3    0    0  0.10273185884E+03 -0.88091219876E+02 -0.23336127580E+02  0.13732615443E+03  0.00000000000E+00 0. -1.
         22    1    3    3    0    0 -0.34505663681E+02 -0.19471597363E+02  0.12311912567E+02  0.41489361540E+02  0.00000000000E+00 0. -1.
</event>
<event>
 7    1  0.6103724E-006  0.9659207E+02  0.7818608E-02  0.1345502E+00
          2   -1    0    0  502    0  0.00000000000E+00  0.00000000000E+00  0.37618973139E+04  0.37618973139E+04  0.00000000000E+00 0. -1.
          1   -1    0    0  501    0 -0.00000000000E+00 -0.00000000000E+00 -0.17349750217E+03  0.17349750217E+03  0.00000000000E+00 0. -1.
         25    2    1    2    0    0  0.97308727063E+02  0.71505994132E+02  0.48397596228E+03  0.51423718565E+03  0.12500022192E+03 0.  0.
          2    1    1    2  501    0 -0.41924695479E+02 -0.86672862732E+02 -0.14345607993E+03  0.17277011343E+03  0.00000000000E+00 0. -1.
          1    1    1    2  502    0 -0.55384031584E+02  0.15166868600E+02  0.32478799294E+04  0.32483875170E+04  0.00000000000E+00 0. -1.
         22    1    3    3    0    0 -0.14311081309E+02  0.57968026485E+02  0.20300938127E+03  0.21160791106E+03  0.00000000000E+00 0. -1.
         22    1    3    3    0    0  0.11161980837E+03  0.13537967647E+02  0.28096658101E+03  0.30262927458E+03  0.00000000000E+00 0. -1.
</event>
<event>
 7    1  0.6103724E-006  0.1003734E+03  0.7818608E-02  0.1446129E+00
          2   -1    0    0  502    0  0.00000000000E+00  0.00000000000E+00  0.21836036225E+03  0.21836036225E+03  0.00000000000E+00 0. -1.
          1   -1    0    0  501    0 -0.00000000000E+00 -0.00000000000E+00 -0.10672883704E+04  0.10672883704E+04  0.00000000000E+00 0. -1.
         25    2    1    2    0    0  0.87252529662E+02 -0.42962179171E+02 -0.33575710835E+03  0.37123703789E+03  0.12500139888E+03 0.  0.
          2    1    1    2  501    0  0.11150356182E+02  0.22109426433E+02 -0.70095057757E+03  0.70138781667E+03  0.00000000000E+00 0. -1.
          1    1    1    2  502    0 -0.98402885845E+02  0.20852752737E+02  0.18777967779E+03  0.21302387807E+03  0.00000000000E+00 0. -1.
         22    1    3    3    0    0  0.66576330995E+02 -0.14660373290E+02 -0.32842867441E+03  0.33542917071E+03  0.00000000000E+00 0.  1.
         22    1    3    3    0    0  0.20676198667E+02 -0.28301805881E+02 -0.73284339406E+01  0.35807867173E+02  0.00000000000E+00 0.  1.
</event>
<event>
 7    1  0.6103724E-006  0.2140576E+03  0.7818608E-02  0.1262739E+00
          2   -1    0    0  502    0  0.00000000000E+00  0.00000000000E+00  0.11544900057E+04  0.11544900057E+04  0.00000000000E+00 0. -1.
          1   -1    0    0  501    0 -0.00000000000E+00 -0.00000000000E+00 -0.56500629499E+03  0.56500629499E+03  0.00000000000E+00 0. -1.
         25    2    1    2    0    0 -0.26437608090E+03  0.11650638908E+02  0.28329360801E+03  0.40732282366E+03  0.12500465909E+03 0.  0.
          2    1    1    2  501    0  0.21082649685E+03  0.23032508803E+01 -0.47988180625E+03  0.52415614535E+03  0.00000000000E+00 0. -1.
          1    1    1    2  502    0  0.53549584055E+02 -0.13953889788E+02  0.78607190893E+03  0.78801733166E+03  0.00000000000E+00 0. -1.
         22    1    3    3    0    0 -0.57524022230E+02 -0.20825405082E+02  0.83770829080E+01  0.61748572035E+02  0.00000000000E+00 0. -1.
         22    1    3    3    0    0 -0.20685205867E+03  0.32476043990E+02  0.27491652510E+03  0.34557425162E+03  0.00000000000E+00 0. -1.
</event>
<event>
 7    1  0.6103724E-006  0.2592115E+03  0.7818608E-02  0.1201092E+00
          2   -1    0    0  502    0  0.00000000000E+00  0.00000000000E+00  0.15239300338E+04  0.15239300338E+04  0.00000000000E+00 0. -1.
          1   -1    0    0  501    0 -0.00000000000E+00 -0.00000000000E+00 -0.10252092233E+04  0.10252092233E+04  0.00000000000E+00 0. -1.
         25    2    1    2    0    0 -0.18188866885E+03  0.33086395130E+02 -0.17752198359E+03  0.28516241591E+03  0.12500140554E+03 0.  0.
          2    1    1    2  501    0 -0.65794002674E+02  0.55723779146E+02 -0.77969798959E+03  0.78445072842E+03  0.00000000000E+00 0. -1.
          1    1    1    2  502    0  0.24768267153E+03 -0.88810174276E+02  0.14559407836E+04  0.14795261128E+04  0.00000000000E+00 0. -1.
         22    1    3    3    0    0 -0.18683629348E+03  0.42257410187E+02 -0.11853999890E+03  0.22526699851E+03  0.00000000000E+00 0. -1.
         22    1    3    3    0    0  0.49476246278E+01 -0.91710150570E+01 -0.58981984697E+02  0.59895417399E+02  0.00000000000E+00 0. -1.
</event>
<event>
 7    1  0.6103724E-006  0.1051387E+03  0.7818608E-02  0.1337890E+00
          2   -1    0    0  502    0  0.00000000000E+00  0.00000000000E+00  0.43322602836E+03  0.43322602836E+03  0.00000000000E+00 0. -1.
          1   -1    0    0  501    0 -0.00000000000E+00 -0.00000000000E+00 -0.23071909376E+04  0.23071909376E+04  0.00000000000E+00 0. -1.
         25    2    1    2    0    0 -0.12309769010E+03 -0.82221256054E+02  0.22527696716E+03  0.29713279184E+03  0.12499923119E+03 0.  0.
          2    1    1    2  501    0  0.66769324344E+02  0.80994988427E+02 -0.22654015478E+04  0.22678321154E+04  0.00000000000E+00 0. -1.
          1    1    1    2  502    0  0.56328365755E+02  0.12262676270E+01  0.16615967139E+03  0.17545205874E+03  0.00000000000E+00 0. -1.
         22    1    3    3    0    0 -0.99164811336E+02 -0.72165163002E+02  0.73139798122E+02  0.14279671084E+03  0.00000000000E+00 0. -1.
         22    1    3    3    0    0 -0.23932878763E+02 -0.10056093051E+02  0.15213716904E+03  0.15433608100E+03  0.00000000000E+00 0. -1.
</event>
<event>
 7    1  0.6103724E-006  0.9245385E+02  0.7818608E-02  0.1422140E+00
          2   -1    0    0  502    0  0.00000000000E+00  0.00000000000E+00  0.10929158611E+04  0.10929158611E+04  0.00000000000E+00 0. -1.
          1   -1    0    0  501    0 -0.00000000000E+00 -0.00000000000E+00 -0.55355243196E+03  0.55355243196E+03  0.00000000000E+00 0. -1.
         25    2    1    2    0    0 -0.30177626124E+02 -0.11592459558E+03  0.17783461297E+03  0.24819277388E+03  0.12500120983E+03 0.  0.
          2    1    1    2  501    0  0.19154798571E+02  0.25895713257E+02 -0.51553199611E+03  0.51653725256E+03  0.00000000000E+00 0. -1.
          1    1    1    2  502    0  0.11022827554E+02  0.90028882319E+02  0.87706081224E+03  0.88173826658E+03  0.00000000000E+00 0. -1.
         22    1    3    3    0    0 -0.25455624375E+02 -0.50512072071E+02  0.17347670177E+03  0.18246540575E+03  0.00000000000E+00 0.  1.
         22    1    3    3    0    0 -0.47220017490E+01 -0.65412523506E+02  0.43579112006E+01  0.65727368135E+02  0.00000000000E+00 0.  1.
</event>
<event>
 7    1  0.6103724E-006  0.1023468E+03  0.7818608E-02  0.1442863E+00
          2   -1    0    0  502    0  0.00000000000E+00  0.00000000000E+00  0.96307107644E+03  0.96307107644E+03  0.00000000000E+00 0. -1.
          1   -1    0    0  501    0 -0.00000000000E+00 -0.00000000000E+00 -0.76046856201E+02  0.76046856201E+02  0.00000000000E+00 0. -1.
         25    2    1    2    0    0 -0.69994402378E+02  0.84430374035E+02  0.17419208321E+03  0.24082102673E+03  0.12499672252E+03 0.  0.
          2    1    1    2  501    0 -0.10792962491E+02 -0.22417814678E+02 -0.35342761527E+02  0.43222184658E+02  0.00000000000E+00 0. -1.
          1    1    1    2  502    0  0.80787364869E+02 -0.62012559357E+02  0.74817489856E+03  0.75507472125E+03  0.00000000000E+00 0. -1.
         22    1    3    3    0    0 -0.94625097161E+02  0.69633007228E+02  0.79474527882E+02  0.14184098593E+03  0.00000000000E+00 0.  1.
         22    1    3    3    0    0  0.24630694783E+02  0.14797366807E+02  0.94717555328E+02  0.98980040802E+02  0.00000000000E+00 0.  1.
</event>
<event>
 7    1  0.6103724E-006  0.1263248E+03  0.7818608E-02  0.1407634E+00
          2   -1    0    0  502    0  0.00000000000E+00  0.00000000000E+00  0.60433413952E+03  0.60433413952E+03  0.00000000000E+00 0. -1.
          1   -1    0    0  501    0 -0.00000000000E+00 -0.00000000000E+00 -0.87690642151E+03  0.87690642151E+03  0.00000000000E+00 0. -1.
         25    2    1    2    0    0  0.11307025858E+03  0.70391324134E+02 -0.50795880557E+03  0.53980223084E+03  0.12499791349E+03 0.  0.
          2    1    1    2  501    0  0.50934159176E+01 -0.25881451388E+02 -0.34574366396E+03  0.34674842982E+03  0.00000000000E+00 0. -1.
          1    1    1    2  502    0 -0.11816367449E+03 -0.44509872745E+02  0.58113018753E+03  0.59468990037E+03  0.00000000000E+00 0. -1.
         22    1    3    3    0    0 -0.13698471218E+02 -0.11884745072E+02 -0.15216479235E+03  0.15324170226E+03  0.00000000000E+00 0.  1.
         22    1    3    3    0    0  0.12676872979E+03  0.82276069205E+02 -0.35579401321E+03  0.38656052858E+03  0.00000000000E+00 0.  1.
</event>
<event>
 7    1  0.6103724E-006  0.4114929E+02  0.7818608E-02  0.1501054E+00
          2   -1    0    0  502    0  0.00000000000E+00  0.00000000000E+00  0.39439374442E+03  0.39439374442E+03  0.00000000000E+00 0. -1.
          1   -1    0    0  501    0 -0.00000000000E+00 -0.00000000000E+00 -0.29003788264E+03  0.29003788264E+03  0.00000000000E+00 0. -1.
         25    2    1    2    0    0 -0.52896503730E+02  0.88698860422E+01 -0.97140007583E+01  0.13636740222E+03  0.12499996637E+03 0.  0.
          2    1    1    2  501    0  0.31270952537E+02  0.26253375784E+02 -0.21377275616E+03  0.21763709125E+03  0.00000000000E+00 0. -1.
          1    1    1    2  502    0  0.21625551194E+02 -0.35123261827E+02  0.32784261869E+03  0.33042713359E+03  0.00000000000E+00 0. -1.
         22    1    3    3    0    0 -0.86582065122E+02 -0.96547901272E+01 -0.30944707023E+02  0.92451305377E+02  0.00000000000E+00 0.  1.
         22    1    3    3    0    0  0.33685561392E+02  0.18524676169E+02  0.21230706265E+02  0.43916096843E+02  0.00000000000E+00 0.  1.
</event>
<event>
 7    1  0.6103724E-006  0.1011897E+03  0.7818608E-02  0.1337767E+00
          2   -1    0    0  502    0  0.00000000000E+00  0.00000000000E+00  0.47773727170E+03  0.47773727170E+03  0.00000000000E+00 0. -1.
          1   -1    0    0  501    0 -0.00000000000E+00 -0.00000000000E+00 -0.86840763432E+02  0.86840763432E+02  0.00000000000E+00 0. -1.
         25    2    1    2    0    0 -0.11893934606E+03  0.57367719956E+02  0.15995607276E+03  0.24217593728E+03  0.12500246417E+03 0.  0.
          2    1    1    2  501    0  0.56429540531E+02  0.15813336205E+02 -0.13116779210E+02  0.60053347478E+02  0.00000000000E+00 0. -1.
          1    1    1    2  502    0  0.62509805527E+02 -0.73181056161E+02  0.24405721472E+03  0.26234875038E+03  0.00000000000E+00 0. -1.
         22    1    3    3    0    0 -0.81424269977E+02  0.31636122408E+02  0.12970940123E+02  0.88311954287E+02  0.00000000000E+00 0. -1.
         22    1    3    3    0    0 -0.37515076080E+02  0.25731597549E+02  0.14698513263E+03  0.15386398299E+03  0.00000000000E+00 0. -1.
</event>
<event>
 7    1  0.6103724E-006  0.6466288E+02  0.7818608E-02  0.1459736E+00
          2   -1    0    0  502    0  0.00000000000E+00  0.00000000000E+00  0.16972547921E+04  0.16972547921E+04  0.00000000000E+00 0. -1.
          1   -1    0    0  501    0 -0.00000000000E+00 -0.00000000000E+00 -0.76641896055E+03  0.76641896055E+03  0.00000000000E+00 0. -1.
         25    2    1    2    0    0  0.48087796284E+02  0.27353075060E+02 -0.38292579316E+02  0.14195490731E+03  0.12499698882E+03 0.  0.
          2    1    1    2  501    0 -0.65131116509E+02  0.29707043895E+01 -0.67453938205E+03  0.67768301245E+03  0.00000000000E+00 0. -1.
          1    1    1    2  502    0  0.17043320225E+02 -0.30323779450E+02  0.16436677929E+04  0.16440358329E+04  0.00000000000E+00 0. -1.
         22    1    3    3    0    0  0.63040613102E+02 -0.30685825752E+01  0.26796328622E+02  0.68568056170E+02  0.00000000000E+00 0.  1.
         22    1    3    3    0    0 -0.14952816818E+02  0.30421657636E+02 -0.65088907938E+02  0.73386851143E+02  0.00000000000E+00 0.  1.
</event>
<event>
 7    1  0.6103724E-006  0.1324340E+03  0.7818608E-02  0.1248398E+00
          2   -1    0    0  502    0  0.00000000000E+00  0.00000000000E+00  0.12614535992E+04  0.12614535992E+04  0.00000000000E+00 0. -1.
          1   -1    0    0  501    0 -0.00000000000E+00 -0.00000000000E+00 -0.24260573407E+03  0.24260573407E+03  0.00000000000E+00 0. -1.
         25    2    1    2    0    0 -0.13872909886E+03  0.10517149373E+03  0.64612273763E+02  0.22385250145E+03  0.12501356133E+03 0.  0.
          2    1    1    2  501    0  0.37432297894E+02 -0.12429991490E+03 -0.13431001737E+03  0.18679086309E+03  0.00000000000E+00 0. -1.
          1    1    1    2  502    0  0.10129680097E+03  0.19128421168E+02  0.10885456087E+04  0.10934159687E+04  0.00000000000E+00 0. -1.
         22    1    3    3    0    0 -0.54261425755E+02  0.10941993205E+03  0.66879659250E+02  0.13924766668E+03  0.00000000000E+00 0.  1.
         22    1    3    3    0    0 -0.84467673107E+02 -0.42484383185E+01 -0.22673854872E+01  0.84604834763E+02  0.00000000000E+00 0.  1.
</event>
<event>
 7    1  0.6103724E-006  0.6068515E+02  0.7818608E-02  0.1536144E+00
          2   -1    0    0  502    0  0.00000000000E+00  0.00000000000E+00  0.27735296849E+04  0.27735296849E+04  0.00000000000E+00 0. -1.
          1   -1    0    0  501    0 -0.00000000000E+00 -0.00000000000E+00 -0.11167084371E+03  0.11167084371E+03  0.00000000000E+00 0. -1.
         25    2    1    2    0    0 -0.54350661050E+02  0.52879143114E+02  0.20184826061E+04  0.20237691774E+04  0.12497781471E+03 0.  0.
          2    1    1    2  501    0  0.32532635665E+02 -0.51163194229E+02 -0.10042497904E+03  0.11730823177E+03  0.00000000000E+00 0. -1.
          1    1    1    2  502    0  0.21818025385E+02 -0.17159488849E+01  0.74380121416E+03  0.74412311944E+03  0.00000000000E+00 0. -1.
         22    1    3    3    0    0  0.15698687624E+02  0.48590440261E+02  0.14602226804E+04  0.14611152439E+04  0.00000000000E+00 0.  1.
         22    1    3    3    0    0 -0.70049348674E+02  0.42887028528E+01  0.55825992570E+03  0.56265393348E+03  0.00000000000E+00 0.  1.
</event>
<event>
 7    1  0.6103724E-006  0.7206333E+02  0.7818608E-02  0.1384517E+00
          2   -1    0    0  502    0  0.00000000000E+00  0.00000000000E+00  0.74105948598E+03  0.74105948598E+03  0.00000000000E+00 0. -1.
          1   -1    0    0  501    0 -0.00000000000E+00 -0.00000000000E+00 -0.26743942450E+03  0.26743942450E+03  0.00000000000E+00 0. -1.
         25    2    1    2    0    0  0.32233085200E+02 -0.30605195808E+02  0.31296907099E+03  0.33992672419E+03  0.12499955451E+03 0.  0.
          2    1    1    2  501    0  0.41394510339E+01  0.72640507445E+02 -0.24682332380E+03  0.25732378737E+03  0.00000000000E+00 0. -1.
          1    1    1    2  502    0 -0.36372536234E+02 -0.42035311637E+02  0.40747431428E+03  0.41124839892E+03  0.00000000000E+00 0. -1.
         22    1    3    3    0    0 -0.28468129018E+02 -0.97127464656E+01  0.24344914828E+03  0.24530034573E+03  0.00000000000E+00 0.  1.
         22    1    3    3    0    0  0.60701214218E+02 -0.20892449342E+02  0.69519922710E+02  0.94626378461E+02  0.00000000000E+00 0.  1.
</event>
<event>
 7    1  0.6103724E-006  0.5193950E+02  0.7818608E-02  0.1517538E+00
          2   -1    0    0  502    0  0.00000000000E+00  0.00000000000E+00  0.11158201863E+04  0.11158201863E+04  0.00000000000E+00 0. -1.
          1   -1    0    0  501    0 -0.00000000000E+00 -0.00000000000E+00 -0.79982349500E+03  0.79982349500E+03  0.00000000000E+00 0. -1.
         25    2    1    2    0    0 -0.27364292285E+01  0.73140596236E+02  0.91955135737E+03  0.93089017919E+03  0.12499916807E+03 0.  0.
          2    1    1    2  501    0  0.18133510295E+02 -0.48654009796E+02 -0.79220186541E+03  0.79390165161E+03  0.00000000000E+00 0. -1.
          1    1    1    2  502    0 -0.15397081067E+02 -0.24486586440E+02  0.18864719936E+03  0.19085185052E+03  0.00000000000E+00 0. -1.
         22    1    3    3    0    0 -0.43077839305E+02  0.15777936191E+01  0.57772268479E+03  0.57932865473E+03  0.00000000000E+00 0.  1.
         22    1    3    3    0    0  0.40341410076E+02  0.71562802617E+02  0.34182867258E+03  0.35156152446E+03  0.00000000000E+00 0.  1.
</event>
<event>
 7    1  0.6103724E-006  0.1056023E+03  0.7818608E-02  0.1397826E+00
          2   -1    0    0  502    0  0.00000000000E+00  0.00000000000E+00  0.37862436232E+03  0.37862436232E+03  0.00000000000E+00 0. -1.
          1   -1    0    0  501    0 -0.00000000000E+00 -0.00000000000E+00 -0.67129201784E+03  0.67129201784E+03  0.00000000000E+00 0. -1.
         25    2    1    2    0    0  0.64712267072E+02 -0.55020776567E+02  0.18352002977E+03  0.23773859961E+03  0.12500030823E+03 0.  0.
          2    1    1    2  501    0 -0.58470113055E+02  0.88536191624E+02 -0.63802588436E+03  0.64678778626E+03  0.00000000000E+00 0. -1.
          1    1    1    2  502    0 -0.62421540161E+01 -0.33515415058E+02  0.16183819906E+03  0.16538999428E+03  0.00000000000E+00 0. -1.
         22    1    3    3    0    0  0.84315445723E+02 -0.81929189087E+02  0.14875845710E+03  0.18960634212E+03  0.00000000000E+00 0.  1.
         22    1    3    3    0    0 -0.19603178651E+02  0.26908412520E+02  0.34761572667E+02  0.48132257498E+02  0.00000000000E+00 0.  1.
</event>
<event>
 7    1  0.6103724E-006  0.5991858E+02  0.7818608E-02  0.1398575E+00
          2   -1    0    0  502    0  0.00000000000E+00  0.00000000000E+00  0.17710522152E+04  0.17710522152E+04  0.00000000000E+00 0. -1.
          1   -1    0    0  501    0 -0.00000000000E+00 -0.00000000000E+00 -0.10113624340E+03  0.10113624340E+03  0.00000000000E+00 0. -1.
         25    2    1    2    0    0  0.57486848156E+02 -0.58494474815E+02  0.45437785270E+02  0.15625968083E+03  0.12500461683E+03 0.  0.
          2    1    1    2  501    0 -0.59711285427E+02 -0.14153356473E+01 -0.25441113862E+02  0.64920652006E+02  0.00000000000E+00 0. -1.
          1    1    1    2  502    0  0.22244372714E+01  0.59909810463E+02  0.16499193004E+04  0.16510081258E+04  0.00000000000E+00 0. -1.
         22    1    3    3    0    0  0.38768877995E+02 -0.73319335765E+02  0.79350996364E+02  0.11478384696E+03  0.00000000000E+00 0. -1.
         22    1    3    3    0    0  0.18717970161E+02  0.14824860949E+02 -0.33913211094E+02  0.41475833878E+02  0.00000000000E+00 0. -1.
</event>
<event>
 7    1  0.6103724E-006  0.1316754E+03  0.7818608E-02  0.1410071E+00
          2   -1    0    0  502    0  0.00000000000E+00  0.00000000000E+00  0.68768669544E+02  0.68768669544E+02  0.00000000000E+00 0. -1.
          1   -1    0    0  501    0 -0.00000000000E+00 -0.00000000000E+00 -0.10922635321E+04  0.10922635321E+04  0.00000000000E+00 0. -1.
         25    2    1    2    0    0  0.19020371155E+01 -0.12170073814E+03 -0.34216976044E+03  0.38408396513E+03  0.12500263960E+03 0.  0.
          2    1    1    2  501    0  0.19905095716E+02  0.13357126172E+03 -0.71914031588E+03  0.73171052249E+03  0.00000000000E+00 0. -1.
          1    1    1    2  502    0 -0.21807132831E+02 -0.11870523582E+02  0.37815213798E+02  0.45237713990E+02  0.00000000000E+00 0. -1.
         22    1    3    3    0    0  0.53248829653E+02 -0.69651043227E+02 -0.25853506980E+03  0.27299649814E+03  0.00000000000E+00 0.  1.
         22    1    3    3    0    0 -0.51346792538E+02 -0.52049694910E+02 -0.83634690639E+02  0.11108746699E+03  0.00000000000E+00 0.  1.
</event>
<event>
 7    1  0.6103724E-006  0.1461464E+03  0.7818608E-02  0.1305277E+00
          2   -1    0    0  502    0  0.00000000000E+00  0.00000000000E+00  0.10243247525E+04  0.10243247525E+04  0.00000000000E+00 0. -1.
          1   -1    0    0  501    0 -0.00000000000E+00 -0.00000000000E+00 -0.25343437997E+03  0.25343437997E+03  0.00000000000E+00 0. -1.
         25    2    1    2    0    0  0.12941764172E+03  0.74997086847E+02  0.12044153168E+03  0.22913841394E+03  0.12499904467E+03 0.  0.
          2    1    1    2  501    0 -0.92217119256E+02 -0.11442385480E+03 -0.17095039079E+03  0.22543480597E+03  0.00000000000E+00 0. -1.
          1    1    1    2  502    0 -0.37200522460E+02  0.39426767948E+02  0.82139923168E+03  0.82318591260E+03  0.00000000000E+00 0. -1.
         22    1    3    3    0    0  0.77629392085E+02  0.90336148102E+02  0.12771708897E+03  0.17463847510E+03  0.00000000000E+00 0. -1.
         22    1    3    3    0    0  0.51788249631E+02 -0.15339061255E+02 -0.72755572939E+01  0.54499938844E+02  0.00000000000E+00 0. -1.
</event>
<event>
 7    1  0.6103724E-006  0.3282804E+02  0.7818608E-02  0.1573239E+00
          2   -1    0    0  502    0  0.00000000000E+00  0.00000000000E+00  0.12808545998E+04  0.12808545998E+04  0.00000000000E+00 0. -1.
          1   -1    0    0  501    0 -0.00000000000E+00 -0.00000000000E+00 -0.48099722339E+03  0.48099722339E+03  0.00000000000E+00 0. -1.
         25    2    1    2    0    0 -0.32893750917E+02 -0.68886999923E+01  0.46656509508E+03  0.48418742676E+03  0.12500009301E+03 0.  0.
          2    1    1    2  501    0  0.22987070453E+02 -0.23461390175E+02 -0.47129789857E+03  0.47244105604E+03  0.00000000000E+00 0. -1.
          1    1    1    2  502    0  0.99066804643E+01  0.30350090167E+02  0.80459017994E+03  0.80522334041E+03  0.00000000000E+00 0. -1.
         22    1    3    3    0    0  0.74617410543E+01  0.13965173021E+02  0.41566010383E+03  0.41596156740E+03  0.00000000000E+00 0.  1.
         22    1    3    3    0    0 -0.40355491972E+02 -0.20853873013E+02  0.50904991244E+02  0.68225859361E+02  0.00000000000E+00 0.  1.
</event>
<event>
 7    1  0.6103724E-006  0.1309315E+03  0.7818608E-02  0.1405680E+00
          2   -1    0    0  502    0  0.00000000000E+00  0.00000000000E+00  0.68081312101E+03  0.68081312101E+03  0.00000000000E+00 0. -1.
          1   -1    0    0  501    0 -0.00000000000E+00 -0.00000000000E+00 -0.29339101210E+03  0.29339101210E+03  0.00000000000E+00 0. -1.
         25    2    1    2    0    0 -0.15070201755E+03 -0.10110792678E+02  0.21408810919E+03  0.29030081295E+03  0.12501006872E+03 0.  0.
          2    1    1    2  501    0  0.25471152731E+02 -0.43671577476E+01 -0.24532171515E+03  0.24667913493E+03  0.00000000000E+00 0. -1.
          1    1    1    2  502    0  0.12523086482E+03  0.14477950426E+02  0.41865571487E+03  0.43722418523E+03  0.00000000000E+00 0. -1.
         22    1    3    3    0    0 -0.83201668635E+02  0.20400486288E+02  0.19621311923E+03  0.21409877549E+03  0.00000000000E+00 0. -1.
         22    1    3    3    0    0 -0.67500348915E+02 -0.30511278966E+02  0.17874989950E+02  0.76202037463E+02  0.00000000000E+00 0. -1.
</event>
<event>
 7    1  0.6103724E-006  0.7142877E+02  0.7818608E-02  0.1488371E+00
          2   -1    0    0  502    0  0.00000000000E+00  0.00000000000E+00  0.51036457103E+03  0.51036457103E+03  0.00000000000E+00 0. -1.
          1   -1    0    0  501    0 -0.00000000000E+00 -0.00000000000E+00 -0.17290181167E+04  0.17290181167E+04  0.00000000000E+00 0. -1.
         25    2    1    2    0    0  0.83226661642E+02  0.20702461709E+02  0.69444121624E+02  0.16676531238E+03  0.12503165302E+03 0.  0.
          2    1    1    2  501    0 -0.12570686309E+02 -0.22392770280E+02 -0.16770748688E+04  0.16772714669E+04  0.00000000000E+00 0. -1.
          1    1    1    2  502    0 -0.70655975333E+02  0.16903085709E+01  0.38897720150E+03  0.39534590839E+03  0.00000000000E+00 0. -1.
         22    1    3    3    0    0  0.32114515812E+02  0.55907276296E+02  0.81111666488E+02  0.10361499944E+03  0.00000000000E+00 0. -1.
         22    1    3    3    0    0  0.51112145829E+02 -0.35204814587E+02 -0.11667544864E+02  0.63150312941E+02  0.00000000000E+00 0. -1.
</event>
<event>
 7    1  0.6103724E-006  0.8071170E+02  0.7818608E-02  0.1333405E+00
          2   -1    0    0  502    0  0.00000000000E+00  0.00000000000E+00  0.11526254967E+04  0.11526254967E+04  0.00000000000E+00 0. -1.
          1   -1    0    0  501    0 -0.00000000000E+00 -0.00000000000E+00 -0.10348034829E+04  0.10348034829E+04  0.00000000000E+00 0. -1.
         25    2    1    2    0    0  0.11637590968E+03 -0.65817815011E+02  0.14048589065E+02  0.18356771990E+03  0.12499763121E+03 0.  0.
          2    1    1    2  501    0 -0.36305400549E+02  0.67132765893E+02 -0.94698506328E+03  0.95005557755E+03  0.00000000000E+00 0. -1.
          1    1    1    2  502    0 -0.80070509136E+02 -0.13149508821E+01  0.10507584880E+04  0.10538056821E+04  0.00000000000E+00 0. -1.
         22    1    3    3    0    0  0.83649593693E+02 -0.12839195830E+01 -0.40504907166E+02  0.92949182239E+02  0.00000000000E+00 0.  1.
         22    1    3    3    0    0  0.32726315992E+02 -0.64533895428E+02  0.54553496231E+02  0.90618537665E+02  0.00000000000E+00 0.  1.
</event>
<event>
 7    1  0.6103724E-006  0.2158001E+03  0.7818608E-02  0.1301493E+00
          2   -1    0    0  502    0  0.00000000000E+00  0.00000000000E+00  0.17741208245E+04  0.17741208245E+04  0.00000000000E+00 0. -1.
          1   -1    0    0  501    0 -0.00000000000E+00 -0.00000000000E+00 -0.54666572673E+03  0.54666572673E+03  0.00000000000E+00 0. -1.
         25    2    1    2    0    0  0.64697671324E+02  0.21491618829E+03  0.55840297531E+03  0.61466505543E+03  0.12499796345E+03 0.  0.
          2    1    1    2  501    0 -0.95830407571E+02 -0.19311642513E+03 -0.49580329802E+03  0.54064621611E+03  0.00000000000E+00 0. -1.
          1    1    1    2  502    0  0.31132736246E+02 -0.21799763165E+02  0.11648554204E+04  0.11654752797E+04  0.00000000000E+00 0. -1.
         22    1    3    3    0    0 -0.51557679378E+01  0.16519495001E+03  0.30146225670E+03  0.34379564521E+03  0.00000000000E+00 0.  1.
         22    1    3    3    0    0  0.69853439262E+02  0.49721238284E+02  0.25694071861E+03  0.27086941022E+03  0.00000000000E+00 0.  1.
</event>
<event>
 7    1  0.6103724E-006  0.7511074E+02  0.7818608E-02  0.1362775E+00
          2   -1    0    0  502    0  0.00000000000E+00  0.00000000000E+00  0.74058830484E+02  0.74058830484E+02  0.00000000000E+00 0. -1.
          1   -1    0    0  501    0 -0.00000000000E+00 -0.00000000000E+00 -0.20191402569E+04  0.20191402569E+04  0.00000000000E+00 0. -1.
         25    2    1    2    0    0 -0.28704102239E+02 -0.76865456640E+02 -0.30893332942E+03  0.34321555394E+03  0.12499956211E+03 0.  0.
          2    1    1    2  501    0 -0.34433701184E+02  0.67794236102E+02 -0.16740568606E+04  0.16757828352E+04  0.00000000000E+00 0. -1.
          1    1    1    2  502    0  0.63137803423E+02  0.90712205380E+01  0.37908763601E+02  0.74200698251E+02  0.00000000000E+00 0. -1.
         22    1    3    3    0    0 -0.28178557166E+01 -0.60015154486E+01  0.11904810518E+02  0.13626555397E+02  0.00000000000E+00 0.  1.
         22    1    3    3    0    0 -0.25886246522E+02 -0.70863941191E+02 -0.32083813994E+03  0.32958899854E+03  0.00000000000E+00 0.  1.
</event>
<event>
 7    1  0.6103724E-006  0.5091199E+02  0.7818608E-02  0.1474478E+00
          2   -1    0    0  502    0  0.00000000000E+00  0.00000000000E+00  0.69328920498E+03  0.69328920498E+03  0.00000000000E+00 0. -1.
          1   -1    0    0  501    0 -0.00000000000E+00 -0.00000000000E+00 -0.83821908745E+03  0.83821908745E+03  0.00000000000E+00 0. -1.
         25    2    1    2    0    0 -0.62672476604E+02  0.55059146683E+02 -0.24968897782E+03  0.29142536196E+03  0.12499922796E+03 0.  0.
          2    1    1    2  501    0  0.24905549498E+02 -0.42705618673E+02 -0.56599645029E+03  0.56815142172E+03  0.00000000000E+00 0. -1.
          1    1    1    2  502    0  0.37766927106E+02 -0.12353528010E+02  0.67075554565E+03  0.67193150875E+03  0.00000000000E+00 0. -1.
         22    1    3    3    0    0 -0.80659406151E+02 -0.11174349795E+02 -0.14327943779E+03  0.16480231548E+03  0.00000000000E+00 0. -1.
         22    1    3    3    0    0  0.17986929547E+02  0.66233496478E+02 -0.10640954003E+03  0.12662304648E+03  0.00000000000E+00 0. -1.
</event>
<event>
 7    1  0.6103724E-006  0.1672617E+03  0.7818608E-02  0.1389203E+00
          2   -1    0    0  502    0  0.00000000000E+00  0.00000000000E+00  0.17669648146E+04  0.17669648146E+04  0.00000000000E+00 0. -1.
          1   -1    0    0  501    0 -0.00000000000E+00 -0.00000000000E+00 -0.65684412242E+03  0.65684412242E+03  0.00000000000E+00 0. -1.
         25    2    1    2    0    0 -0.21795564058E+02 -0.15017353822E+03  0.26372066586E+03  0.32893464245E+03  0.12498908436E+03 0.  0.
          2    1    1    2  501    0  0.12689838239E+02 -0.19254658580E+02 -0.61912782915E+03  0.61955713433E+03  0.00000000000E+00 0. -1.
          1    1    1    2  502    0  0.91057258186E+01  0.16942819680E+03  0.14655278555E+04  0.14753171602E+04  0.00000000000E+00 0. -1.
         22    1    3    3    0    0  0.41529653725E+02 -0.10162444116E+03  0.19429756087E+03  0.22316760818E+03  0.00000000000E+00 0.  1.
         22    1    3    3    0    0 -0.63325217783E+02 -0.48549097065E+02  0.69423104991E+02  0.10576703428E+03  0.00000000000E+00 0.  1.
</event>
<event>
 7    1  0.6103724E-006  0.3827344E+02  0.7818608E-02  0.1567155E+00
          2   -1    0    0  502    0  0.00000000000E+00  0.00000000000E+00  0.29325632445E+03  0.29325632445E+03  0.00000000000E+00 0. -1.
          1   -1    0    0  501    0 -0.00000000000E+00 -0.00000000000E+00 -0.61331345375E+02  0.61331345375E+02  0.00000000000E+00 0. -1.
         25    2    1    2    0    0  0.40664027682E+02  0.24874998006E+01  0.10630640774E+03  0.16907375050E+03  0.12500051992E+03 0.  0.
          2    1    1    2  501    0 -0.13330607212E+02  0.25128903979E+02 -0.20017756631E+02  0.34783293179E+02  0.00000000000E+00 0. -1.
          1    1    1    2  502    0 -0.27333420470E+02 -0.27616403779E+02  0.14563632797E+03  0.15073062615E+03  0.00000000000E+00 0. -1.
         22    1    3    3    0    0 -0.30469094875E+02 -0.93596725081E+01  0.89530563623E+02  0.95035209447E+02  0.00000000000E+00 0.  1.
         22    1    3    3    0    0  0.71133122556E+02  0.11847172309E+02  0.16775844113E+02  0.74038541058E+02  0.00000000000E+00 0.  1.
</event>
<event>
 7    1  0.6103724E-006  0.7726504E+02  0.7818608E-02  0.1460590E+00
          2   -1    0    0  502    0  0.00000000000E+00  0.00000000000E+00  0.64010253424E+03  0.64010253424E+03  0.00000000000E+00 0. -1.
          1   -1    0    0  501    0 -0.00000000000E+00 -0.00000000000E+00 -0.11533968674E+04  0.11533968674E+04  0.00000000000E+00 0. -1.
         25    2    1    2    0    0  0.79143647822E+02  0.49596685644E+02 -0.18275799434E+03  0.24031152486E+03  0.12500238504E+03 0.  0.
          2    1    1    2  501    0 -0.49629779102E+01 -0.28502653084E+02 -0.93920616299E+03  0.93965166364E+03  0.00000000000E+00 0. -1.
          1    1    1    2  502    0 -0.74180669912E+02 -0.21094032560E+02  0.60866982417E+03  0.61353621316E+03  0.00000000000E+00 0. -1.
         22    1    3    3    0    0  0.43594302077E+02  0.34963698051E+02 -0.24349499865E+01  0.55936145170E+02  0.00000000000E+00 0.  1.
         22    1    3    3    0    0  0.35549345745E+02  0.14632987593E+02 -0.18032304436E+03  0.18437537969E+03  0.00000000000E+00 0.  1.
</event>
<event>
 7    1  0.6103724E-006  0.6056542E+02  0.7818608E-02  0.1445249E+00
          2   -1    0    0  502    0  0.00000000000E+00  0.00000000000E+00  0.39563611682E+02  0.39563611682E+02  0.00000000000E+00 0. -1.
          1   -1    0    0  501    0 -0.00000000000E+00 -0.00000000000E+00 -0.22015095838E+04  0.22015095838E+04  0.00000000000E+00 0. -1.
         25    2    1    2    0    0 -0.54331565065E+02  0.63816938183E+02 -0.24117705353E+03  0.28428229371E+03  0.12500212321E+03 0.  0.
          2    1    1    2  501    0  0.55883845751E+02 -0.22540061619E+02 -0.19139827901E+04  0.19149311161E+04  0.00000000000E+00 0. -1.
          1    1    1    2  502    0 -0.15522806859E+01 -0.41276876563E+02 -0.67861284527E+01  0.41859785637E+02  0.00000000000E+00 0. -1.
         22    1    3    3    0    0  0.36784213148E+01  0.12435248593E+02  0.13115543951E+02  0.18444069076E+02  0.00000000000E+00 0. -1.
         22    1    3    3    0    0 -0.58009986380E+02  0.51381689590E+02 -0.25429259748E+03  0.26583822464E+03  0.00000000000E+00 0. -1.
</event>
<event>
 7    1  0.6103724E-006  0.1465889E+03  0.7818608E-02  0.1228696E+00
          2   -1    0    0  502    0  0.00000000000E+00  0.00000000000E+00  0.17400111847E+04  0.17400111847E+04  0.00000000000E+00 0. -1.
          1   -1    0    0  501    0 -0.00000000000E+00 -0.00000000000E+00 -0.15073759852E+03  0.15073759852E+03  0.00000000000E+00 0. -1.
         25    2    1    2    0    0 -0.99869002470E+02  0.31931537564E+02  0.15399445928E+02  0.16387623641E+03  0.12499934871E+03 0.  0.
          2    1    1    2  501    0  0.40860622982E+02  0.10622912538E+03 -0.28613349238E+02  0.11735817545E+03  0.00000000000E+00 0. -1.
          1    1    1    2  502    0  0.59008379488E+02 -0.13816066294E+03  0.16024874895E+04  0.16095143713E+04  0.00000000000E+00 0. -1.
         22    1    3    3    0    0  0.83845360488E+01 -0.33802853015E+02 -0.62706398707E+01  0.35387204482E+02  0.00000000000E+00 0. -1.
         22    1    3    3    0    0 -0.10825353852E+03  0.65734390579E+02  0.21670085798E+02  0.12848903193E+03  0.00000000000E+00 0. -1.
</event>
<event>
 7    1  0.6103724E-006  0.1871169E+03  0.7818608E-02  0.1278493E+00
          2   -1    0    0  502    0  0.00000000000E+00  0.00000000000E+00  0.19968467722E+03  0.19968467722E+03  0.00000000000E+00 0. -1.
          1   -1    0    0  501    0 -0.00000000000E+00 -0.00000000000E+00 -0.56541973099E+03  0.56541973099E+03  0.00000000000E+00 0. -1.
         25    2    1    2    0    0  0.14808168707E+03 -0.23480133135E+02 -0.22322887836E+03  0.29653923880E+03  0.12499954126E+03 0.  0.
          2    1    1    2  501    0  0.37802516442E+02 -0.39075232305E+02 -0.24242855700E+03  0.24845021489E+03  0.00000000000E+00 0. -1.
          1    1    1    2  502    0 -0.18588420351E+03  0.62555365440E+02  0.99922381596E+02  0.22011495452E+03  0.00000000000E+00 0. -1.
         22    1    3    3    0    0  0.12296820843E+03  0.14637964289E+02 -0.21783492669E+03  0.25057435138E+03  0.00000000000E+00 0.  1.
         22    1    3    3    0    0  0.25113478636E+02 -0.38118097424E+02 -0.53939516693E+01  0.45964887414E+02  0.00000000000E+00 0.  1.
</event>
<event>
 7    1  0.6103724E-006  0.3261598E+03  0.7818608E-02  0.1173514E+00
          2   -1    0    0  502    0  0.00000000000E+00  0.00000000000E+00  0.28065749073E+04  0.28065749073E+04  0.00000000000E+00 0. -1.
          1   -1    0    0  501    0 -0.00000000000E+00 -0.00000000000E+00 -0.25482204813E+03  0.25482204813E+03  0.00000000000E+00 0. -1.
         25    2    1    2    0    0  0.80562827792E+02 -0.26143334268E+03  0.91134967635E+03  0.95969846119E+03  0.12500056775E+03 0.  0.
          2    1    1    2  501    0  0.97668288083E+01 -0.92549863497E+02 -0.20253856895E+03  0.22289625410E+03  0.00000000000E+00 0. -1.
          1    1    1    2  502    0 -0.90329656600E+02  0.35398320618E+03  0.18429417518E+04  0.18788022401E+04  0.00000000000E+00 0. -1.
         22    1    3    3    0    0 -0.48933336639E+01 -0.76756162968E+02  0.43435011182E+03  0.44110709913E+03  0.00000000000E+00 0. -1.
         22    1    3    3    0    0  0.85456161456E+02 -0.18467717971E+03  0.47699956453E+03  0.51859136206E+03  0.00000000000E+00 0. -1.
</event>
<event>
 7    1  0.6103724E-006  0.6104919E+02  0.7818608E-02  0.1472431E+00
          2   -1    0    0  502    0  0.00000000000E+00  0.00000000000E+00  0.87475034499E+03  0.87475034499E+03  0.00000000000E+00 0. -1.
          1   -1    0    0  501    0 -0.00000000000E+00 -0.00000000000E+00 -0.47351669949E+03  0.47351669949E+03  0.00000000000E+00 0. -1.
         25    2    1    2    0    0 -0.58815022501E+01  0.28008752940E+02  0.50274482980E+02  0.13773866515E+03  0.12500133571E+03 0.  0.
          2    1    1    2  501    0 -0.12998558461E+02  0.31010874120E+02 -0.42789447985E+03  0.42921360967E+03  0.00000000000E+00 0. -1.
          1    1    1    2  502    0  0.18880060711E+02 -0.59019627060E+02  0.77885364236E+03  0.78131476966E+03  0.00000000000E+00 0. -1.
         22    1    3    3    0    0  0.39500740222E+02  0.21816244245E+02 -0.23518938597E+02  0.50886122507E+02  0.00000000000E+00 0.  1.
         22    1    3    3    0    0 -0.45382242472E+02  0.61925086954E+01  0.73793421576E+02  0.86852542644E+02  0.00000000000E+00 0.  1.
</event>
<event>
 7    1  0.6103724E-006  0.3230241E+02  0.7818608E-02  0.1604967E+00
          2   -1    0    0  502    0  0.00000000000E+00  0.00000000000E+00  0.77047658886E+01  0.77047658886E+01  0.00000000000E+00 0. -1.
          1   -1    0    0  501    0 -0.00000000000E+00 -0.00000000000E+00 -0.20266344762E+04  0.20266344762E+04  0.00000000000E+00 0. -1.
         25    2    1    2    0    0 -0.51035460511E+02  0.18345702140E+02 -0.14311578166E+04  0.14376295316E+04  0.12499916508E+03 0.  0.
          2    1    1    2  501    0  0.26683676372E+02  0.16470842585E+01 -0.53185895130E+03  0.53253044565E+03  0.00000000000E+00 0. -1.
          1    1    1    2  502    0  0.24351784138E+02 -0.19992786398E+02 -0.55912942472E+02  0.64179264833E+02  0.00000000000E+00 0. -1.
         22    1    3    3    0    0 -0.11306504714E+00 -0.50172519729E+02 -0.46063748845E+03  0.46336183517E+03  0.00000000000E+00 0. -1.
         22    1    3    3    0    0 -0.50922395464E+02  0.68518221868E+02 -0.97052032812E+03  0.97426769647E+03  0.00000000000E+00 0. -1.
</event>
<event>
 7    1  0.6103724E-006  0.6198593E+02  0.7818608E-02  0.1459170E+00
          2   -1    0    0  502    0  0.00000000000E+00  0.00000000000E+00  0.23791349362E+04  0.23791349362E+04  0.00000000000E+00 0. -1.
          1   -1    0    0  501    0 -0.00000000000E+00 -0.00000000000E+00 -0.19367503571E+03  0.19367503571E+03  0.00000000000E+00 0. -1.
         25    2    1    2    0    0 -0.36930619716E+02  0.25080741418E+02  0.22189222756E+03  0.25856028603E+03  0.12499738637E+03 0.  0.
          2    1    1    2  501    0  0.62568300885E+02  0.81045979985E+00 -0.16959784379E+03  0.18077300058E+03  0.00000000000E+00 0. -1.
          1    1    1    2  502    0 -0.25637681169E+02 -0.25891201218E+02  0.21331655167E+04  0.21334766853E+04  0.00000000000E+00 0. -1.
         22    1    3    3    0    0 -0.39916661749E+02  0.42194142815E+02  0.23152276060E+03  0.23869745338E+03  0.00000000000E+00 0. -1.
         22    1    3    3    0    0  0.29860420329E+01 -0.17113401396E+02 -0.96305330425E+01  0.19862832654E+02  0.00000000000E+00 0. -1.
</event>
<event>
 7    1  0.6103724E-006  0.2212292E+03  0.7818608E-02  0.1283895E+00
          2   -1    0    0  502    0  0.00000000000E+00  0.00000000000E+00  0.21553018739E+04  0.21553018739E+04  0.00000000000E+00 0. -1.
          1   -1    0    0  501    0 -0.00000000000E+00 -0.00000000000E+00 -0.81409452016E+03  0.81409452016E+03  0.00000000000E+00 0. -1.
         25    2    1    2    0    0  0.24519942203E+03 -0.64636695258E+02  0.67951295554E+02  0.29076308304E+03  0.12500053180E+03 0.  0.
          2    1    1    2  501    0 -0.21590826443E+03  0.32226389564E+02 -0.68548471013E+03  0.71940545359E+03  0.00000000000E+00 0. -1.
          1    1    1    2  502    0 -0.29291157596E+02  0.32410305694E+02  0.19587407683E+04  0.19592278574E+04  0.00000000000E+00 0. -1.
         22    1    3    3    0    0  0.15881052377E+03 -0.10010856209E+03  0.30717970134E+02  0.19022644493E+03  0.00000000000E+00 0. -1.
         22    1    3    3    0    0  0.86388898265E+02  0.35471866829E+02  0.37233325420E+02  0.10053663811E+03  0.00000000000E+00 0. -1.
</event>
<event>
 7    1  0.6103724E-006  0.3843262E+02  0.7818608E-02  0.1549734E+00
          2   -1    0    0  502    0  0.00000000000E+00  0.00000000000E+00  0.10852426538E+04  0.10852426538E+04  0.00000000000E+00 0. -1.
          1   -1    0    0  501    0 -0.00000000000E+00 -0.00000000000E+00 -0.25691855216E+02  0.25691855216E+02  0.00000000000E+00 0. -1.
         25    2    1    2    0    0  0.60573760487E+02 -0.13696009615E+02  0.40127607582E+03  0.42485804446E+03  0.12500043111E+03 0.  0.
          2    1    1    2  501    0 -0.36597837356E+02 -0.69533863479E+01  0.12159360749E+02  0.39186749478E+02  0.00000000000E+00 0. -1.
          1    1    1    2  502    0 -0.23975923131E+02  0.20649395963E+02  0.64611536202E+03  0.64688971508E+03  0.00000000000E+00 0. -1.
         22    1    3    3    0    0  0.23810988050E+02  0.49846405501E+02  0.25825206618E+03  0.26409421989E+03  0.00000000000E+00 0.  1.
         22    1    3    3    0    0  0.36762772437E+02 -0.63542415117E+02  0.14302400964E+03  0.16076382457E+03  0.00000000000E+00 0.  1.
</event>
<event>
 7    1  0.6103724E-006  0.8809483E+02  0.7818608E-02  0.1478145E+00
          2   -1    0    0  502    0  0.00000000000E+00  0.00000000000E+00  0.14550071952E+04  0.14550071952E+04  0.00000000000E+00 0. -1.
          1   -1    0    0  501    0 -0.00000000000E+00 -0.00000000000E+00 -0.39420467960E+03  0.39420467960E+03  0.00000000000E+00 0. -1.
         25    2    1    2    0    0 -0.76656743832E+02  0.30043446618E+02  0.13282701545E+03  0.20011854100E+03  0.12500219741E+03 0.  0.
          2    1    1    2  501    0 -0.11167549082E+02 -0.19387872977E+02 -0.35869141750E+03  0.35938855958E+03  0.00000000000E+00 0. -1.
          1    1    1    2  502    0  0.87824292914E+02 -0.10655573640E+02  0.12866669176E+04  0.12897047742E+04  0.00000000000E+00 0. -1.
         22    1    3    3    0    0 -0.44097482385E+02  0.16642402741E+02 -0.13968377633E+02  0.49159669398E+02  0.00000000000E+00 0.  1.
         22    1    3    3    0    0 -0.32559261448E+02  0.13401043877E+02  0.14679539309E+03  0.15095887160E+03  0.00000000000E+00 0.  1.
</event>
<event>
 7    1  0.6103724E-006  0.1498929E+03  0.7818608E-02  0.1412671E+00
          2   -1    0    0  502    0  0.00000000000E+00  0.00000000000E+00  0.11534665568E+04  0.11534665568E+04  0.00000000000E+00 0. -1.
          1   -1    0    0  501    0 -0.00000000000E+00 -0.00000000000E+00 -0.14110750421E+03  0.14110750421E+03  0.00000000000E+00 0. -1.
         25    2    1    2    0    0 -0.13522685142E+03 -0.28725264459E+02  0.15660366243E+03  0.24343628491E+03  0.12500030225E+03 0.  0.
          2    1    1    2  501    0 -0.84857160079E+01 -0.19617176977E+02 -0.90409009866E+02  0.92901184458E+02  0.00000000000E+00 0. -1.
          1    1    1    2  502    0  0.14371256742E+03  0.48342441436E+02  0.94616440004E+03  0.95823659165E+03  0.00000000000E+00 0. -1.
         22    1    3    3    0    0 -0.28160165877E+02  0.39086740203E+02  0.85447627496E+02  0.98092126323E+02  0.00000000000E+00 0.  1.
         22    1    3    3    0    0 -0.10706668554E+03 -0.67812004662E+02  0.71156034938E+02  0.14534415859E+03  0.00000000000E+00 0.  1.
</event>
<event>
 7    1  0.6103724E-006  0.4904209E+02  0.7818608E-02  0.1481704E+00
          2   -1    0    0  502    0  0.00000000000E+00  0.00000000000E+00  0.21144737208E+04  0.21144737208E+04  0.00000000000E+00 0. -1.
          1   -1    0    0  501    0 -0.00000000000E+00 -0.00000000000E+00 -0.16317436754E+03  0.16317436754E+03  0.00000000000E+00 0. -1.
         25    2    1    2    0    0 -0.13291771383E+01 -0.15439315213E+02  0.28574635202E+03  0.31227433704E+03  0.12499657880E+03 0.  0.
          2    1    1    2  501    0  0.35579763603E+02  0.34491773341E+02 -0.14559744977E+03  0.15379928278E+03  0.00000000000E+00 0. -1.
          1    1    1    2  502    0 -0.34250586464E+02 -0.19052458128E+02  0.18111504510E+04  0.18115744685E+04  0.00000000000E+00 0. -1.
         22    1    3    3    0    0 -0.37921481018E+02 -0.25191053416E+02  0.26541711358E+03  0.26929328264E+03  0.00000000000E+00 0. -1.
         22    1    3    3    0    0  0.36592303879E+02  0.97517382032E+01  0.20329238438E+02  0.42981054392E+02  0.00000000000E+00 0. -1.
</event>
<event>
 7    1  0.6103724E-006  0.1825447E+03  0.7818608E-02  0.1315954E+00
          2   -1    0    0  502    0  0.00000000000E+00  0.00000000000E+00  0.10159999433E+04  0.10159999433E+04  0.00000000000E+00 0. -1.
          1   -1    0    0  501    0 -0.00000000000E+00 -0.00000000000E+00 -0.14033772386E+04  0.14033772386E+04  0.00000000000E+00 0. -1.
         25    2    1    2    0    0  0.10016004088E+02  0.21691281183E+03 -0.47299810618E+03  0.53526357222E+03  0.12501357932E+03 0.  0.
          2    1    1    2  501    0  0.14572132657E+02 -0.36599913417E+02 -0.89040061833E+03  0.89127165434E+03  0.00000000000E+00 0. -1.
          1    1    1    2  502    0 -0.24588136745E+02 -0.18031289842E+03  0.97602142928E+03  0.99284195531E+03  0.00000000000E+00 0. -1.
         22    1    3    3    0    0  0.26763849737E+02  0.22292431881E+03 -0.46367336909E+03  0.51517428971E+03  0.00000000000E+00 0. -1.
         22    1    3    3    0    0 -0.16747845649E+02 -0.60115069754E+01 -0.93247370930E+01  0.20089282512E+02  0.00000000000E+00 0. -1.
</event>
<event>
 7    1  0.6103724E-006  0.3898642E+02  0.7818608E-02  0.1520500E+00
          2   -1    0    0  502    0  0.00000000000E+00  0.00000000000E+00  0.32881605178E+03  0.32881605178E+03  0.00000000000E+00 0. -1.
          1   -1    0    0  501    0 -0.00000000000E+00 -0.00000000000E+00 -0.34089141697E+03  0.34089141697E+03  0.00000000000E+00 0. -1.
         25    2    1    2    0    0  0.39528429296E+02  0.43573121070E+02  0.24841117959E+02  0.14036939138E+03  0.12500148516E+03 0.  0.
          2    1    1    2  501    0 -0.38437839071E+02 -0.58101615914E+01 -0.28032883861E+03  0.28301145420E+03  0.00000000000E+00 0. -1.
          1    1    1    2  502    0 -0.10905902253E+01 -0.37762959479E+02  0.24341235546E+03  0.24632662318E+03  0.00000000000E+00 0. -1.
         22    1    3    3    0    0  0.71722723648E+01 -0.29231817415E+02  0.48657736742E+02  0.57214648344E+02  0.00000000000E+00 0.  1.
         22    1    3    3    0    0  0.32356156932E+02  0.72804938485E+02 -0.23816618783E+02  0.83154743037E+02  0.00000000000E+00 0.  1.
</event>
<event>
 7    1  0.6103724E-006  0.6395333E+02  0.7818608E-02  0.1397677E+00
          2   -1    0    0  502    0  0.00000000000E+00  0.00000000000E+00  0.72937659594E+03  0.72937659594E+03  0.00000000000E+00 0. -1.
          1   -1    0    0  501    0 -0.00000000000E+00 -0.00000000000E+00 -0.42734144044E+03  0.42734144044E+03  0.00000000000E+00 0. -1.
         25    2    1    2    0    0 -0.44028271820E+01  0.11197517570E+02 -0.10007129891E+03  0.16057730786E+03  0.12500415051E+03 0.  0.
          2    1    1    2  501    0 -0.53794457775E+02  0.16811744332E+02 -0.29283251616E+03  0.29820690964E+03  0.00000000000E+00 0. -1.
          1    1    1    2  502    0  0.58197284957E+02 -0.28009261902E+02  0.69493897057E+03  0.69793381888E+03  0.00000000000E+00 0. -1.
         22    1    3    3    0    0  0.24149989353E+02 -0.42394536513E+02 -0.85005538310E+02  0.98012551519E+02  0.00000000000E+00 0. -1.
         22    1    3    3    0    0 -0.28552816535E+02  0.53592054084E+02 -0.15065760601E+02  0.62564756336E+02  0.00000000000E+00 0. -1.
</event>
<event>
 7    1  0.6661890E-006  0.7170586E+02  0.7818608E-02  0.1423639E+00
          2   -1    0    0  502    0  0.00000000000E+00  0.00000000000E+00  0.30292129931E+04  0.30292129931E+04  0.00000000000E+00 0. -1.
          1   -1    0    0  501    0 -0.00000000000E+00 -0.00000000000E+00 -0.21063915087E+04  0.21063915087E+04  0.00000000000E+00 0. -1.
         25    2    1    2    0    0  0.73924587225E+02  0.36759519556E+02 -0.73893263867E+03  0.75396417543E+03  0.12499770583E+03 0.  0.
          2    1    1    2  501    0 -0.39741575159E+02 -0.59499996989E+02 -0.13588623528E+04  0.13607448462E+04  0.00000000000E+00 0. -1.
          1    1    1    2  502    0 -0.34183012066E+02  0.22740477433E+02  0.30206164759E+04  0.30208954802E+04  0.00000000000E+00 0. -1.
         22    1    3    3    0    0  0.87005534689E+01  0.64496059894E+02 -0.51466077622E+03  0.51875924662E+03  0.00000000000E+00 0.  1.
         22    1    3    3    0    0  0.65224033757E+02 -0.27736540338E+02 -0.22427186245E+03  0.23520492881E+03  0.00000000000E+00 0.  1.
</event>
<event>
 7    1  0.6103724E-006  0.1510735E+03  0.7818608E-02  0.1221478E+00
          2   -1    0    0  502    0  0.00000000000E+00  0.00000000000E+00  0.30235171778E+03  0.30235171778E+03  0.00000000000E+00 0. -1.
          1   -1    0    0  501    0 -0.00000000000E+00 -0.00000000000E+00 -0.66444024319E+03  0.66444024319E+03  0.00000000000E+00 0. -1.
         25    2    1    2    0    0 -0.15939506878E+03  0.51578647463E+02 -0.20065933059E+03  0.28975062304E+03  0.12499644703E+03 0.  0.
          2    1    1    2  501    0  0.76525398951E+02 -0.13705955298E+03 -0.38940263053E+03  0.41985219591E+03  0.00000000000E+00 0. -1.
          1    1    1    2  502    0  0.82869669833E+02  0.85480905513E+02  0.22797343571E+03  0.25718914203E+03  0.00000000000E+00 0. -1.
         22    1    3    3    0    0 -0.13224137880E+03  0.43014018165E+02 -0.69358505391E+02  0.15539816696E+03  0.00000000000E+00 0.  1.
         22    1    3    3    0    0 -0.27153689988E+02  0.85646292983E+01 -0.13130082520E+03  0.13435245608E+03  0.00000000000E+00 0.  1.
</event>
<event>
 7    1  0.6103724E-006  0.2776569E+03  0.7818608E-02  0.1192868E+00
          2   -1    0    0  502    0  0.00000000000E+00  0.00000000000E+00  0.27547046191E+04  0.27547046191E+04  0.00000000000E+00 0. -1.
          1   -1    0    0  501    0 -0.00000000000E+00 -0.00000000000E+00 -0.68689701892E+02  0.68689701892E+02  0.00000000000E+00 0. -1.
         25    2    1    2    0    0  0.26671620932E+03  0.10495390722E+03  0.13041490043E+04  0.13411123647E+04  0.12499956119E+03 0.  0.
          2    1    1    2  501    0 -0.21512395366E+03 -0.17630993031E+03  0.35185776380E+03  0.44851688141E+03  0.00000000000E+00 0. -1.
          1    1    1    2  502    0 -0.51592255656E+02  0.71356023090E+02  0.10300081491E+04  0.10337650749E+04  0.00000000000E+00 0. -1.
         22    1    3    3    0    0  0.19893544173E+02  0.47235163347E+02  0.12643362929E+03  0.13642718341E+03  0.00000000000E+00 0.  1.
         22    1    3    3    0    0  0.24682266514E+03  0.57718743877E+02  0.11777153750E+04  0.12046851813E+04  0.00000000000E+00 0.  1.
</event>
<event>
 7    1  0.6103724E-006  0.6004158E+02  0.7818608E-02  0.1418466E+00
          2   -1    0    0  502    0  0.00000000000E+00  0.00000000000E+00  0.11498652287E+03  0.11498652287E+03  0.00000000000E+00 0. -1.
          1   -1    0    0  501    0 -0.00000000000E+00 -0.00000000000E+00 -0.12134292502E+04  0.12134292502E+04  0.00000000000E+00 0. -1.
         25    2    1    2    0    0  0.26217602108E+02  0.94050276785E+02 -0.41852784227E+03  0.44757482321E+03  0.12499940156E+03 0.  0.
          2    1    1    2  501    0 -0.37246334556E+02 -0.44237458735E+02 -0.77274969906E+03  0.77491053651E+03  0.00000000000E+00 0. -1.
          1    1    1    2  502    0  0.11028732448E+02 -0.49812818050E+02  0.92834814000E+02  0.10593041335E+03  0.00000000000E+00 0. -1.
         22    1    3    3    0    0  0.29782452510E+02  0.57395046708E+02 -0.63452632457E+02  0.90594825624E+02  0.00000000000E+00 0. -1.
         22    1    3    3    0    0 -0.35648504012E+01  0.36655230077E+02 -0.35507520981E+03  0.35697999758E+03  0.00000000000E+00 0. -1.
</event>
<event>
 7    1  0.6103724E-006  0.7442563E+02  0.7818608E-02  0.1424716E+00
          2   -1    0    0  502    0  0.00000000000E+00  0.00000000000E+00  0.44785510351E+03  0.44785510351E+03  0.00000000000E+00 0. -1.
          1   -1    0    0  501    0 -0.00000000000E+00 -0.00000000000E+00 -0.37188538306E+03  0.37188538306E+03  0.00000000000E+00 0. -1.
         25    2    1    2    0    0  0.33616288472E+02 -0.15153769542E+02  0.66792516238E+02  0.14644204058E+03  0.12499735774E+03 0.  0.
          2    1    1    2  501    0 -0.71079437262E+02  0.26800084855E+02 -0.32655894359E+03  0.33527790650E+03  0.00000000000E+00 0. -1.
          1    1    1    2  502    0  0.37463148791E+02 -0.11646315312E+02  0.33573614781E+03  0.33802053950E+03  0.00000000000E+00 0. -1.
         22    1    3    3    0    0  0.66883932010E+02  0.19962895556E+02  0.79227199607E+01  0.70247754780E+02  0.00000000000E+00 0.  1.
         22    1    3    3    0    0 -0.33267643539E+02 -0.35116665098E+02  0.58869796277E+02  0.76194285796E+02  0.00000000000E+00 0.  1.
</event>
<event>
 7    1  0.6103724E-006  0.1969229E+03  0.7818608E-02  0.1251403E+00
          2   -1    0    0  502    0  0.00000000000E+00  0.00000000000E+00  0.55751813117E+03  0.55751813117E+03  0.00000000000E+00 0. -1.
          1   -1    0    0  501    0 -0.00000000000E+00 -0.00000000000E+00 -0.12527094727E+04  0.12527094727E+04  0.00000000000E+00 0. -1.
         25    2    1    2    0    0  0.16377892488E+03  0.29042365038E+02 -0.19294521798E+03  0.28375639319E+03  0.12499135301E+03 0.  0.
          2    1    1    2  501    0 -0.20383033422E+03  0.25014613618E+02 -0.10016861247E+04  0.10225202338E+04  0.00000000000E+00 0. -1.
          1    1    1    2  502    0  0.40051409338E+02 -0.54056978656E+02  0.49944000119E+03  0.50395097690E+03  0.00000000000E+00 0. -1.
         22    1    3    3    0    0  0.12956203190E+03 -0.12712627877E+00 -0.58807939170E+02  0.14228390626E+03  0.00000000000E+00 0.  1.
         22    1    3    3    0    0  0.34216892983E+02  0.29169491317E+02 -0.13413727881E+03  0.14147248692E+03  0.00000000000E+00 0.  1.
</event>
<event>
 7    1  0.6103724E-006  0.9214257E+02  0.7818608E-02  0.1423891E+00
          2   -1    0    0  502    0  0.00000000000E+00  0.00000000000E+00  0.13923312491E+03  0.13923312491E+03  0.00000000000E+00 0. -1.
          1   -1    0    0  501    0 -0.00000000000E+00 -0.00000000000E+00 -0.99992153158E+03  0.99992153158E+03  0.00000000000E+00 0. -1.
         25    2    1    2    0    0  0.71575083902E+02  0.52309807271E+02 -0.25266550582E+03  0.29550932518E+03  0.12500637929E+03 0.  0.
          2    1    1    2  501    0 -0.89598206565E+02 -0.26003001275E+02 -0.72061263087E+03  0.72662683577E+03  0.00000000000E+00 0. -1.
          1    1    1    2  502    0  0.18023122663E+02 -0.26306805996E+02  0.11258973002E+03  0.11701849554E+03  0.00000000000E+00 0. -1.
         22    1    3    3    0    0 -0.33068905778E+02  0.28615761128E+02 -0.97534147776E+02  0.10688930862E+03  0.00000000000E+00 0.  1.
         22    1    3    3    0    0  0.10464398968E+03  0.23694046142E+02 -0.15513135805E+03  0.18862001656E+03  0.00000000000E+00 0.  1.
</event>
<event>
 7    1  0.6103724E-006  0.1427558E+03  0.7818608E-02  0.1351426E+00
          2   -1    0    0  502    0  0.00000000000E+00  0.00000000000E+00  0.42417325801E+04  0.42417325801E+04  0.00000000000E+00 0. -1.
          1   -1    0    0  501    0 -0.00000000000E+00 -0.00000000000E+00 -0.11187594264E+03  0.11187594264E+03  0.00000000000E+00 0. -1.
         25    2    1    2    0    0 -0.47817871710E+02  0.14713499609E+03  0.14329987473E+04  0.14467366475E+04  0.12500504591E+03 0.  0.
          2    1    1    2  501    0  0.36246809670E+02 -0.70960261244E+01 -0.99939827801E+02  0.10654648741E+03  0.00000000000E+00 0. -1.
          1    1    1    2  502    0  0.11571062040E+02 -0.14003896996E+03  0.27967977179E+04  0.28003253878E+04  0.00000000000E+00 0. -1.
         22    1    3    3    0    0  0.25232424157E+02  0.68102571476E+02  0.90332634981E+03  0.90624120947E+03  0.00000000000E+00 0. -1.
         22    1    3    3    0    0 -0.73050295867E+02  0.79032424610E+02  0.52967239753E+03  0.54049543807E+03  0.00000000000E+00 0. -1.
</event>
<event>
 7    1  0.6103724E-006  0.1210351E+03  0.7818608E-02  0.1259193E+00
          2   -1    0    0  502    0  0.00000000000E+00  0.00000000000E+00  0.32037273846E+04  0.32037273846E+04  0.00000000000E+00 0. -1.
          1   -1    0    0  501    0 -0.00000000000E+00 -0.00000000000E+00 -0.13675178710E+03  0.13675178710E+03  0.00000000000E+00 0. -1.
         25    2    1    2    0    0 -0.85613937209E+02 -0.69426864949E+02  0.10115171653E+04  0.10251525085E+04  0.12498341543E+03 0.  0.
          2    1    1    2  501    0  0.78781325184E+02 -0.63732914506E+02 -0.10780749030E+03  0.14795552221E+03  0.00000000000E+00 0. -1.
          1    1    1    2  502    0  0.68326120249E+01  0.13315977946E+03  0.21632659224E+04  0.21673711409E+04  0.00000000000E+00 0. -1.
         22    1    3    3    0    0 -0.78736530578E+02 -0.98987258150E+02  0.92188825495E+03  0.93052451506E+03  0.00000000000E+00 0. -1.
         22    1    3    3    0    0 -0.68774066310E+01  0.29560393201E+02  0.89628910400E+02  0.94627993467E+02  0.00000000000E+00 0. -1.
</event>
<event>
 7    1  0.6103724E-006  0.5165437E+02  0.7818608E-02  0.1455133E+00
          2   -1    0    0  502    0  0.00000000000E+00  0.00000000000E+00  0.63093805511E+03  0.63093805511E+03  0.00000000000E+00 0. -1.
          1   -1    0    0  501    0 -0.00000000000E+00 -0.00000000000E+00 -0.94448588982E+02  0.94448588982E+02  0.00000000000E+00 0. -1.
         25    2    1    2    0    0  0.66133049123E+01 -0.34789638709E+02  0.55469778702E+02  0.14126767616E+03  0.12500242084E+03 0.  0.
          2    1    1    2  501    0  0.42329402287E+02  0.15364073172E+02 -0.40128742701E+02  0.60317070827E+02  0.00000000000E+00 0. -1.
          1    1    1    2  502    0 -0.48942707200E+02  0.19425565537E+02  0.52114843013E+03  0.52380189711E+03  0.00000000000E+00 0. -1.
         22    1    3    3    0    0  0.17622750811E+02  0.42398915134E+02  0.58765495072E+00  0.45919219169E+02  0.00000000000E+00 0.  1.
         22    1    3    3    0    0 -0.11009445899E+02 -0.77188553843E+02  0.54882123751E+02  0.95348456993E+02  0.00000000000E+00 0.  1.
</event>
<event>
 7    1  0.6103724E-006  0.1339748E+03  0.7818608E-02  0.1307164E+00
          2   -1    0    0  502    0  0.00000000000E+00  0.00000000000E+00  0.56767195449E+03  0.56767195449E+03  0.00000000000E+00 0. -1.
          1   -1    0    0  501    0 -0.00000000000E+00 -0.00000000000E+00 -0.11234332287E+03  0.11234332287E+03  0.00000000000E+00 0. -1.
         25    2    1    2    0    0 -0.71653116121E+02 -0.15444024902E+03  0.12262716882E+03  0.24422812558E+03  0.12499598083E+03 0.  0.
          2    1    1    2  501    0 -0.11559604301E+02  0.56960148079E+02 -0.19249319413E+02  0.61225968499E+02  0.00000000000E+00 0. -1.
          1    1    1    2  502    0  0.83212720423E+02  0.97480100937E+02  0.35195078221E+03  0.37456118328E+03  0.00000000000E+00 0. -1.
         22    1    3    3    0    0 -0.18563305991E+02  0.11364696800E+02 -0.11349848442E+02  0.24547336359E+02  0.00000000000E+00 0.  1.
         22    1    3    3    0    0 -0.53089810131E+02 -0.16580494582E+03  0.13397701726E+03  0.21968078922E+03  0.00000000000E+00 0.  1.
</event>
<event>
 7    1  0.6103724E-006  0.7839577E+02  0.7818608E-02  0.1395665E+00
          2   -1    0    0  502    0  0.00000000000E+00  0.00000000000E+00  0.21311468683E+03  0.21311468683E+03  0.00000000000E+00 0. -1.
          1   -1    0    0  501    0 -0.00000000000E+00 -0.00000000000E+00 -0.84599532739E+03  0.84599532739E+03  0.00000000000E+00 0. -1.
         25    2    1    2    0    0 -0.19289664319E+02 -0.77776551889E+02  0.12420402875E+03  0.19357849599E+03  0.12499884070E+03 0.  0.
          2    1    1    2  501    0  0.58511945616E+02  0.52393194707E+02 -0.79894847722E+03  0.80279970346E+03  0.00000000000E+00 0. -1.
          1    1    1    2  502    0 -0.39222281297E+02  0.25383357183E+02  0.41863807907E+02  0.62731814771E+02  0.00000000000E+00 0. -1.
         22    1    3    3    0    0  0.33233974653E+02 -0.73730207097E+00 -0.56475990932E+01  0.33718482485E+02  0.00000000000E+00 0. -1.
         22    1    3    3    0    0 -0.52523638972E+02 -0.77039249819E+02  0.12985162784E+03  0.15986001350E+03  0.00000000000E+00 0. -1.
</event>
<event>
 7    1  0.6103724E-006  0.5341621E+02  0.7818608E-02  0.1450939E+00
          2   -1    0    0  502    0  0.00000000000E+00  0.00000000000E+00  0.22420141067E+03  0.22420141067E+03  0.00000000000E+00 0. -1.
          1   -1    0    0  501    0 -0.00000000000E+00 -0.00000000000E+00 -0.17084401535E+04  0.17084401535E+04  0.00000000000E+00 0. -1.
         25    2    1    2    0    0 -0.10521614560E+02 -0.26236689899E+02 -0.42751113806E+02  0.13509436641E+03  0.12499504724E+03 0.  0.
          2    1    1    2  501    0  0.52688509248E+02  0.10791751486E+02 -0.16162311638E+04  0.16171257576E+04  0.00000000000E+00 0. -1.
          1    1    1    2  502    0 -0.42166894688E+02  0.15444938413E+02  0.17474353479E+03  0.18042144019E+03  0.00000000000E+00 0. -1.
         22    1    3    3    0    0  0.31304067929E+02  0.31459809740E+02 -0.45789149691E+02  0.63767629148E+02  0.00000000000E+00 0.  1.
         22    1    3    3    0    0 -0.41825682488E+02 -0.57696499639E+02  0.30380358848E+01  0.71326737261E+02  0.00000000000E+00 0.  1.
</event>
<event>
 7    1  0.6153667E-006  0.5597688E+02  0.7818608E-02  0.1446888E+00
          2   -1    0    0  502    0  0.00000000000E+00  0.00000000000E+00  0.34676247007E+04  0.34676247007E+04  0.00000000000E+00 0. -1.
          1   -1    0    0  501    0 -0.00000000000E+00 -0.00000000000E+00 -0.45619380134E+03  0.45619380134E+03  0.00000000000E+00 0. -1.
         25    2    1    2    0    0  0.38548414718E+02  0.49350001253E+02 -0.14169265621E+03  0.19905068711E+03  0.12499185699E+03 0.  0.
          2    1    1    2  501    0  0.16791073746E+02 -0.40835136620E+02 -0.28388762993E+03  0.28730060036E+03  0.00000000000E+00 0. -1.
          1    1    1    2  502    0 -0.55339488463E+02 -0.85148646331E+01  0.34370111856E+04  0.34374672146E+04  0.00000000000E+00 0. -1.
         22    1    3    3    0    0 -0.38015785490E+02 -0.11095737841E+02 -0.24484719350E+02  0.46559819869E+02  0.00000000000E+00 0.  1.
         22    1    3    3    0    0  0.76564200207E+02  0.60445739094E+02 -0.11720793686E+03  0.15249086724E+03  0.00000000000E+00 0.  1.
</event>
<event>
 7    1  0.6103724E-006  0.1041576E+03  0.7818608E-02  0.1409173E+00
          2   -1    0    0  502    0  0.00000000000E+00  0.00000000000E+00  0.23252146877E+04  0.23252146877E+04  0.00000000000E+00 0. -1.
          1   -1    0    0  501    0 -0.00000000000E+00 -0.00000000000E+00 -0.77813810924E+02  0.77813810924E+02  0.00000000000E+00 0. -1.
         25    2    1    2    0    0 -0.96980639055E+02 -0.21611849350E+02  0.31162425142E+03  0.35015256468E+03  0.12499931238E+03 0.  0.
          2    1    1    2  501    0 -0.74346350883E+01  0.30722271483E+02 -0.52800368405E+02  0.61538692444E+02  0.00000000000E+00 0. -1.
          1    1    1    2  502    0  0.10441527414E+03 -0.91104221331E+01  0.19885769937E+04  0.19913372414E+04  0.00000000000E+00 0. -1.
         22    1    3    3    0    0 -0.49664789334E+02  0.31591591760E+02  0.24727032005E+03  0.25417952543E+03  0.00000000000E+00 0. -1.
         22    1    3    3    0    0 -0.47315849721E+02 -0.53203441110E+02  0.64353931370E+02  0.95973039253E+02  0.00000000000E+00 0. -1.
</event>
<event>
 7    1  0.6103724E-006  0.6469594E+02  0.7818608E-02  0.1465350E+00
          2   -1    0    0  502    0  0.00000000000E+00  0.00000000000E+00  0.44172967368E+03  0.44172967368E+03  0.00000000000E+00 0. -1.
          1   -1    0    0  501    0 -0.00000000000E+00 -0.00000000000E+00 -0.93780946241E+03  0.93780946241E+03  0.00000000000E+00 0. -1.
         25    2    1    2    0    0  0.48240032795E+02 -0.62750904304E+02  0.35958355762E+02  0.15225989050E+03  0.12500117660E+03 0.  0.
          2    1    1    2  501    0 -0.33382340694E+02  0.19954269442E+00 -0.87636552549E+03  0.87700111445E+03  0.00000000000E+00 0. -1.
          1    1    1    2  502    0 -0.14857692101E+02  0.62551361610E+02  0.34432738099E+03  0.35027813114E+03  0.00000000000E+00 0. -1.
         22    1    3    3    0    0 -0.26783386708E+01 -0.80451197713E+02 -0.10394864557E+02  0.81164166482E+02  0.00000000000E+00 0. -1.
         22    1    3    3    0    0  0.50918371466E+02  0.17700293409E+02  0.46353220319E+02  0.71095724017E+02  0.00000000000E+00 0. -1.
</event>
<event>
 7    1  0.6103724E-006  0.7538592E+02  0.7818608E-02  0.1372980E+00
          2   -1    0    0  502    0  0.00000000000E+00  0.00000000000E+00  0.11302083402E+04  0.11302083402E+04  0.00000000000E+00 0. -1.
          1   -1    0    0  501    0 -0.00000000000E+00 -0.00000000000E+00 -0.46155318090E+03  0.46155318090E+03  0.00000000000E+00 0. -1.
         25    2    1    2    0    0 -0.17966873081E+02 -0.72601506201E+01  0.11956063462E+03  0.17405335765E+03  0.12499723055E+03 0.  0.
          2    1    1    2  501    0  0.59950406059E+02  0.47840078268E+02 -0.43004402829E+03  0.43683016213E+03  0.00000000000E+00 0. -1.
          1    1    1    2  502    0 -0.41983532978E+02 -0.40579927648E+02  0.97913855293E+03  0.98087800128E+03  0.00000000000E+00 0. -1.
         22    1    3    3    0    0 -0.38720175567E+01  0.58715803286E+02  0.51051355687E+02  0.77902368340E+02  0.00000000000E+00 0. -1.
         22    1    3    3    0    0 -0.14094855524E+02 -0.65975953906E+02  0.68509278935E+02  0.96150989314E+02  0.00000000000E+00 0. -1.
</event>
<event>
 7    1  0.6103724E-006  0.2140716E+03  0.7818608E-02  0.1272179E+00
          2   -1    0    0  502    0  0.00000000000E+00  0.00000000000E+00  0.36768489397E+02  0.36768489397E+02  0.00000000000E+00 0. -1.
          1   -1    0    0  501    0 -0.00000000000E+00 -0.00000000000E+00 -0.47857421280E+04  0.47857421280E+04  0.00000000000E+00 0. -1.
         25    2    1    2    0    0  0.21812323343E+03 -0.13676946645E+02 -0.25328377781E+04  0.25453206373E+04  0.12500053076E+03 0.  0.
          2    1    1    2  501    0 -0.13244904324E+02 -0.48719383517E+02 -0.18664360568E+04  0.18671187857E+04  0.00000000000E+00 0. -1.
          1    1    1    2  502    0 -0.20487832911E+03  0.62396330162E+02 -0.34969980372E+03  0.41007119441E+03  0.00000000000E+00 0. -1.
         22    1    3    3    0    0  0.80906746036E+02 -0.13281879936E+02 -0.16353364042E+04  0.16373904436E+04  0.00000000000E+00 0. -1.
         22    1    3    3    0    0  0.13721648740E+03 -0.39506670966E+00 -0.89750137391E+03  0.90793019372E+03  0.00000000000E+00 0. -1.
</event>
<event>
 7    1  0.6103724E-006  0.4761682E+02  0.7818608E-02  0.1479831E+00
          2   -1    0    0  502    0  0.00000000000E+00  0.00000000000E+00  0.87384925256E+03  0.87384925256E+03  0.00000000000E+00 0. -1.
          1   -1    0    0  501    0 -0.00000000000E+00 -0.00000000000E+00 -0.11596583829E+03  0.11596583829E+03  0.00000000000E+00 0. -1.
         25    2    1    2    0    0 -0.11102846585E+02  0.11676737604E+02  0.13497775532E+03  0.18466922829E+03  0.12499644012E+03 0.  0.
          2    1    1    2  501    0  0.18013341602E+02  0.36723069401E+02 -0.85644623892E+02  0.94910831329E+02  0.00000000000E+00 0. -1.
          1    1    1    2  502    0 -0.69104950170E+01 -0.48399807004E+02  0.70855028285E+03  0.71023503123E+03  0.00000000000E+00 0. -1.
         22    1    3    3    0    0 -0.43231528914E+02  0.26442480701E+02  0.61166792243E+01  0.51044917892E+02  0.00000000000E+00 0. -1.
         22    1    3    3    0    0  0.32128682329E+02 -0.14765743097E+02  0.12886107609E+03  0.13362431040E+03  0.00000000000E+00 0. -1.
</event>
<event>
 7    1  0.6103724E-006  0.5969409E+02  0.7818608E-02  0.1515708E+00
          2   -1    0    0  502    0  0.00000000000E+00  0.00000000000E+00  0.87363765505E+03  0.87363765505E+03  0.00000000000E+00 0. -1.
          1   -1    0    0  501    0 -0.00000000000E+00 -0.00000000000E+00 -0.13425468620E+04  0.13425468620E+04  0.00000000000E+00 0. -1.
         25    2    1    2    0    0  0.41688147799E+02 -0.29131393688E+02 -0.95733520280E+02  0.16545983977E+03  0.12500204761E+03 0.  0.
          2    1    1    2  501    0  0.17214659882E+02  0.18783690125E+02 -0.12107499589E+04  0.12110180158E+04  0.00000000000E+00 0. -1.
          1    1    1    2  502    0 -0.58902807681E+02  0.10347703564E+02  0.83757427228E+03  0.83970666146E+03  0.00000000000E+00 0. -1.
         22    1    3    3    0    0 -0.18180057658E+02 -0.56743097481E+02 -0.15411284005E+02  0.61545115833E+02  0.00000000000E+00 0.  1.
         22    1    3    3    0    0  0.59868205457E+02  0.27611703793E+02 -0.80322236275E+02  0.10391472394E+03  0.00000000000E+00 0.  1.
</event>
<event>
 7    1  0.6103724E-006  0.1638766E+03  0.7818608E-02  0.1326330E+00
          2   -1    0    0  502    0  0.00000000000E+00  0.00000000000E+00  0.14692948956E+04  0.14692948956E+04  0.00000000000E+00 0. -1.
          1   -1    0    0  501    0 -0.00000000000E+00 -0.00000000000E+00 -0.13830324292E+03  0.13830324292E+03  0.00000000000E+00 0. -1.
         25    2    1    2    0    0 -0.81744079520E+02  0.16937789395E+03  0.86956779499E+03  0.89840839341E+03  0.12497410042E+03 0.  0.
          2    1    1    2  501    0  0.17102719395E+02 -0.36163038579E+02 -0.11096687269E+03  0.11795726007E+03  0.00000000000E+00 0. -1.
          1    1    1    2  502    0  0.64641360125E+02 -0.13321485537E+03  0.57239073034E+03  0.59123248500E+03  0.00000000000E+00 0. -1.
         22    1    3    3    0    0 -0.22012147013E+02 -0.16095594497E+02  0.63203689025E+02  0.68835376695E+02  0.00000000000E+00 0. -1.
         22    1    3    3    0    0 -0.59731932507E+02  0.18547348845E+03  0.80636410596E+03  0.82957301672E+03  0.00000000000E+00 0. -1.
</event>
<event>
 7    1  0.6103724E-006  0.4922025E+02  0.7818608E-02  0.1451811E+00
          2   -1    0    0  502    0  0.00000000000E+00  0.00000000000E+00  0.21811453382E+03  0.21811453382E+03  0.00000000000E+00 0. -1.
          1   -1    0    0  501    0 -0.00000000000E+00 -0.00000000000E+00 -0.10187647019E+03  0.10187647019E+03  0.00000000000E+00 0. -1.
         25    2    1    2    0    0 -0.81141955508E+01 -0.18121188455E+01  0.81899860628E+02  0.14967487918E+03  0.12500343333E+03 0.  0.
          2    1    1    2  501    0  0.43827785836E+02 -0.30889042737E+02 -0.49838978070E+02  0.73204723260E+02  0.00000000000E+00 0. -1.
          1    1    1    2  502    0 -0.35713590285E+02  0.32701161582E+02  0.84177181076E+02  0.97111401564E+02  0.00000000000E+00 0. -1.
         22    1    3    3    0    0  0.22501302215E+02  0.55585963684E+02  0.34481771262E+02  0.69174420919E+02  0.00000000000E+00 0.  1.
         22    1    3    3    0    0 -0.30615497766E+02 -0.57398082529E+02  0.47418089365E+02  0.80500458263E+02  0.00000000000E+00 0.  1.
</event>
<event>
 7    1  0.6103724E-006  0.9364357E+02  0.7818608E-02  0.1339885E+00
          2   -1    0    0  502    0  0.00000000000E+00  0.00000000000E+00  0.44082501485E+03  0.44082501485E+03  0.00000000000E+00 0. -1.
          1   -1    0    0  501    0 -0.00000000000E+00 -0.00000000000E+00 -0.10032223391E+03  0.10032223391E+03  0.00000000000E+00 0. -1.
         25    2    1    2    0    0 -0.68305441140E+02 -0.98523876296E+01  0.38566044418E+02  0.14790375586E+03  0.12500191352E+03 0.  0.
          2    1    1    2  501    0  0.10201158787E+03  0.62094966681E+02  0.42972116671E+02  0.12692025748E+03  0.00000000000E+00 0. -1.
          1    1    1    2  502    0 -0.33706146734E+02 -0.52242579051E+02  0.25896461985E+03  0.26632323542E+03  0.00000000000E+00 0. -1.
         22    1    3    3    0    0 -0.10446667823E+03 -0.16100943337E+02  0.33357416307E+02  0.11083882199E+03  0.00000000000E+00 0. -1.
         22    1    3    3    0    0  0.36161237091E+02  0.62485557069E+01  0.52086281109E+01  0.37064933875E+02  0.00000000000E+00 0. -1.
</event>
<event>
 7    1  0.6103724E-006  0.5657711E+02  0.7818608E-02  0.1443211E+00
          2   -1    0    0  502    0  0.00000000000E+00  0.00000000000E+00  0.23934076409E+04  0.23934076409E+04  0.00000000000E+00 0. -1.
          1   -1    0    0  501    0 -0.00000000000E+00 -0.00000000000E+00 -0.29824127306E+04  0.29824127306E+04  0.00000000000E+00 0. -1.
         25    2    1    2    0    0 -0.44818513023E+02  0.74308464115E+02 -0.23465657849E+03  0.27967712505E+03  0.12500055000E+03 0.  0.
          2    1    1    2  501    0 -0.33999214070E+01 -0.44763356584E+02 -0.27247237480E+04  0.27250935434E+04  0.00000000000E+00 0. -1.
          1    1    1    2  502    0  0.48218434430E+02 -0.29545107531E+02  0.23703752368E+04  0.23710497030E+04  0.00000000000E+00 0. -1.
         22    1    3    3    0    0  0.12252960469E+02  0.57639257105E+02 -0.29150712631E+02  0.65743311803E+02  0.00000000000E+00 0.  1.
         22    1    3    3    0    0 -0.57071473492E+02  0.16669207010E+02 -0.20550586586E+03  0.21393381325E+03  0.00000000000E+00 0.  1.
</event>
<event>
 7    1  0.6103724E-006  0.5979763E+02  0.7818608E-02  0.1436530E+00
          2   -1    0    0  502    0  0.00000000000E+00  0.00000000000E+00  0.67319477032E+02  0.67319477032E+02  0.00000000000E+00 0. -1.
          1   -1    0    0  501    0 -0.00000000000E+00 -0.00000000000E+00 -0.30278598853E+03  0.30278598853E+03  0.00000000000E+00 0. -1.
         25    2    1    2    0    0 -0.49553655001E+02 -0.33219076291E+02 -0.18102573146E+03  0.22793517164E+03  0.12500022106E+03 0.  0.
          2    1    1    2  501    0  0.64991086166E+02 -0.86767089489E+01 -0.69021637361E+02  0.95200383314E+02  0.00000000000E+00 0. -1.
          1    1    1    2  502    0 -0.15437431165E+02  0.41895785240E+02  0.14580857328E+02  0.46969910605E+02  0.00000000000E+00 0. -1.
         22    1    3    3    0    0 -0.23851196844E+02  0.41448505535E+02 -0.11658407572E+03  0.12601073332E+03  0.00000000000E+00 0.  1.
         22    1    3    3    0    0 -0.25702458157E+02 -0.74667581826E+02 -0.64441655747E+02  0.10192443832E+03  0.00000000000E+00 0.  1.
</event>
<event>
 7    1  0.6103724E-006  0.1331145E+03  0.7818608E-02  0.1415447E+00
          2   -1    0    0  502    0  0.00000000000E+00  0.00000000000E+00  0.51848640547E+03  0.51848640547E+03  0.00000000000E+00 0. -1.
          1   -1    0    0  501    0 -0.00000000000E+00 -0.00000000000E+00 -0.59769215514E+03  0.59769215514E+03  0.00000000000E+00 0. -1.
         25    2    1    2    0    0  0.65470130903E+00  0.11391287003E+03  0.34671227949E+03  0.38576035129E+03  0.12500029315E+03 0.  0.
          2    1    1    2  501    0  0.13333045318E+02 -0.13286529498E+03 -0.56948541987E+03  0.58493127814E+03  0.00000000000E+00 0. -1.
          1    1    1    2  502    0 -0.13987746627E+02  0.18952424946E+02  0.14356739071E+03  0.14548693118E+03  0.00000000000E+00 0. -1.
         22    1    3    3    0    0 -0.26702666244E+01 -0.23847408708E+02  0.10328424899E+03  0.10603520791E+03  0.00000000000E+00 0. -1.
         22    1    3    3    0    0  0.33249679334E+01  0.13776027874E+03  0.24342803050E+03  0.27972514339E+03  0.00000000000E+00 0. -1.
</event>
<event>
 7    1  0.6103724E-006  0.8461841E+02  0.7818608E-02  0.1456429E+00
          2   -1    0    0  502    0  0.00000000000E+00  0.00000000000E+00  0.19560988387E+04  0.19560988387E+04  0.00000000000E+00 0. -1.
          1   -1    0    0  501    0 -0.00000000000E+00 -0.00000000000E+00 -0.46421151753E+02  0.46421151753E+02  0.00000000000E+00 0. -1.
         25    2    1    2    0    0 -0.97030486976E+02  0.14116795427E+02  0.84067283103E+03  0.85555216586E+03  0.12499800143E+03 0.  0.
          2    1    1    2  501    0  0.77343603503E+02 -0.32928686609E+02  0.67152358811E+01  0.84329270112E+02  0.00000000000E+00 0. -1.
          1    1    1    2  502    0  0.19686883473E+02  0.18811891182E+02  0.10622896200E+04  0.10626385545E+04  0.00000000000E+00 0. -1.
         22    1    3    3    0    0 -0.12154863735E+03  0.22151439204E+01  0.77455776656E+03  0.78403999378E+03  0.00000000000E+00 0. -1.
         22    1    3    3    0    0  0.24518150372E+02  0.11901651506E+02  0.66115064470E+02  0.71512172083E+02  0.00000000000E+00 0. -1.
</event>
<event>
 7    1  0.6103724E-006  0.1149265E+03  0.7818608E-02  0.1284388E+00
          2   -1    0    0  502    0  0.00000000000E+00  0.00000000000E+00  0.35065767519E+03  0.35065767519E+03  0.00000000000E+00 0. -1.
          1   -1    0    0  501    0 -0.00000000000E+00 -0.00000000000E+00 -0.19219533877E+04  0.19219533877E+04  0.00000000000E+00 0. -1.
         25    2    1    2    0    0 -0.90009384321E+02 -0.45138187730E+02 -0.43039343592E+02  0.16617473422E+03  0.12499004736E+03 0.  0.
          2    1    1    2  501    0  0.37224081790E+02  0.11009681250E+03 -0.18093841199E+04  0.18131127471E+04  0.00000000000E+00 0. -1.
          1    1    1    2  502    0  0.52785302530E+02 -0.64958624770E+02  0.28112775101E+03  0.29332358153E+03  0.00000000000E+00 0. -1.
         22    1    3    3    0    0  0.44657496925E+01 -0.32207353662E+02  0.31401389860E+02  0.45202918439E+02  0.00000000000E+00 0.  1.
         22    1    3    3    0    0 -0.94475134013E+02 -0.12930834068E+02 -0.74440733453E+02  0.12097181578E+03  0.00000000000E+00 0.  1.
</event>
<event>
 7    1  0.6103724E-006  0.2053274E+03  0.7818608E-02  0.1272598E+00
          2   -1    0    0  502    0  0.00000000000E+00  0.00000000000E+00  0.49641743247E+03  0.49641743247E+03  0.00000000000E+00 0. -1.
          1   -1    0    0  501    0 -0.00000000000E+00 -0.00000000000E+00 -0.40297930229E+03  0.40297930229E+03  0.00000000000E+00 0. -1.
         25    2    1    2    0    0 -0.17402583533E+03 -0.14603165912E+03  0.43563527482E+02  0.26293124133E+03  0.12499927963E+03 0.  0.
          2    1    1    2  501    0  0.12326610653E+03  0.15914487328E+03 -0.25626280152E+03  0.32587151939E+03  0.00000000000E+00 0. -1.
          1    1    1    2  502    0  0.50759728801E+02 -0.13113214152E+02  0.30613740421E+03  0.31059397404E+03  0.00000000000E+00 0. -1.
         22    1    3    3    0    0 -0.13172890235E+03 -0.38292794707E+02 -0.53266031185E+01  0.13728515776E+03  0.00000000000E+00 0. -1.
         22    1    3    3    0    0 -0.42296932987E+02 -0.10773886442E+03  0.48890130601E+02  0.12564608357E+03  0.00000000000E+00 0. -1.
</event>
<event>
 7    1  0.6103724E-006  0.8023198E+02  0.7818608E-02  0.1478346E+00
          2   -1    0    0  502    0  0.00000000000E+00  0.00000000000E+00  0.11531734776E+04  0.11531734776E+04  0.00000000000E+00 0. -1.
          1   -1    0    0  501    0 -0.00000000000E+00 -0.00000000000E+00 -0.25745594787E+03  0.25745594787E+03  0.00000000000E+00 0. -1.
         25    2    1    2    0    0  0.86224777416E+02 -0.13195892951E+02  0.19950135439E+03  0.25105941856E+03  0.12498478872E+03 0.  0.
          2    1    1    2  501    0 -0.69177806933E+01  0.23536256433E+02 -0.22929802184E+03  0.23060657812E+03  0.00000000000E+00 0. -1.
          1    1    1    2  502    0 -0.79306996723E+02 -0.10340363482E+02  0.92551419720E+03  0.92896342881E+03  0.00000000000E+00 0. -1.
         22    1    3    3    0    0  0.70013668229E+02 -0.24671499729E+01  0.23360779214E+02  0.73849350528E+02  0.00000000000E+00 0.  1.
         22    1    3    3    0    0  0.16211109187E+02 -0.10728742978E+02  0.17614057518E+03  0.17721006803E+03  0.00000000000E+00 0.  1.
</event>
<event>
 7    1  0.6103724E-006  0.9560646E+02  0.7818608E-02  0.1444148E+00
          2   -1    0    0  502    0  0.00000000000E+00  0.00000000000E+00  0.77897564856E+03  0.77897564856E+03  0.00000000000E+00 0. -1.
          1   -1    0    0  501    0 -0.00000000000E+00 -0.00000000000E+00 -0.91439670766E+03  0.91439670766E+03  0.00000000000E+00 0. -1.
         25    2    1    2    0    0 -0.69072508725E+02 -0.77122403161E+02  0.34350853568E+03  0.37992570534E+03  0.12500620367E+03 0.  0.
          2    1    1    2  501    0 -0.90266175257E+01  0.24789137834E+02 -0.89069491355E+03  0.89108552350E+03  0.00000000000E+00 0. -1.
          1    1    1    2  502    0  0.78099126251E+02  0.52333265327E+02  0.41176531877E+03  0.42236112738E+03  0.00000000000E+00 0. -1.
         22    1    3    3    0    0 -0.73076429562E+02 -0.27907672821E+02  0.80215148151E+02  0.11204228109E+03  0.00000000000E+00 0.  1.
         22    1    3    3    0    0  0.40039208372E+01 -0.49214730340E+02  0.26329338753E+03  0.26788342424E+03  0.00000000000E+00 0.  1.
</event>
<event>
 7    1  0.6103724E-006  0.5631284E+02  0.7818608E-02  0.1487932E+00
          2   -1    0    0  502    0  0.00000000000E+00  0.00000000000E+00  0.18637379268E+03  0.18637379268E+03  0.00000000000E+00 0. -1.
          1   -1    0    0  501    0 -0.00000000000E+00 -0.00000000000E+00 -0.66366057406E+03  0.66366057406E+03  0.00000000000E+00 0. -1.
         25    2    1    2    0    0 -0.73587757676E+02  0.39304212986E+01  0.66807446056E+02  0.15974515662E+03  0.12499869569E+03 0.  0.
          2    1    1    2  501    0  0.52208771762E+02  0.20777502246E+02 -0.61218849604E+03  0.61476191744E+03  0.00000000000E+00 0. -1.
          1    1    1    2  502    0  0.21378985914E+02 -0.24707923545E+02  0.68094268604E+02  0.75527292692E+02  0.00000000000E+00 0. -1.
         22    1    3    3    0    0  0.31228025582E+01 -0.48228088000E+02  0.41213836052E+02  0.63515987358E+02  0.00000000000E+00 0. -1.
         22    1    3    3    0    0 -0.76710560234E+02  0.52158509298E+02  0.25593610004E+02  0.96229169261E+02  0.00000000000E+00 0. -1.
</event>
<event>
 7    1  0.6103724E-006  0.6970337E+02  0.7818608E-02  0.1385374E+00
          2   -1    0    0  502    0  0.00000000000E+00  0.00000000000E+00  0.77810749516E+03  0.77810749516E+03  0.00000000000E+00 0. -1.
          1   -1    0    0  501    0 -0.00000000000E+00 -0.00000000000E+00 -0.11196231803E+04  0.11196231803E+04  0.00000000000E+00 0. -1.
         25    2    1    2    0    0 -0.57888105339E+02  0.10277749788E+03  0.13117071911E+03  0.21620521989E+03  0.12499877098E+03 0.  0.
          2    1    1    2  501    0  0.84279072520E+01 -0.56446076671E+02 -0.10744464842E+04  0.10759611687E+04  0.00000000000E+00 0. -1.
          1    1    1    2  502    0  0.49460198087E+02 -0.46331421209E+02  0.60176007990E+03  0.60556428689E+03  0.00000000000E+00 0. -1.
         22    1    3    3    0    0  0.25777078047E+02 -0.72938811271E+01  0.47686651004E+02  0.54696207716E+02  0.00000000000E+00 0. -1.
         22    1    3    3    0    0 -0.83665183386E+02  0.11007137901E+03  0.83484068105E+02  0.16150901218E+03  0.00000000000E+00 0. -1.
</event>
<event>
 7    1  0.6103724E-006  0.7823876E+02  0.7818608E-02  0.1341120E+00
          2   -1    0    0  502    0  0.00000000000E+00  0.00000000000E+00  0.31485297772E+03  0.31485297772E+03  0.00000000000E+00 0. -1.
          1   -1    0    0  501    0 -0.00000000000E+00 -0.00000000000E+00 -0.19069977212E+04  0.19069977212E+04  0.00000000000E+00 0. -1.
         25    2    1    2    0    0 -0.65416531301E+02 -0.46401202511E+02 -0.21641246601E+03  0.26246966065E+03  0.12499429249E+03 0.  0.
          2    1    1    2  501    0  0.74937431755E+02 -0.26603185292E+02 -0.16619473796E+04  0.16638486832E+04  0.00000000000E+00 0. -1.
          1    1    1    2  502    0 -0.95209004540E+01  0.73004387803E+02  0.28621510213E+03  0.29553235503E+03  0.00000000000E+00 0. -1.
         22    1    3    3    0    0 -0.23851453402E+02  0.27612986596E+02 -0.78901961015E+01  0.37331274458E+02  0.00000000000E+00 0. -1.
         22    1    3    3    0    0 -0.41565077899E+02 -0.74014189107E+02 -0.20852226991E+03  0.22513838619E+03  0.00000000000E+00 0. -1.
</event>
<event>
 7    1  0.6103724E-006  0.8250221E+02  0.7818608E-02  0.1405204E+00
          2   -1    0    0  502    0  0.00000000000E+00  0.00000000000E+00  0.23235860188E+03  0.23235860188E+03  0.00000000000E+00 0. -1.
          1   -1    0    0  501    0 -0.00000000000E+00 -0.00000000000E+00 -0.53369064172E+03  0.53369064172E+03  0.00000000000E+00 0. -1.
         25    2    1    2    0    0 -0.53978596798E+02  0.40413719204E+02 -0.23979693799E+03  0.27870319478E+03  0.12500376673E+03 0.  0.
          2    1    1    2  501    0  0.20395953088E+02  0.35758664124E+02 -0.26465055735E+03  0.26783314669E+03  0.00000000000E+00 0. -1.
          1    1    1    2  502    0  0.33582643710E+02 -0.76172383328E+02  0.20311545550E+03  0.21951290213E+03  0.00000000000E+00 0. -1.
         22    1    3    3    0    0 -0.21125300551E+02  0.57619856801E+02 -0.35151529218E+02  0.70724509384E+02  0.00000000000E+00 0. -1.
         22    1    3    3    0    0 -0.32853296247E+02 -0.17206137597E+02 -0.20464540877E+03  0.20797868539E+03  0.00000000000E+00 0. -1.
</event>
<event>
 7    1  0.6103724E-006  0.7391347E+02  0.7818608E-02  0.1407869E+00
          2   -1    0    0  502    0  0.00000000000E+00  0.00000000000E+00  0.35387853983E+03  0.35387853983E+03  0.00000000000E+00 0. -1.
          1   -1    0    0  501    0 -0.00000000000E+00 -0.00000000000E+00 -0.10717438551E+04  0.10717438551E+04  0.00000000000E+00 0. -1.
         25    2    1    2    0    0 -0.18474694450E+02 -0.35773395293E+02 -0.46655911627E+03  0.48468925952E+03  0.12500087669E+03 0.  0.
          2    1    1    2  501    0  0.38433282609E+02  0.76104686506E+02 -0.59158230770E+03  0.59769445983E+03  0.00000000000E+00 0. -1.
          1    1    1    2  502    0 -0.19958588159E+02 -0.40331291213E+02  0.34027610868E+03  0.34323867561E+03  0.00000000000E+00 0. -1.
         22    1    3    3    0    0  0.24962486906E+02 -0.67341366166E+02 -0.33464764116E+03  0.34226748178E+03  0.00000000000E+00 0.  1.
         22    1    3    3    0    0 -0.43437181356E+02  0.31567970873E+02 -0.13191147511E+03  0.14242177774E+03  0.00000000000E+00 0.  1.
</event>
<event>
 7    1  0.6103724E-006  0.7514632E+02  0.7818608E-02  0.1360682E+00
          2   -1    0    0  502    0  0.00000000000E+00  0.00000000000E+00  0.10098586591E+04  0.10098586591E+04  0.00000000000E+00 0. -1.
          1   -1    0    0  501    0 -0.00000000000E+00 -0.00000000000E+00 -0.64077395903E+03  0.64077395903E+03  0.00000000000E+00 0. -1.
         25    2    1    2    0    0 -0.25085913782E+02  0.56170700292E+02  0.48639373742E+02  0.14756705067E+03  0.12500318045E+03 0.  0.
          2    1    1    2  501    0  0.64187358826E+02  0.94853539681E+01 -0.58792098833E+03  0.59149055571E+03  0.00000000000E+00 0. -1.
          1    1    1    2  502    0 -0.39101445044E+02 -0.65656054261E+02  0.90836631462E+03  0.91157501173E+03  0.00000000000E+00 0. -1.
         22    1    3    3    0    0  0.28025451125E+02  0.71302885361E+02  0.51425314741E+02  0.92271828679E+02  0.00000000000E+00 0.  1.
         22    1    3    3    0    0 -0.53111364908E+02 -0.15132185068E+02 -0.27859409992E+01  0.55295221986E+02  0.00000000000E+00 0.  1.
</event>
<event>
 7    1  0.6103724E-006  0.9363347E+02  0.7818608E-02  0.1377460E+00
          2   -1    0    0  502    0  0.00000000000E+00  0.00000000000E+00  0.40887361602E+03  0.40887361602E+03  0.00000000000E+00 0. -1.
          1   -1    0    0  501    0 -0.00000000000E+00 -0.00000000000E+00 -0.26219813662E+03  0.26219813662E+03  0.00000000000E+00 0. -1.
         25    2    1    2    0    0  0.67140267483E+02 -0.10409721457E+03  0.80051596645E+02  0.19333264710E+03  0.12500083484E+03 0.  0.
          2    1    1    2  501    0  0.12344261554E+01  0.45295241958E+02 -0.19542360050E+03  0.20060799182E+03  0.00000000000E+00 0. -1.
          1    1    1    2  502    0 -0.68374693638E+02  0.58801972615E+02  0.26204748325E+03  0.27713111372E+03  0.00000000000E+00 0. -1.
         22    1    3    3    0    0  0.62025260151E+02 -0.55039059675E+02 -0.16832703274E+02  0.84615429362E+02  0.00000000000E+00 0.  1.
         22    1    3    3    0    0  0.51150073323E+01 -0.49058154898E+02  0.96884299919E+02  0.10871721774E+03  0.00000000000E+00 0.  1.
</event>
<event>
 7    1  0.6103724E-006  0.8118785E+02  0.7818608E-02  0.1424945E+00
          2   -1    0    0  502    0  0.00000000000E+00  0.00000000000E+00  0.38979519702E+03  0.38979519702E+03  0.00000000000E+00 0. -1.
          1   -1    0    0  501    0 -0.00000000000E+00 -0.00000000000E+00 -0.90513039016E+02  0.90513039016E+02  0.00000000000E+00 0. -1.
         25    2    1    2    0    0  0.87499707294E+02 -0.55914956024E+02  0.68562194009E+02  0.17637117908E+03  0.12499334893E+03 0.  0.
          2    1    1    2  501    0 -0.70453488426E+02  0.24318907099E+02  0.42655647872E+01  0.74654526432E+02  0.00000000000E+00 0. -1.
          1    1    1    2  502    0 -0.17046218868E+02  0.31596048926E+02  0.22645439921E+03  0.22928253053E+03  0.00000000000E+00 0. -1.
         22    1    3    3    0    0  0.59648913371E+02 -0.23022225868E+02  0.10298062897E+03  0.12121479156E+03  0.00000000000E+00 0.  1.
         22    1    3    3    0    0  0.27850793923E+02 -0.32892730156E+02 -0.34418434956E+02  0.55156387518E+02  0.00000000000E+00 0.  1.
</event>
<event>
 7    1  0.6103724E-006  0.6289975E+02  0.7818608E-02  0.1428628E+00
          2   -1    0    0  502    0  0.00000000000E+00  0.00000000000E+00  0.49693682931E+03  0.49693682931E+03  0.00000000000E+00 0. -1.
          1   -1    0    0  501    0 -0.00000000000E+00 -0.00000000000E+00 -0.47310259787E+03  0.47310259787E+03  0.00000000000E+00 0. -1.
         25    2    1    2    0    0 -0.78077609049E+02  0.25879784719E+02  0.52749048339E+02  0.15865934086E+03  0.12499779218E+03 0.  0.
          2    1    1    2  501    0  0.39339892101E+02 -0.48892124986E+02 -0.41649174736E+03  0.42119288054E+03  0.00000000000E+00 0. -1.
          1    1    1    2  502    0  0.38737716947E+02  0.23012340267E+02  0.38757693047E+03  0.39018720578E+03  0.00000000000E+00 0. -1.
         22    1    3    3    0    0  0.15181927937E+02  0.47085004356E+02  0.36893456861E+02  0.61713983264E+02  0.00000000000E+00 0.  1.
         22    1    3    3    0    0 -0.93259536986E+02 -0.21205219637E+02  0.15855591478E+02  0.96945357598E+02  0.00000000000E+00 0.  1.
</event>
<event>
 7    1  0.6103724E-006  0.1130209E+03  0.7818608E-02  0.1294144E+00
          2   -1    0    0  502    0  0.00000000000E+00  0.00000000000E+00  0.21683943879E+04  0.21683943879E+04  0.00000000000E+00 0. -1.
          1   -1    0    0  501    0 -0.00000000000E+00 -0.00000000000E+00 -0.36731756744E+02  0.36731756744E+02  0.00000000000E+00 0. -1.
         25    2    1    2    0    0  0.77901871140E+02 -0.24047417391E+01  0.13007062987E+04  0.13090212090E+04  0.12500066315E+03 0.  0.
          2    1    1    2  501    0 -0.91358839724E+02 -0.74093350422E+02  0.82609363996E+02  0.14373784885E+03  0.00000000000E+00 0. -1.
          1    1    1    2  502    0  0.13456968584E+02  0.76498092161E+02  0.74834696845E+03  0.75236708680E+03  0.00000000000E+00 0. -1.
         22    1    3    3    0    0  0.29492275902E+02 -0.21371656335E+01  0.11570420926E+04  0.11574198745E+04  0.00000000000E+00 0.  1.
         22    1    3    3    0    0  0.48409595238E+02 -0.26757610550E+00  0.14366420618E+03  0.15160133458E+03  0.00000000000E+00 0.  1.
</event>
<event>
 7    1  0.6103724E-006  0.9179754E+02  0.7818608E-02  0.1320535E+00
          2   -1    0    0  502    0  0.00000000000E+00  0.00000000000E+00  0.13844566126E+04  0.13844566126E+04  0.00000000000E+00 0. -1.
          1   -1    0    0  501    0 -0.00000000000E+00 -0.00000000000E+00 -0.10781209710E+04  0.10781209710E+04  0.00000000000E+00 0. -1.
         25    2    1    2    0    0  0.18986462761E+02 -0.81949507000E+01  0.87766983232E+02  0.15412819363E+03  0.12499925496E+03 0.  0.
          2    1    1    2  501    0 -0.59566502316E+02  0.71491881874E+02 -0.10417460325E+04  0.10458939017E+04  0.00000000000E+00 0. -1.
          1    1    1    2  502    0  0.40580039555E+02 -0.63296931174E+02  0.12603146908E+04  0.12625554883E+04  0.00000000000E+00 0. -1.
         22    1    3    3    0    0 -0.33322577910E+02 -0.40865365734E+02  0.74121236839E+02  0.90963344627E+02  0.00000000000E+00 0. -1.
         22    1    3    3    0    0  0.52309040671E+02  0.32670415034E+02  0.13645746393E+02  0.63164848999E+02  0.00000000000E+00 0. -1.
</event>
<event>
 7    1  0.6103724E-006  0.1361093E+03  0.7818608E-02  0.1249988E+00
          2   -1    0    0  502    0  0.00000000000E+00  0.00000000000E+00  0.15484821321E+04  0.15484821321E+04  0.00000000000E+00 0. -1.
          1   -1    0    0  501    0 -0.00000000000E+00 -0.00000000000E+00 -0.13369193056E+04  0.13369193056E+04  0.00000000000E+00 0. -1.
         25    2    1    2    0    0  0.65093163735E+02  0.62371773234E+02 -0.31328906318E+02  0.15727709217E+03  0.12500890084E+03 0.  0.
          2    1    1    2  501    0 -0.47440989576E+01 -0.14049958367E+03 -0.12369904419E+04  0.12449530083E+04  0.00000000000E+00 0. -1.
          1    1    1    2  502    0 -0.60349064778E+02  0.78127810435E+02  0.14798821747E+04  0.14831713372E+04  0.00000000000E+00 0. -1.
         22    1    3    3    0    0 -0.33858190260E+02  0.21932571758E+02 -0.30170066413E+02  0.50375069816E+02  0.00000000000E+00 0. -1.
         22    1    3    3    0    0  0.98951353995E+02  0.40439201475E+02 -0.11588399052E+01  0.10690202235E+03  0.00000000000E+00 0. -1.
</event>
<event>
 7    1  0.6103724E-006  0.1127934E+03  0.7818608E-02  0.1262000E+00
          2   -1    0    0  502    0  0.00000000000E+00  0.00000000000E+00  0.13448252528E+03  0.13448252528E+03  0.00000000000E+00 0. -1.
          1   -1    0    0  501    0 -0.00000000000E+00 -0.00000000000E+00 -0.65078360642E+03  0.65078360642E+03  0.00000000000E+00 0. -1.
         25    2    1    2    0    0 -0.11071462710E+03 -0.14052706358E+03 -0.20959979261E+03  0.30259395469E+03  0.12500177640E+03 0.  0.
          2    1    1    2  501    0  0.10008509681E+03  0.34244969018E+02 -0.35133137110E+03  0.36691072051E+03  0.00000000000E+00 0. -1.
          1    1    1    2  502    0  0.10629530292E+02  0.10628209456E+03  0.44630082581E+02  0.11576145650E+03  0.00000000000E+00 0. -1.
         22    1    3    3    0    0 -0.11482216051E+03 -0.15042150259E+03 -0.14845988720E+03  0.24052254591E+03  0.00000000000E+00 0. -1.
         22    1    3    3    0    0  0.41075334094E+01  0.98944390132E+01 -0.61139905412E+02  0.62071408780E+02  0.00000000000E+00 0. -1.
</event>
<event>
 7    1  0.6103724E-006  0.6227812E+02  0.7818608E-02  0.1514779E+00
          2   -1    0    0  502    0  0.00000000000E+00  0.00000000000E+00  0.59245585659E+03  0.59245585659E+03  0.00000000000E+00 0. -1.
          1   -1    0    0  501    0 -0.00000000000E+00 -0.00000000000E+00 -0.98926027097E+02  0.98926027097E+02  0.00000000000E+00 0. -1.
         25    2    1    2    0    0 -0.15298946528E+02 -0.75040119914E+02  0.54218037658E+02  0.15630279555E+03  0.12500356366E+03 0.  0.
          2    1    1    2  501    0  0.27254609661E+02  0.53569448972E+02 -0.28572481189E+02  0.66549878229E+02  0.00000000000E+00 0. -1.
          1    1    1    2  502    0 -0.11955663134E+02  0.21470670941E+02  0.46788427303E+03  0.46852920991E+03  0.00000000000E+00 0. -1.
         22    1    3    3    0    0  0.93963438322E+01 -0.10098162740E+03  0.13887598471E+02  0.10236427961E+03  0.00000000000E+00 0. -1.
         22    1    3    3    0    0 -0.24695290360E+02  0.25941507486E+02  0.40330439188E+02  0.53938515939E+02  0.00000000000E+00 0. -1.
</event>
<event>
 7    1  0.6103724E-006  0.1653529E+03  0.7818608E-02  0.1353702E+00
          2   -1    0    0  502    0  0.00000000000E+00  0.00000000000E+00  0.60628541020E+03  0.60628541020E+03  0.00000000000E+00 0. -1.
          1   -1    0    0  501    0 -0.00000000000E+00 -0.00000000000E+00 -0.13308416757E+04  0.13308416757E+04  0.00000000000E+00 0. -1.
         25    2    1    2    0    0 -0.42090153663E+02 -0.16977580348E+03 -0.47141482472E+03  0.51812525469E+03  0.12500575228E+03 0.  0.
          2    1    1    2  501    0  0.11714879113E+02  0.16232136181E+03 -0.82772267916E+03  0.84356997131E+03  0.00000000000E+00 0. -1.
          1    1    1    2  502    0  0.30375274550E+02  0.74544416715E+01  0.57458123833E+03  0.57543185995E+03  0.00000000000E+00 0. -1.
         22    1    3    3    0    0 -0.14656771488E+02 -0.11412710812E+03 -0.14126675558E+03  0.18219800765E+03  0.00000000000E+00 0.  1.
         22    1    3    3    0    0 -0.27433382175E+02 -0.55648695363E+02 -0.33014806913E+03  0.33592724704E+03  0.00000000000E+00 0.  1.
</event>
<event>
 7    1  0.6103724E-006  0.7227916E+02  0.7818608E-02  0.1381122E+00
          2   -1    0    0  502    0  0.00000000000E+00  0.00000000000E+00  0.70571692256E+03  0.70571692256E+03  0.00000000000E+00 0. -1.
          1   -1    0    0  501    0 -0.00000000000E+00 -0.00000000000E+00 -0.14831570910E+03  0.14831570910E+03  0.00000000000E+00 0. -1.
         25    2    1    2    0    0 -0.60582949059E+02 -0.33344566652E+02 -0.71629040726E+02  0.15980468717E+03  0.12499865889E+03 0.  0.
          2    1    1    2  501    0  0.43102080036E+02 -0.37253063987E+02 -0.39276849598E+01  0.57105225584E+02  0.00000000000E+00 0. -1.
          1    1    1    2  502    0  0.17480869023E+02  0.70597630639E+02  0.63295793914E+03  0.63712271891E+03  0.00000000000E+00 0. -1.
         22    1    3    3    0    0 -0.69314580992E+02 -0.57492199742E+02 -0.70763331992E+01  0.90332378806E+02  0.00000000000E+00 0.  1.
         22    1    3    3    0    0  0.87316319335E+01  0.24147633090E+02 -0.64552707527E+02  0.69472308362E+02  0.00000000000E+00 0.  1.
</event>
<event>
 7    1  0.6103724E-006  0.1127793E+03  0.7818608E-02  0.1352644E+00
          2   -1    0    0  502    0  0.00000000000E+00  0.00000000000E+00  0.21222807604E+04  0.21222807604E+04  0.00000000000E+00 0. -1.
          1   -1    0    0  501    0 -0.00000000000E+00 -0.00000000000E+00 -0.39073678445E+02  0.39073678445E+02  0.00000000000E+00 0. -1.
         25    2    1    2    0    0  0.11890907918E+03  0.22685814484E+02  0.39313830225E+03  0.42993306899E+03  0.12502281322E+03 0.  0.
          2    1    1    2  501    0 -0.84565005522E+01 -0.45491059034E+02  0.97052915968E+01  0.47277283537E+02  0.00000000000E+00 0. -1.
          1    1    1    2  502    0 -0.11045257863E+03  0.22805244550E+02  0.16803634881E+04  0.16841440863E+04  0.00000000000E+00 0. -1.
         22    1    3    3    0    0  0.26959735543E+02 -0.19377862382E+02  0.26321074217E+03  0.26529648261E+03  0.00000000000E+00 0.  1.
         22    1    3    3    0    0  0.91949343640E+02  0.42063676866E+02  0.12992756008E+03  0.16463658638E+03  0.00000000000E+00 0.  1.
</event>
<event>
 7    1  0.6103724E-006  0.1216723E+03  0.7818608E-02  0.1412450E+00
          2   -1    0    0  502    0  0.00000000000E+00  0.00000000000E+00  0.30584142339E+04  0.30584142339E+04  0.00000000000E+00 0. -1.
          1   -1    0    0  501    0 -0.00000000000E+00 -0.00000000000E+00 -0.61007244105E+02  0.61007244105E+02  0.00000000000E+00 0. -1.
         25    2    1    2    0    0 -0.14172670709E+03 -0.20046414904E+02  0.15215826782E+03  0.24344497636E+03  0.12499999918E+03 0.  0.
          2    1    1    2  501    0  0.20692295723E+02  0.16357215847E+02 -0.17209882094E+01  0.26432771572E+02  0.00000000000E+00 0. -1.
          1    1    1    2  502    0  0.12103441136E+03  0.36891990569E+01  0.28469697102E+04  0.28495437301E+04  0.00000000000E+00 0. -1.
         22    1    3    3    0    0 -0.77616390049E+00  0.11769822635E+02 -0.17177780117E+02  0.20837641062E+02  0.00000000000E+00 0.  1.
         22    1    3    3    0    0 -0.14095054319E+03 -0.31816237539E+02  0.16933604794E+03  0.22260733530E+03  0.00000000000E+00 0.  1.
</event>
<event>
 7    1  0.6103724E-006  0.1425507E+03  0.7818608E-02  0.1273105E+00
          2   -1    0    0  502    0  0.00000000000E+00  0.00000000000E+00  0.10569786221E+04  0.10569786221E+04  0.00000000000E+00 0. -1.
          1   -1    0    0  501    0 -0.00000000000E+00 -0.00000000000E+00 -0.95733137864E+02  0.95733137864E+02  0.00000000000E+00 0. -1.
         25    2    1    2    0    0  0.15970040786E+03  0.16016286239E+02  0.42678716206E+03  0.47279093094E+03  0.12499296373E+03 0.  0.
          2    1    1    2  501    0 -0.11840413104E+03 -0.78797964115E+02  0.20569543503E+01  0.14224235817E+03  0.00000000000E+00 0. -1.
          1    1    1    2  502    0 -0.41296276819E+02  0.62781677876E+02  0.53240136781E+03  0.53767847084E+03  0.00000000000E+00 0. -1.
         22    1    3    3    0    0  0.80048044849E+02  0.59043604278E+02  0.13775649258E+03  0.16991376618E+03  0.00000000000E+00 0.  1.
         22    1    3    3    0    0  0.79652363014E+02 -0.43027318039E+02  0.28903066947E+03  0.30287716475E+03  0.00000000000E+00 0.  1.
</event>
<event>
 7    1  0.6103724E-006  0.4856046E+02  0.7818608E-02  0.1577415E+00
          2   -1    0    0  502    0  0.00000000000E+00  0.00000000000E+00  0.90996480988E+03  0.90996480988E+03  0.00000000000E+00 0. -1.
          1   -1    0    0  501    0 -0.00000000000E+00 -0.00000000000E+00 -0.12229236682E+03  0.12229236682E+03  0.00000000000E+00 0. -1.
         25    2    1    2    0    0  0.16087703908E+02 -0.37566377955E+02  0.46206512183E+03  0.48041699559E+03  0.12500506336E+03 0.  0.
          2    1    1    2  501    0  0.17804174744E+01  0.48656855476E+02 -0.10761009221E+03  0.11811262175E+03  0.00000000000E+00 0. -1.
          1    1    1    2  502    0 -0.17868121382E+02 -0.11090477521E+02  0.43321741343E+03  0.43372755937E+03  0.00000000000E+00 0. -1.
         22    1    3    3    0    0  0.45111114217E+02 -0.60077492201E+02  0.40922955504E+03  0.41606867992E+03  0.00000000000E+00 0. -1.
         22    1    3    3    0    0 -0.29023410310E+02  0.22511114245E+02  0.52835566794E+02  0.64348315666E+02  0.00000000000E+00 0. -1.
</event>
<event>
 7    1  0.6103724E-006  0.1523575E+03  0.7818608E-02  0.1276652E+00
          2   -1    0    0  502    0  0.00000000000E+00  0.00000000000E+00  0.38425417336E+04  0.38425417336E+04  0.00000000000E+00 0. -1.
          1   -1    0    0  501    0 -0.00000000000E+00 -0.00000000000E+00 -0.15359136665E+04  0.15359136665E+04  0.00000000000E+00 0. -1.
         25    2    1    2    0    0  0.67262000321E+02  0.19706037611E+03  0.13593292830E+03  0.27831588354E+03  0.12500000607E+03 0.  0.
          2    1    1    2  501    0 -0.77720348658E+02 -0.12991322594E+03 -0.14604917733E+04  0.14683167638E+04  0.00000000000E+00 0. -1.
          1    1    1    2  502    0  0.10458348337E+02 -0.67147150169E+02  0.36311869121E+04  0.36318227528E+04  0.00000000000E+00 0. -1.
         22    1    3    3    0    0  0.31881027367E+02  0.18671255571E+02  0.79878952726E+02  0.88009447102E+02  0.00000000000E+00 0.  1.
         22    1    3    3    0    0  0.35380972954E+02  0.17838912053E+03  0.56053975569E+02  0.19030643644E+03  0.00000000000E+00 0.  1.
</event>
<event>
 7    1  0.6103724E-006  0.1208298E+03  0.7818608E-02  0.1331918E+00
          2   -1    0    0  502    0  0.00000000000E+00  0.00000000000E+00  0.44611510637E+03  0.44611510637E+03  0.00000000000E+00 0. -1.
          1   -1    0    0  501    0 -0.00000000000E+00 -0.00000000000E+00 -0.16799072877E+04  0.16799072877E+04  0.00000000000E+00 0. -1.
         25    2    1    2    0    0  0.13865098897E+03  0.98254820532E+02  0.21071830831E+02  0.21200736376E+03  0.12499997494E+03 0.  0.
          2    1    1    2  501    0 -0.91237290558E+02 -0.77771263102E+02 -0.15801312488E+04  0.15846726400E+04  0.00000000000E+00 0. -1.
          1    1    1    2  502    0 -0.47413698410E+02 -0.20483557430E+02  0.32526723656E+03  0.32934239038E+03  0.00000000000E+00 0. -1.
         22    1    3    3    0    0  0.36004235026E+02 -0.58957062499E+01  0.51037857123E+02  0.62736967983E+02  0.00000000000E+00 0.  1.
         22    1    3    3    0    0  0.10264675394E+03  0.10415052678E+03 -0.29966026292E+02  0.14927039578E+03  0.00000000000E+00 0.  1.
</event>
<event>
 7    1  0.6103724E-006  0.1536423E+03  0.7818608E-02  0.1276670E+00
          2   -1    0    0  502    0  0.00000000000E+00  0.00000000000E+00  0.15922443034E+04  0.15922443034E+04  0.00000000000E+00 0. -1.
          1   -1    0    0  501    0 -0.00000000000E+00 -0.00000000000E+00 -0.13756344451E+03  0.13756344451E+03  0.00000000000E+00 0. -1.
         25    2    1    2    0    0 -0.12283212736E+03  0.10068208664E+03  0.27190674305E+03  0.33879688043E+03  0.12500174077E+03 0.  0.
          2    1    1    2  501    0  0.67709405438E+02 -0.13942595789E+03 -0.44993661148E+02  0.16139575850E+03  0.00000000000E+00 0. -1.
          1    1    1    2  502    0  0.55122721920E+02  0.38743871250E+02  0.12277677770E+04  0.12296151090E+04  0.00000000000E+00 0. -1.
         22    1    3    3    0    0 -0.16759410778E+02  0.14130386481E+01 -0.11465004155E+02  0.20354872835E+02  0.00000000000E+00 0.  1.
         22    1    3    3    0    0 -0.10607271658E+03  0.99269047990E+02  0.28337174720E+03  0.31844200760E+03  0.00000000000E+00 0.  1.
</event>
<event>
 7    1  0.6103724E-006  0.1395091E+03  0.7818608E-02  0.1247520E+00
          2   -1    0    0  502    0  0.00000000000E+00  0.00000000000E+00  0.35705997807E+03  0.35705997807E+03  0.00000000000E+00 0. -1.
          1   -1    0    0  501    0 -0.00000000000E+00 -0.00000000000E+00 -0.78399384609E+03  0.78399384609E+03  0.00000000000E+00 0. -1.
         25    2    1    2    0    0 -0.13453020705E+03 -0.15948354473E+03 -0.74309995042E+02  0.25431933254E+03  0.12499187930E+03 0.  0.
          2    1    1    2  501    0  0.40740538942E+02  0.12866140481E+03 -0.60283190972E+03  0.61775388302E+03  0.00000000000E+00 0. -1.
          1    1    1    2  502    0  0.93789668113E+02  0.30822139922E+02  0.25020803675E+03  0.26898060861E+03  0.00000000000E+00 0. -1.
         22    1    3    3    0    0 -0.11380397646E+03 -0.10393348911E+03 -0.10603487003E+03  0.18707460779E+03  0.00000000000E+00 0. -1.
         22    1    3    3    0    0 -0.20726230593E+02 -0.55550055625E+02  0.31724874986E+02  0.67244724755E+02  0.00000000000E+00 0. -1.
</event>
<event>
 7    1  0.6103724E-006  0.6586956E+02  0.7818608E-02  0.1433837E+00
          2   -1    0    0  502    0  0.00000000000E+00  0.00000000000E+00  0.12542661281E+04  0.12542661281E+04  0.00000000000E+00 0. -1.
          1   -1    0    0  501    0 -0.00000000000E+00 -0.00000000000E+00 -0.16007836783E+04  0.16007836783E+04  0.00000000000E+00 0. -1.
         25    2    1    2    0    0  0.17375084589E+02 -0.64683058544E+02 -0.75196590332E+02  0.16051522660E+03  0.12499927658E+03 0.  0.
          2    1    1    2  501    0  0.34089282717E+02  0.23427331543E+02 -0.14817412496E+04  0.14823184711E+04  0.00000000000E+00 0. -1.
          1    1    1    2  502    0 -0.51464367307E+02  0.41255727002E+02  0.12104202898E+04  0.12122161086E+04  0.00000000000E+00 0. -1.
         22    1    3    3    0    0 -0.34920285133E+02 -0.80025121558E+02 -0.46405904128E+02  0.98878482655E+02  0.00000000000E+00 0.  1.
         22    1    3    3    0    0  0.52295369722E+02  0.15342063013E+02 -0.28790686203E+02  0.61636743943E+02  0.00000000000E+00 0.  1.
</event>
<event>
 7    1  0.6126269E-006  0.6196046E+02  0.7818608E-02  0.1407730E+00
          2   -1    0    0  502    0  0.00000000000E+00  0.00000000000E+00  0.46228951865E+03  0.46228951865E+03  0.00000000000E+00 0. -1.
          1   -1    0    0  501    0 -0.00000000000E+00 -0.00000000000E+00 -0.10874603678E+04  0.10874603678E+04  0.00000000000E+00 0. -1.
         25    2    1    2    0    0  0.28241237381E+02  0.54189972053E+02 -0.40526508703E+03  0.42848501709E+03  0.12500199417E+03 0.  0.
          2    1    1    2  501    0 -0.53683447897E+02  0.24413260929E+01 -0.66736199334E+03  0.66952214512E+03  0.00000000000E+00 0. -1.
          1    1    1    2  502    0  0.25442210516E+02 -0.56631298146E+02  0.44745623124E+03  0.45174272421E+03  0.00000000000E+00 0. -1.
         22    1    3    3    0    0  0.49580406834E+02 -0.17840307019E+01 -0.32262429752E+03  0.32641666142E+03  0.00000000000E+00 0.  1.
         22    1    3    3    0    0 -0.21339169452E+02  0.55974002755E+02 -0.82640789513E+02  0.10206835567E+03  0.00000000000E+00 0.  1.
</event>
<event>
 7    1  0.6103724E-006  0.6679963E+02  0.7818608E-02  0.1465276E+00
          2   -1    0    0  502    0  0.00000000000E+00  0.00000000000E+00  0.42871315286E+03  0.42871315286E+03  0.00000000000E+00 0. -1.
          1   -1    0    0  501    0 -0.00000000000E+00 -0.00000000000E+00 -0.43823123593E+03  0.43823123593E+03  0.00000000000E+00 0. -1.
         25    2    1    2    0    0 -0.62422959979E+02 -0.76403807874E+02 -0.15068210677E+03  0.21923592070E+03  0.12500049533E+03 0.  0.
          2    1    1    2  501    0  0.20098868168E+02  0.25347237677E+02 -0.24943278055E+03  0.25152168689E+03  0.00000000000E+00 0. -1.
          1    1    1    2  502    0  0.42324091810E+02  0.51056570197E+02  0.39059680425E+03  0.39618678120E+03  0.00000000000E+00 0. -1.
         22    1    3    3    0    0  0.16843196236E+02  0.16972945958E+02 -0.66350135968E+02  0.70527403871E+02  0.00000000000E+00 0.  1.
         22    1    3    3    0    0 -0.79266156215E+02 -0.93376753832E+02 -0.84331970798E+02  0.14870851682E+03  0.00000000000E+00 0.  1.
</event>
<event>
 7    1  0.6103724E-006  0.6689929E+02  0.7818608E-02  0.1437468E+00
          2   -1    0    0  502    0  0.00000000000E+00  0.00000000000E+00  0.20192742898E+04  0.20192742898E+04  0.00000000000E+00 0. -1.
          1   -1    0    0  501    0 -0.00000000000E+00 -0.00000000000E+00 -0.33797403302E+02  0.33797403302E+02  0.00000000000E+00 0. -1.
         25    2    1    2    0    0 -0.50384381110E+01  0.53082727517E+02  0.63062017213E+03  0.64509692288E+03  0.12500030639E+03 0.  0.
          2    1    1    2  501    0  0.44651845632E+02 -0.51950047661E+02  0.18400015612E+02  0.70930637562E+02  0.00000000000E+00 0. -1.
          1    1    1    2  502    0 -0.39613407521E+02 -0.11326798555E+01  0.13364566987E+04  0.13370441326E+04  0.00000000000E+00 0. -1.
         22    1    3    3    0    0 -0.18499894150E+02 -0.29241865786E+02  0.67708632358E+02  0.76038093703E+02  0.00000000000E+00 0. -1.
         22    1    3    3    0    0  0.13461456039E+02  0.82324593303E+02  0.56291153977E+03  0.56905882918E+03  0.00000000000E+00 0. -1.
</event>
<event>
 7    1  0.6103724E-006  0.1744933E+03  0.7818608E-02  0.1277852E+00
          2   -1    0    0  502    0  0.00000000000E+00  0.00000000000E+00  0.98832305399E+03  0.98832305399E+03  0.00000000000E+00 0. -1.
          1   -1    0    0  501    0 -0.00000000000E+00 -0.00000000000E+00 -0.33532451535E+03  0.33532451535E+03  0.00000000000E+00 0. -1.
         25    2    1    2    0    0  0.14245534980E+03 -0.92957165666E+02  0.23978436317E+03  0.31946227204E+03  0.12500016440E+03 0.  0.
          2    1    1    2  501    0 -0.33871309066E+02 -0.47891689945E+02 -0.28125439386E+03  0.28730630624E+03  0.00000000000E+00 0. -1.
          1    1    1    2  502    0 -0.10858404074E+03  0.14084885561E+03  0.69446856933E+03  0.71687899105E+03  0.00000000000E+00 0. -1.
         22    1    3    3    0    0  0.95932759030E+02  0.42893846749E+01  0.71966439939E+02  0.12000275644E+03  0.00000000000E+00 0. -1.
         22    1    3    3    0    0  0.46522590774E+02 -0.97246550341E+02  0.16781792323E+03  0.19945951560E+03  0.00000000000E+00 0. -1.
</event>
<event>
 7    1  0.6103724E-006  0.8367809E+02  0.7818608E-02  0.1407370E+00
          2   -1    0    0  502    0  0.00000000000E+00  0.00000000000E+00  0.16650356083E+03  0.16650356083E+03  0.00000000000E+00 0. -1.
          1   -1    0    0  501    0 -0.00000000000E+00 -0.00000000000E+00 -0.63564536024E+03  0.63564536024E+03  0.00000000000E+00 0. -1.
         25    2    1    2    0    0  0.10057405325E+03 -0.53514885988E+02  0.10301442056E+02  0.16947722453E+03  0.12504969698E+03 0.  0.
          2    1    1    2  501    0 -0.28358263693E+02  0.28073861537E+02 -0.53599931248E+03  0.53748264698E+03  0.00000000000E+00 0. -1.
          1    1    1    2  502    0 -0.72215789562E+02  0.25441024452E+02  0.56556071020E+02  0.95189049561E+02  0.00000000000E+00 0. -1.
         22    1    3    3    0    0  0.28937913369E+01  0.23984027675E+02 -0.29925105919E+02  0.38459323656E+02  0.00000000000E+00 0.  1.
         22    1    3    3    0    0  0.97680261918E+02 -0.77498913663E+02  0.40226547975E+02  0.13101790087E+03  0.00000000000E+00 0.  1.
</event>
<event>
 7    1  0.6103724E-006  0.4044491E+02  0.7818608E-02  0.1564401E+00
          2   -1    0    0  502    0  0.00000000000E+00  0.00000000000E+00  0.27615120812E+02  0.27615120812E+02  0.00000000000E+00 0. -1.
          1   -1    0    0  501    0 -0.00000000000E+00 -0.00000000000E+00 -0.87978455098E+03  0.87978455098E+03  0.00000000000E+00 0. -1.
         25    2    1    2    0    0 -0.34380902249E+02  0.35507497591E+02 -0.33966615514E+03  0.36529678121E+03  0.12500325032E+03 0.  0.
          2    1    1    2  501    0  0.73146873563E+01 -0.39699676032E+02 -0.51312151968E+03  0.51470696798E+03  0.00000000000E+00 0. -1.
          1    1    1    2  502    0  0.27066214892E+02  0.41921784414E+01  0.61824465237E+00  0.27395922601E+02  0.00000000000E+00 0. -1.
         22    1    3    3    0    0  0.77147019793E+01  0.62892366286E+02 -0.28107575718E+03  0.28812939392E+03  0.00000000000E+00 0.  1.
         22    1    3    3    0    0 -0.42095604228E+02 -0.27384868696E+02 -0.58590397955E+02  0.77167387291E+02  0.00000000000E+00 0.  1.
</event>
<event>
 7    1  0.6103724E-006  0.7541617E+02  0.7818608E-02  0.1416036E+00
          2   -1    0    0  502    0  0.00000000000E+00  0.00000000000E+00  0.31975179383E+04  0.31975179383E+04  0.00000000000E+00 0. -1.
          1   -1    0    0  501    0 -0.00000000000E+00 -0.00000000000E+00 -0.30294861009E+04  0.30294861009E+04  0.00000000000E+00 0. -1.
         25    2    1    2    0    0  0.99345913264E+02  0.50727327575E+02 -0.34963797526E+03  0.38770484059E+03  0.12500182969E+03 0.  0.
          2    1    1    2  501    0 -0.41303226083E+02 -0.26385577247E+01 -0.26602068336E+04  0.26605287663E+04  0.00000000000E+00 0. -1.
          1    1    1    2  502    0 -0.58042687181E+02 -0.48088769851E+02  0.31778766462E+04  0.31787704324E+04  0.00000000000E+00 0. -1.
         22    1    3    3    0    0  0.11927029368E+03  0.88493917929E+01 -0.27426394495E+03  0.29920632712E+03  0.00000000000E+00 0. -1.
         22    1    3    3    0    0 -0.19924380419E+02  0.41877935782E+02 -0.75374030311E+02  0.88498513467E+02  0.00000000000E+00 0. -1.
</event>
<event>
 7    1  0.6103724E-006  0.1024852E+03  0.7818608E-02  0.1342069E+00
          2   -1    0    0  502    0  0.00000000000E+00  0.00000000000E+00  0.19369812291E+04  0.19369812291E+04  0.00000000000E+00 0. -1.
          1   -1    0    0  501    0 -0.00000000000E+00 -0.00000000000E+00 -0.97405023962E+03  0.97405023962E+03  0.00000000000E+00 0. -1.
         25    2    1    2    0    0 -0.19910471024E+00  0.16798858982E+01  0.10722814675E+04  0.10795440642E+04  0.12499991767E+03 0.  0.
          2    1    1    2  501    0 -0.10248495433E+03  0.22269718928E+00 -0.96463244964E+03  0.97006132711E+03  0.00000000000E+00 0. -1.
          1    1    1    2  502    0  0.10268405904E+03 -0.19025830875E+01  0.85528197162E+03  0.86142607737E+03  0.00000000000E+00 0. -1.
         22    1    3    3    0    0 -0.37710061800E+02 -0.49073118830E+02  0.52340386288E+03  0.52705011473E+03  0.00000000000E+00 0. -1.
         22    1    3    3    0    0  0.37510957090E+02  0.50753004728E+02  0.54887760462E+03  0.55249394951E+03  0.00000000000E+00 0. -1.
</event>
<event>
 7    1  0.6103724E-006  0.3767845E+02  0.7818608E-02  0.1547298E+00
          2   -1    0    0  502    0  0.00000000000E+00  0.00000000000E+00  0.35823052966E+03  0.35823052966E+03  0.00000000000E+00 0. -1.
          1   -1    0    0  501    0 -0.00000000000E+00 -0.00000000000E+00 -0.68059857795E+03  0.68059857795E+03  0.00000000000E+00 0. -1.
         25    2    1    2    0    0 -0.31192114215E+02 -0.62668893147E+02 -0.69546941104E+02  0.15925880293E+03  0.12500500445E+03 0.  0.
          2    1    1    2  501    0  0.15834933949E+02  0.33702166445E+02 -0.56472332704E+03  0.56594965965E+03  0.00000000000E+00 0. -1.
          1    1    1    2  502    0  0.15357180266E+02  0.28966726702E+02  0.31190221985E+03  0.31362064503E+03  0.00000000000E+00 0. -1.
         22    1    3    3    0    0  0.10767756144E+02 -0.58599964276E+02 -0.93426969317E+02  0.11080838859E+03  0.00000000000E+00 0. -1.
         22    1    3    3    0    0 -0.41959870359E+02 -0.40689288711E+01  0.23880028213E+02  0.48450414345E+02  0.00000000000E+00 0. -1.
</event>
<event>
 7    1  0.6103724E-006  0.4323272E+02  0.7818608E-02  0.1502534E+00
          2   -1    0    0  502    0  0.00000000000E+00  0.00000000000E+00  0.23389648552E+04  0.23389648552E+04  0.00000000000E+00 0. -1.
          1   -1    0    0  501    0 -0.00000000000E+00 -0.00000000000E+00 -0.47886314366E+03  0.47886314366E+03  0.00000000000E+00 0. -1.
         25    2    1    2    0    0 -0.72146845291E+02 -0.28374423814E+02  0.31604311219E+03  0.34859150213E+03  0.12499004514E+03 0.  0.
          2    1    1    2  501    0  0.29511205962E+02  0.24679018789E+02 -0.46156046208E+03  0.46316090660E+03  0.00000000000E+00 0. -1.
          1    1    1    2  502    0  0.42635639329E+02  0.36954050249E+01  0.20056190614E+04  0.20060755901E+04  0.00000000000E+00 0. -1.
         22    1    3    3    0    0 -0.58021750253E+02  0.18289893932E+02  0.28354500498E+03  0.28999795442E+03  0.00000000000E+00 0. -1.
         22    1    3    3    0    0 -0.14125095038E+02 -0.46664317745E+02  0.32498107211E+02  0.58593547706E+02  0.00000000000E+00 0. -1.
</event>
<event>
 7    1  0.6103724E-006  0.1243711E+03  0.7818608E-02  0.1301164E+00
          2   -1    0    0  502    0  0.00000000000E+00  0.00000000000E+00  0.43748253591E+03  0.43748253591E+03  0.00000000000E+00 0. -1.
          1   -1    0    0  501    0 -0.00000000000E+00 -0.00000000000E+00 -0.16037104631E+03  0.16037104631E+03  0.00000000000E+00 0. -1.
         25    2    1    2    0    0  0.33370121466E+02  0.91073832952E+02  0.10734129611E+02  0.15861640035E+03  0.12504372382E+03 0.  0.
          2    1    1    2  501    0 -0.15214558874E+01 -0.14904736202E+03 -0.15355091533E+02  0.14984395146E+03  0.00000000000E+00 0. -1.
          1    1    1    2  502    0 -0.31848665579E+02  0.57973529064E+02  0.28173245151E+03  0.28939323041E+03  0.00000000000E+00 0. -1.
         22    1    3    3    0    0 -0.28834217148E+02  0.86612221277E+02  0.24988126330E+02  0.94644045827E+02  0.00000000000E+00 0. -1.
         22    1    3    3    0    0  0.62204338614E+02  0.44616116755E+01 -0.14253996719E+02  0.63972354526E+02  0.00000000000E+00 0. -1.
</event>
<event>
 7    1  0.6103724E-006  0.4563801E+02  0.7818608E-02  0.1486670E+00
          2   -1    0    0  502    0  0.00000000000E+00  0.00000000000E+00  0.20659971284E+03  0.20659971284E+03  0.00000000000E+00 0. -1.
          1   -1    0    0  501    0 -0.00000000000E+00 -0.00000000000E+00 -0.13676271557E+04  0.13676271557E+04  0.00000000000E+00 0. -1.
         25    2    1    2    0    0  0.48270857433E+01  0.25066920166E+02  0.20773869094E+02  0.12925789350E+03  0.12499759258E+03 0.  0.
          2    1    1    2  501    0  0.40006058308E+02 -0.73342568708E+01 -0.13086422544E+04  0.13092741600E+04  0.00000000000E+00 0. -1.
          1    1    1    2  502    0 -0.44833144051E+02 -0.17732663295E+02  0.12684094244E+03  0.13569481506E+03  0.00000000000E+00 0. -1.
         22    1    3    3    0    0 -0.15752261394E+02  0.42634121766E+02 -0.41382227026E+02  0.61467802884E+02  0.00000000000E+00 0.  1.
         22    1    3    3    0    0  0.20579347138E+02 -0.17567201600E+02  0.62156096120E+02  0.67790090615E+02  0.00000000000E+00 0.  1.
</event>
<event>
 7    1  0.6103724E-006  0.6011951E+02  0.7818608E-02  0.1489599E+00
          2   -1    0    0  502    0  0.00000000000E+00  0.00000000000E+00  0.29596804700E+04  0.29596804700E+04  0.00000000000E+00 0. -1.
          1   -1    0    0  501    0 -0.00000000000E+00 -0.00000000000E+00 -0.98028880589E+02  0.98028880589E+02  0.00000000000E+00 0. -1.
         25    2    1    2    0    0  0.60301643483E+02  0.26706149542E+02  0.76869843739E+03  0.78158324248E+03  0.12500228260E+03 0.  0.
          2    1    1    2  501    0 -0.21984479329E+00 -0.30249645914E+02 -0.88662199977E+02  0.93680708336E+02  0.00000000000E+00 0. -1.
          1    1    1    2  502    0 -0.60081798690E+02  0.35434963726E+01  0.21816153520E+04  0.21824453998E+04  0.00000000000E+00 0. -1.
         22    1    3    3    0    0  0.22217460322E+02  0.74189119611E+02  0.50825880252E+03  0.51412513200E+03  0.00000000000E+00 0. -1.
         22    1    3    3    0    0  0.38084183161E+02 -0.47482970069E+02  0.26043963487E+03  0.26745811048E+03  0.00000000000E+00 0. -1.
</event>
<event>
 7    1  0.6103724E-006  0.1955912E+03  0.7818608E-02  0.1271141E+00
          2   -1    0    0  502    0  0.00000000000E+00  0.00000000000E+00  0.14056949379E+04  0.14056949379E+04  0.00000000000E+00 0. -1.
          1   -1    0    0  501    0 -0.00000000000E+00 -0.00000000000E+00 -0.63696702591E+03  0.63696702591E+03  0.00000000000E+00 0. -1.
         25    2    1    2    0    0  0.21578101336E+03 -0.32832625776E+02  0.34845273922E+03  0.42974774307E+03  0.12499753660E+03 0.  0.
          2    1    1    2  501    0 -0.38617950058E+02 -0.40297666352E+02 -0.58594779156E+03  0.58860008700E+03  0.00000000000E+00 0. -1.
          1    1    1    2  502    0 -0.17716306331E+03  0.73130292128E+02  0.10062229643E+04  0.10243141337E+04  0.00000000000E+00 0. -1.
         22    1    3    3    0    0  0.14810279807E+03 -0.59586282622E+02  0.15272919747E+03  0.22093250470E+03  0.00000000000E+00 0. -1.
         22    1    3    3    0    0  0.67678215297E+02  0.26753656846E+02  0.19572354175E+03  0.20881523837E+03  0.00000000000E+00 0. -1.
</event>
<event>
 7    1  0.6103724E-006  0.1766448E+03  0.7818608E-02  0.1306363E+00
          2   -1    0    0  502    0  0.00000000000E+00  0.00000000000E+00  0.23105017120E+04  0.23105017120E+04  0.00000000000E+00 0. -1.
          1   -1    0    0  501    0 -0.00000000000E+00 -0.00000000000E+00 -0.19240281909E+03  0.19240281909E+03  0.00000000000E+00 0. -1.
         25    2    1    2    0    0  0.42173844587E+02 -0.13768330471E+03  0.23988602110E+03  0.30644059543E+03  0.12500083936E+03 0.  0.
          2    1    1    2  501    0 -0.30661734790E+02  0.18056959359E+03 -0.10609182835E+03  0.21166245806E+03  0.00000000000E+00 0. -1.
          1    1    1    2  502    0 -0.11512109797E+02 -0.42886288880E+02  0.19843047001E+04  0.19848014776E+04  0.00000000000E+00 0. -1.
         22    1    3    3    0    0  0.16634670276E+02  0.11503056914E+02  0.94252224598E+02  0.96397688848E+02  0.00000000000E+00 0. -1.
         22    1    3    3    0    0  0.25539174311E+02 -0.14918636162E+03  0.14563379651E+03  0.21004290658E+03  0.00000000000E+00 0. -1.
</event>
<event>
 7    1  0.6103724E-006  0.6678397E+02  0.7818608E-02  0.1419466E+00
          2   -1    0    0  502    0  0.00000000000E+00  0.00000000000E+00  0.97789540733E+03  0.97789540733E+03  0.00000000000E+00 0. -1.
          1   -1    0    0  501    0 -0.00000000000E+00 -0.00000000000E+00 -0.39468434442E+03  0.39468434442E+03  0.00000000000E+00 0. -1.
         25    2    1    2    0    0  0.31974067224E+02  0.40465085255E+02 -0.33374380414E+02  0.13926828614E+03  0.12498816807E+03 0.  0.
          2    1    1    2  501    0 -0.36979217866E+02  0.26538438222E+02 -0.30545425121E+03  0.30882689462E+03  0.00000000000E+00 0. -1.
          1    1    1    2  502    0  0.50051506418E+01 -0.67003523476E+02  0.92203969454E+03  0.92448457099E+03  0.00000000000E+00 0. -1.
         22    1    3    3    0    0 -0.63398947369E+01 -0.42741057101E+02 -0.57473516101E+01  0.43589267921E+02  0.00000000000E+00 0.  1.
         22    1    3    3    0    0  0.38313961961E+02  0.83206142356E+02 -0.27627028804E+02  0.95679018219E+02  0.00000000000E+00 0.  1.
</event>
<event>
 7    1  0.6103724E-006  0.1522947E+03  0.7818608E-02  0.1286659E+00
          2   -1    0    0  502    0  0.00000000000E+00  0.00000000000E+00  0.73663549048E+03  0.73663549048E+03  0.00000000000E+00 0. -1.
          1   -1    0    0  501    0 -0.00000000000E+00 -0.00000000000E+00 -0.18609073910E+04  0.18609073910E+04  0.00000000000E+00 0. -1.
         25    2    1    2    0    0 -0.18298468013E+03  0.35340502086E+02 -0.13074140158E+04  0.13265331176E+04  0.12500543590E+03 0.  0.
          2    1    1    2  501    0  0.12583802050E+03 -0.11747850588E+02 -0.53524660389E+03  0.54996558653E+03  0.00000000000E+00 0. -1.
          1    1    1    2  502    0  0.57146659628E+02 -0.23592651497E+02  0.71838871918E+03  0.72104417739E+03  0.00000000000E+00 0. -1.
         22    1    3    3    0    0 -0.12480294022E+03  0.23175338231E+02 -0.11693239518E+04  0.11761935957E+04  0.00000000000E+00 0. -1.
         22    1    3    3    0    0 -0.58181739909E+02  0.12165163855E+02 -0.13809006397E+03  0.15033952187E+03  0.00000000000E+00 0. -1.
</event>
<event>
 7    1  0.6103724E-006  0.2789020E+03  0.7818608E-02  0.1175761E+00
          2   -1    0    0  502    0  0.00000000000E+00  0.00000000000E+00  0.81829616727E+03  0.81829616727E+03  0.00000000000E+00 0. -1.
          1   -1    0    0  501    0 -0.00000000000E+00 -0.00000000000E+00 -0.10390018086E+04  0.10390018086E+04  0.00000000000E+00 0. -1.
         25    2    1    2    0    0  0.26109794524E+03  0.20413284613E+03 -0.50106939508E+03  0.61362943156E+03  0.12501273823E+03 0.  0.
          2    1    1    2  501    0 -0.15520529262E+03 -0.19759858235E+03 -0.44475806296E+03  0.51082640610E+03  0.00000000000E+00 0. -1.
          1    1    1    2  502    0 -0.10589265262E+03 -0.65342637783E+01  0.72512181670E+03  0.73284213821E+03  0.00000000000E+00 0. -1.
         22    1    3    3    0    0  0.12300203964E+03  0.14758562313E+03 -0.36112563892E+03  0.40905102982E+03  0.00000000000E+00 0.  1.
         22    1    3    3    0    0  0.13809590560E+03  0.56547222997E+02 -0.13994375615E+03  0.20457840174E+03  0.00000000000E+00 0.  1.
</event>
<event>
 7    1  0.6103724E-006  0.7639769E+02  0.7818608E-02  0.1373327E+00
          2   -1    0    0  502    0  0.00000000000E+00  0.00000000000E+00  0.88068710110E+03  0.88068710110E+03  0.00000000000E+00 0. -1.
          1   -1    0    0  501    0 -0.00000000000E+00 -0.00000000000E+00 -0.22000253613E+03  0.22000253613E+03  0.00000000000E+00 0. -1.
         25    2    1    2    0    0 -0.21319197778E+02  0.75803803520E+02  0.16757509453E+03  0.22339876391E+03  0.12499948235E+03 0.  0.
          2    1    1    2  501    0  0.66075616295E+02 -0.39782131004E+02 -0.18308123737E+03  0.19866389831E+03  0.00000000000E+00 0. -1.
          1    1    1    2  502    0 -0.44756418517E+02 -0.36021672516E+02  0.67619070781E+03  0.67862697501E+03  0.00000000000E+00 0. -1.
         22    1    3    3    0    0 -0.48080737782E+02  0.71119633726E+02  0.17526725945E+03  0.19516242436E+03  0.00000000000E+00 0.  1.
         22    1    3    3    0    0  0.26761540004E+02  0.46841697944E+01 -0.76921649179E+01  0.28236339550E+02  0.00000000000E+00 0.  1.
</event>
<event>
 7    1  0.6103724E-006  0.4589585E+02  0.7818608E-02  0.1523298E+00
          2   -1    0    0  502    0  0.00000000000E+00  0.00000000000E+00  0.98529846265E+03  0.98529846265E+03  0.00000000000E+00 0. -1.
          1   -1    0    0  501    0 -0.00000000000E+00 -0.00000000000E+00 -0.26462537653E+04  0.26462537653E+04  0.00000000000E+00 0. -1.
         25    2    1    2    0    0  0.38425183852E+02  0.50877530224E+02  0.81092603957E+02  0.16207065237E+03  0.12500347238E+03 0.  0.
          2    1    1    2  501    0 -0.41513197475E+02 -0.19531394257E+02 -0.26052755481E+04  0.26056794704E+04  0.00000000000E+00 0. -1.
          1    1    1    2  502    0  0.30880136226E+01 -0.31346135968E+02  0.86322764143E+03  0.86380210523E+03  0.00000000000E+00 0. -1.
         22    1    3    3    0    0  0.46564712136E+02  0.20093391492E+02  0.10868608763E+03  0.11993615986E+03  0.00000000000E+00 0. -1.
         22    1    3    3    0    0 -0.81395282834E+01  0.30784138733E+02 -0.27593483672E+02  0.42134492513E+02  0.00000000000E+00 0. -1.
</event>
<event>
 7    1  0.6103724E-006  0.9134100E+02  0.7818608E-02  0.1349510E+00
          2   -1    0    0  502    0  0.00000000000E+00  0.00000000000E+00  0.84072100639E+03  0.84072100639E+03  0.00000000000E+00 0. -1.
          1   -1    0    0  501    0 -0.00000000000E+00 -0.00000000000E+00 -0.10203557093E+04  0.10203557093E+04  0.00000000000E+00 0. -1.
         25    2    1    2    0    0 -0.75933897181E+02 -0.12474900359E+03  0.54708376711E+03  0.57987439893E+03  0.12500159860E+03 0.  0.
          2    1    1    2  501    0  0.60556441033E+02  0.68124192569E+02 -0.99875716913E+03  0.10029077081E+04  0.00000000000E+00 0. -1.
          1    1    1    2  502    0  0.15377456148E+02  0.56624811017E+02  0.27203869910E+03  0.27829460863E+03  0.00000000000E+00 0. -1.
         22    1    3    3    0    0  0.15499145566E+02 -0.67960940226E+02  0.33345618948E+03  0.34066397404E+03  0.00000000000E+00 0. -1.
         22    1    3    3    0    0 -0.91433042747E+02 -0.56788063361E+02  0.21362757764E+03  0.23921042489E+03  0.00000000000E+00 0. -1.
</event>
<event>
 7    1  0.6103724E-006  0.8536161E+02  0.7818608E-02  0.1378983E+00
          2   -1    0    0  502    0  0.00000000000E+00  0.00000000000E+00  0.11102212128E+04  0.11102212128E+04  0.00000000000E+00 0. -1.
          1   -1    0    0  501    0 -0.00000000000E+00 -0.00000000000E+00 -0.16685119091E+04  0.16685119091E+04  0.00000000000E+00 0. -1.
         25    2    1    2    0    0  0.22738012783E+02  0.13042911238E+03 -0.16880169847E+03  0.24828961997E+03  0.12499980558E+03 0.  0.
          2    1    1    2  501    0  0.17851992971E+01 -0.49055412199E+02 -0.14578656254E+04  0.14586918119E+04  0.00000000000E+00 0. -1.
          1    1    1    2  502    0 -0.24523212080E+02 -0.81373700183E+02  0.10683766275E+04  0.10717516901E+04  0.00000000000E+00 0. -1.
         22    1    3    3    0    0  0.42575566070E+02  0.87070886482E+02 -0.17515917043E+03  0.20018679548E+03  0.00000000000E+00 0.  1.
         22    1    3    3    0    0 -0.19837553287E+02  0.43358225900E+02  0.63574719648E+01  0.48102824484E+02  0.00000000000E+00 0.  1.
</event>
<event>
 7    1  0.6103724E-006  0.1685546E+03  0.7818608E-02  0.1293863E+00
          2   -1    0    0  502    0  0.00000000000E+00  0.00000000000E+00  0.16120554830E+04  0.16120554830E+04  0.00000000000E+00 0. -1.
          1   -1    0    0  501    0 -0.00000000000E+00 -0.00000000000E+00 -0.13149221547E+03  0.13149221547E+03  0.00000000000E+00 0. -1.
         25    2    1    2    0    0  0.11756514959E+03 -0.17915434974E+03  0.24560301172E+03  0.34908975127E+03  0.12499987857E+03 0.  0.
          2    1    1    2  501    0 -0.17386277332E+02  0.49238624598E+02 -0.65456771356E+02  0.83733587694E+02  0.00000000000E+00 0. -1.
          1    1    1    2  502    0 -0.10017887226E+03  0.12991572515E+03  0.13004170272E+04  0.13107243595E+04  0.00000000000E+00 0. -1.
         22    1    3    3    0    0  0.36604302810E+02 -0.16015826412E+03  0.17461337850E+03  0.23975065485E+03  0.00000000000E+00 0. -1.
         22    1    3    3    0    0  0.80960846782E+02 -0.18996085623E+02  0.70989633227E+02  0.10933909642E+03  0.00000000000E+00 0. -1.
</event>
<event>
 7    1  0.7184999E-006  0.8319887E+02  0.7818608E-02  0.1385710E+00
          2   -1    0    0  502    0  0.00000000000E+00  0.00000000000E+00  0.15055038091E+04  0.15055038091E+04  0.00000000000E+00 0. -1.
          1   -1    0    0  501    0 -0.00000000000E+00 -0.00000000000E+00 -0.10848893798E+04  0.10848893798E+04  0.00000000000E+00 0. -1.
         25    2    1    2    0    0 -0.10935110557E+03  0.15952968190E+00 -0.96642548096E+02  0.19214714898E+03  0.12499221984E+03 0.  0.
          2    1    1    2  501    0  0.75386820229E+02 -0.33629173359E+02 -0.93829203946E+03  0.94191615618E+03  0.00000000000E+00 0. -1.
          1    1    1    2  502    0  0.33964285337E+02  0.33469643677E+02  0.14555490168E+04  0.14563298837E+04  0.00000000000E+00 0. -1.
         22    1    3    3    0    0  0.15576917092E+02  0.20905710545E+02  0.86346066374E+01  0.27463530568E+02  0.00000000000E+00 0. -1.
         22    1    3    3    0    0 -0.12492802266E+03 -0.20746180863E+02 -0.10527715473E+03  0.16468361841E+03  0.00000000000E+00 0. -1.
</event>
<event>
 7    1  0.6103724E-006  0.7270230E+02  0.7818608E-02  0.1356207E+00
          2   -1    0    0  502    0  0.00000000000E+00  0.00000000000E+00  0.23486947137E+04  0.23486947137E+04  0.00000000000E+00 0. -1.
          1   -1    0    0  501    0 -0.00000000000E+00 -0.00000000000E+00 -0.24232362939E+02  0.24232362939E+02  0.00000000000E+00 0. -1.
         25    2    1    2    0    0  0.61998948027E+02 -0.81252763698E+02  0.15850545892E+04  0.15932574099E+04  0.12500096882E+03 0.  0.
          2    1    1    2  501    0  0.70515302631E+01  0.72197576049E+02  0.53252068063E+02  0.89988870531E+02  0.00000000000E+00 0. -1.
          1    1    1    2  502    0 -0.69050478290E+02  0.90551876496E+01  0.68615569351E+03  0.68968079624E+03  0.00000000000E+00 0. -1.
         22    1    3    3    0    0 -0.10835154683E+02  0.27136643708E+02  0.38873267258E+03  0.38982930718E+03  0.00000000000E+00 0. -1.
         22    1    3    3    0    0  0.72834102710E+02 -0.10838940741E+03  0.11963219167E+04  0.12034281027E+04  0.00000000000E+00 0. -1.
</event>
<event>
 7    1  0.6103724E-006  0.6362183E+02  0.7818608E-02  0.1419621E+00
          2   -1    0    0  502    0  0.00000000000E+00  0.00000000000E+00  0.21596297712E+03  0.21596297712E+03  0.00000000000E+00 0. -1.
          1   -1    0    0  501    0 -0.00000000000E+00 -0.00000000000E+00 -0.47386261305E+03  0.47386261305E+03  0.00000000000E+00 0. -1.
         25    2    1    2    0    0 -0.19451359791E+01 -0.21027387701E+02 -0.37071251239E+02  0.13208000820E+03  0.12499966524E+03 0.  0.
          2    1    1    2  501    0  0.18420431122E+02 -0.44023162750E+02 -0.38105646178E+03  0.38403304312E+03  0.00000000000E+00 0. -1.
          1    1    1    2  502    0 -0.16475295143E+02  0.65050550451E+02  0.16022807709E+03  0.17371253885E+03  0.00000000000E+00 0. -1.
         22    1    3    3    0    0 -0.20651741246E+02  0.99035023576E+01  0.40484368933E+02  0.46514061351E+02  0.00000000000E+00 0. -1.
         22    1    3    3    0    0  0.18706605266E+02 -0.30930890059E+02 -0.77555620172E+02  0.85565946852E+02  0.00000000000E+00 0. -1.
</event>
<event>
 7    1  0.6103724E-006  0.8199810E+02  0.7818608E-02  0.1354221E+00
          2   -1    0    0  502    0  0.00000000000E+00  0.00000000000E+00  0.24212390670E+03  0.24212390670E+03  0.00000000000E+00 0. -1.
          1   -1    0    0  501    0 -0.00000000000E+00 -0.00000000000E+00 -0.49865202958E+03  0.49865202958E+03  0.00000000000E+00 0. -1.
         25    2    1    2    0    0  0.24985768332E+02  0.22731299742E+02  0.66420620085E+02  0.14553066656E+03  0.12500590198E+03 0.  0.
          2    1    1    2  501    0 -0.84072030316E+02 -0.14753686626E+01 -0.44772880039E+03  0.45555610159E+03  0.00000000000E+00 0. -1.
          1    1    1    2  502    0  0.59086261984E+02 -0.21255931079E+02  0.12478005743E+03  0.13968916813E+03  0.00000000000E+00 0. -1.
         22    1    3    3    0    0 -0.30441112019E+02 -0.16571363281E+02  0.69341001452E+02  0.77520615737E+02  0.00000000000E+00 0. -1.
         22    1    3    3    0    0  0.55426880351E+02  0.39302663023E+02 -0.29203813661E+01  0.68010050826E+02  0.00000000000E+00 0. -1.
</event>
<event>
 7    1  0.6103724E-006  0.5899855E+02  0.7818608E-02  0.1521649E+00
          2   -1    0    0  502    0  0.00000000000E+00  0.00000000000E+00  0.76005012839E+03  0.76005012839E+03  0.00000000000E+00 0. -1.
          1   -1    0    0  501    0 -0.00000000000E+00 -0.00000000000E+00 -0.78955163441E+02  0.78955163441E+02  0.00000000000E+00 0. -1.
         25    2    1    2    0    0  0.44658521502E+01  0.34593631343E+02  0.26847989826E+02  0.13252303043E+03  0.12499950349E+03 0.  0.
          2    1    1    2  501    0  0.52746752199E+01  0.24205387335E+02 -0.18613786852E+02  0.30987030121E+02  0.00000000000E+00 0. -1.
          1    1    1    2  502    0 -0.97405273701E+01 -0.58799018678E+02  0.67286076197E+03  0.67549523127E+03  0.00000000000E+00 0. -1.
         22    1    3    3    0    0 -0.50669011921E+02 -0.17361784888E+02  0.16606075446E+02  0.56076216753E+02  0.00000000000E+00 0. -1.
         22    1    3    3    0    0  0.55134864071E+02  0.51955416231E+02  0.10241914380E+02  0.76446813682E+02  0.00000000000E+00 0. -1.
</event>
<event>
 7    1  0.6103724E-006  0.1212291E+03  0.7818608E-02  0.1291716E+00
          2   -1    0    0  502    0  0.00000000000E+00  0.00000000000E+00  0.57771954610E+03  0.57771954610E+03  0.00000000000E+00 0. -1.
          1   -1    0    0  501    0 -0.00000000000E+00 -0.00000000000E+00 -0.71055734796E+03  0.71055734796E+03  0.00000000000E+00 0. -1.
         25    2    1    2    0    0  0.51133434546E+02  0.79155599696E+02  0.14682437706E+03  0.21462010441E+03  0.12499661766E+03 0.  0.
          2    1    1    2  501    0 -0.11521978906E+03 -0.42013986205E+02 -0.66756921604E+03  0.67874106479E+03  0.00000000000E+00 0. -1.
          1    1    1    2  502    0  0.64086354510E+02 -0.37141613491E+02  0.38790703712E+03  0.39491572485E+03  0.00000000000E+00 0. -1.
         22    1    3    3    0    0  0.79221837570E+02  0.30890529583E+02  0.39761434861E+02  0.93868504132E+02  0.00000000000E+00 0.  1.
         22    1    3    3    0    0 -0.28088403023E+02  0.48265070113E+02  0.10706294220E+03  0.12075160028E+03  0.00000000000E+00 0.  1.
</event>
<event>
 7    1  0.6103724E-006  0.7592625E+02  0.7818608E-02  0.1384688E+00
          2   -1    0    0  502    0  0.00000000000E+00  0.00000000000E+00  0.24524297210E+03  0.24524297210E+03  0.00000000000E+00 0. -1.
          1   -1    0    0  501    0 -0.00000000000E+00 -0.00000000000E+00 -0.10732494249E+04  0.10732494249E+04  0.00000000000E+00 0. -1.
         25    2    1    2    0    0 -0.61777552619E+02  0.59786831949E+02 -0.44299352181E+03  0.46825173243E+03  0.12500197308E+03 0.  0.
          2    1    1    2  501    0  0.76260377151E+02 -0.91309462248E+01 -0.61221297771E+03  0.61701195238E+03  0.00000000000E+00 0. -1.
          1    1    1    2  502    0 -0.14482824532E+02 -0.50655885724E+02  0.22720004672E+03  0.23322871220E+03  0.00000000000E+00 0. -1.
         22    1    3    3    0    0 -0.79028354827E+02 -0.92872234085E+01 -0.25968586692E+03  0.27160353986E+03  0.00000000000E+00 0. -1.
         22    1    3    3    0    0  0.17250802208E+02  0.69074055357E+02 -0.18330765490E+03  0.19664819258E+03  0.00000000000E+00 0. -1.
</event>
<event>
 7    1  0.6103724E-006  0.1159161E+03  0.7818608E-02  0.1319796E+00
          2   -1    0    0  502    0  0.00000000000E+00  0.00000000000E+00  0.11060414983E+03  0.11060414983E+03  0.00000000000E+00 0. -1.
          1   -1    0    0  501    0 -0.00000000000E+00 -0.00000000000E+00 -0.11478075326E+04  0.11478075326E+04  0.00000000000E+00 0. -1.
         25    2    1    2    0    0  0.36882253418E+02 -0.71983363569E+02 -0.31319944978E+03  0.34678651731E+03  0.12500035201E+03 0.  0.
          2    1    1    2  501    0 -0.95352371454E+02  0.85166329903E+02 -0.80263558896E+03  0.81275412466E+03  0.00000000000E+00 0. -1.
          1    1    1    2  502    0  0.58470118036E+02 -0.13182966334E+02  0.78631656006E+02  0.98871040405E+02  0.00000000000E+00 0. -1.
         22    1    3    3    0    0 -0.70436148638E+01  0.30084293965E+02 -0.11997452214E+03  0.12388931841E+03  0.00000000000E+00 0.  1.
         22    1    3    3    0    0  0.43925868281E+02 -0.10206765753E+03 -0.19322492763E+03  0.22289719890E+03  0.00000000000E+00 0.  1.
</event>
<event>
 7    1  0.6103724E-006  0.6996664E+02  0.7818608E-02  0.1364256E+00
          2   -1    0    0  502    0  0.00000000000E+00  0.00000000000E+00  0.36255984265E+03  0.36255984265E+03  0.00000000000E+00 0. -1.
          1   -1    0    0  501    0 -0.00000000000E+00 -0.00000000000E+00 -0.56088802731E+03  0.56088802731E+03  0.00000000000E+00 0. -1.
         25    2    1    2    0    0 -0.64655623159E+02  0.58649444649E+02 -0.11799338111E+03  0.19278762382E+03  0.12499809179E+03 0.  0.
          2    1    1    2  501    0 -0.18719657057E+01 -0.70829507279E+02 -0.39882400626E+03  0.40506902045E+03  0.00000000000E+00 0. -1.
          1    1    1    2  502    0  0.66527588865E+02  0.12180062630E+02  0.31848920271E+03  0.32559122569E+03  0.00000000000E+00 0. -1.
         22    1    3    3    0    0 -0.19381807851E+01  0.74955963639E+02 -0.24208655949E+02  0.78792208071E+02  0.00000000000E+00 0. -1.
         22    1    3    3    0    0 -0.62717442374E+02 -0.16306518990E+02 -0.93784725159E+02  0.11399541575E+03  0.00000000000E+00 0. -1.
</event>
<event>
 7    1  0.6103724E-006  0.9534629E+02  0.7818608E-02  0.1378176E+00
          2   -1    0    0  502    0  0.00000000000E+00  0.00000000000E+00  0.45568041902E+03  0.45568041902E+03  0.00000000000E+00 0. -1.
          1   -1    0    0  501    0 -0.00000000000E+00 -0.00000000000E+00 -0.24844983561E+03  0.24844983561E+03  0.00000000000E+00 0. -1.
         25    2    1    2    0    0 -0.59692354627E+02  0.73278036562E+02  0.10308491040E+03  0.18757630090E+03  0.12500208824E+03 0.  0.
          2    1    1    2  501    0  0.87822421860E+02 -0.39135433656E+02 -0.19327071434E+03  0.21586553446E+03  0.00000000000E+00 0. -1.
          1    1    1    2  502    0 -0.28130067234E+02 -0.34142602906E+02  0.29741638735E+03  0.30068841926E+03  0.00000000000E+00 0. -1.
         22    1    3    3    0    0 -0.57946310341E+02  0.55055298498E+02  0.13143405015E+03  0.15383032963E+03  0.00000000000E+00 0. -1.
         22    1    3    3    0    0 -0.17460442859E+01  0.18222738064E+02 -0.28349139745E+02  0.33745971278E+02  0.00000000000E+00 0. -1.
</event>
<event>
 7    1  0.6103724E-006  0.3002860E+02  0.7818608E-02  0.1609443E+00
          2   -1    0    0  502    0  0.00000000000E+00  0.00000000000E+00  0.28098651579E+03  0.28098651579E+03  0.00000000000E+00 0. -1.
          1   -1    0    0  501    0 -0.00000000000E+00 -0.00000000000E+00 -0.12878604216E+04  0.12878604216E+04  0.00000000000E+00 0. -1.
         25    2    1    2    0    0 -0.49926707141E+02  0.79851242491E+01 -0.69652263023E+02  0.15175931633E+03  0.12499205596E+03 0.  0.
          2    1    1    2  501    0  0.23836040888E+02 -0.18152067070E+02 -0.11761462205E+04  0.11765277670E+04  0.00000000000E+00 0. -1.
          1    1    1    2  502    0  0.26090666252E+02  0.10166942821E+02  0.23892457770E+03  0.24055985414E+03  0.00000000000E+00 0. -1.
         22    1    3    3    0    0  0.19957196097E+02  0.40324786245E+02  0.40414671488E+01  0.45174235117E+02  0.00000000000E+00 0. -1.
         22    1    3    3    0    0 -0.69883903238E+02 -0.32339661996E+02 -0.73693730172E+02  0.10658508121E+03  0.00000000000E+00 0. -1.
</event>
<event>
 7    1  0.6103724E-006  0.5526294E+02  0.7818608E-02  0.1516828E+00
          2   -1    0    0  502    0  0.00000000000E+00  0.00000000000E+00  0.33451204583E+04  0.33451204583E+04  0.00000000000E+00 0. -1.
          1   -1    0    0  501    0 -0.00000000000E+00 -0.00000000000E+00 -0.31712728224E+02  0.31712728224E+02  0.00000000000E+00 0. -1.
         25    2    1    2    0    0  0.76411901060E+02 -0.17475251077E+02  0.13682933989E+04  0.13762250270E+04  0.12499734599E+03 0.  0.
          2    1    1    2  501    0 -0.23258156289E+02  0.14324609930E+02 -0.20575191914E+02  0.34197584797E+02  0.00000000000E+00 0. -1.
          1    1    1    2  502    0 -0.53153744771E+02  0.31506411477E+01  0.19656895231E+04  0.19664105747E+04  0.00000000000E+00 0. -1.
         22    1    3    3    0    0  0.69231448333E+02 -0.28708410560E+02  0.13560640503E+04  0.13581335997E+04  0.00000000000E+00 0.  1.
         22    1    3    3    0    0  0.71804527271E+01  0.11233159483E+02  0.12229348604E+02  0.18091427268E+02  0.00000000000E+00 0.  1.
</event>
<event>
 7    1  0.6103724E-006  0.1320160E+03  0.7818608E-02  0.1276331E+00
          2   -1    0    0  502    0  0.00000000000E+00  0.00000000000E+00  0.15535821403E+04  0.15535821403E+04  0.00000000000E+00 0. -1.
          1   -1    0    0  501    0 -0.00000000000E+00 -0.00000000000E+00 -0.29066707125E+03  0.29066707125E+03  0.00000000000E+00 0. -1.
         25    2    1    2    0    0 -0.71810752182E+02 -0.83025480696E+02 -0.75833392248E+02  0.18282607387E+03  0.12499862133E+03 0.  0.
          2    1    1    2  501    0 -0.57836500757E+02  0.53326162823E+02 -0.14860032308E+03  0.16813921756E+03  0.00000000000E+00 0. -1.
          1    1    1    2  502    0  0.12964725294E+03  0.29699317873E+02  0.14873487843E+04  0.14932839201E+04  0.00000000000E+00 0. -1.
         22    1    3    3    0    0 -0.84241810959E+02 -0.34577796905E+02  0.10932775797E+01  0.91068666446E+02  0.00000000000E+00 0. -1.
         22    1    3    3    0    0  0.12431058776E+02 -0.48447683791E+02 -0.76926669828E+02  0.91757407428E+02  0.00000000000E+00 0. -1.
</event>
<event>
 7    1  0.6103724E-006  0.1079661E+03  0.7818608E-02  0.1310495E+00
          2   -1    0    0  502    0  0.00000000000E+00  0.00000000000E+00  0.21097867999E+04  0.21097867999E+04  0.00000000000E+00 0. -1.
          1   -1    0    0  501    0 -0.00000000000E+00 -0.00000000000E+00 -0.65925175098E+03  0.65925175098E+03  0.00000000000E+00 0. -1.
         25    2    1    2    0    0 -0.17407843391E+03  0.18016278233E+01  0.43012479157E+01  0.21439397135E+03  0.12505889493E+03 0.  0.
          2    1    1    2  501    0  0.10471805506E+03  0.74227200487E+01 -0.54861497740E+03  0.55856902999E+03  0.00000000000E+00 0. -1.
          1    1    1    2  502    0  0.69360378847E+02 -0.92243478720E+01  0.19948487784E+04  0.19960755495E+04  0.00000000000E+00 0. -1.
         22    1    3    3    0    0 -0.16298769812E+03 -0.20238275288E+02 -0.35059175968E+02  0.16793964197E+03  0.00000000000E+00 0.  1.
         22    1    3    3    0    0 -0.11090735785E+02  0.22039903111E+02  0.39360423884E+02  0.46454329376E+02  0.00000000000E+00 0.  1.
</event>
<event>
 7    1  0.6103724E-006  0.1069910E+03  0.7818608E-02  0.1339184E+00
          2   -1    0    0  502    0  0.00000000000E+00  0.00000000000E+00  0.66231670613E+03  0.66231670613E+03  0.00000000000E+00 0. -1.
          1   -1    0    0  501    0 -0.00000000000E+00 -0.00000000000E+00 -0.19881633588E+03  0.19881633588E+03  0.00000000000E+00 0. -1.
         25    2    1    2    0    0  0.72026370791E+02  0.84675276847E+02  0.74752413891E+02  0.18322238968E+03  0.12499928039E+03 0.  0.
          2    1    1    2  501    0 -0.50555123593E+02  0.21012554670E+02 -0.13368560680E+03  0.14446172310E+03  0.00000000000E+00 0. -1.
          1    1    1    2  502    0 -0.21471247198E+02 -0.10568783152E+03  0.52243356316E+03  0.53344892924E+03  0.00000000000E+00 0. -1.
         22    1    3    3    0    0  0.10110506797E+03  0.56105802081E+02  0.23944516938E+02  0.11808232589E+03  0.00000000000E+00 0.  1.
         22    1    3    3    0    0 -0.29078697176E+02  0.28569474765E+02  0.50807896953E+02  0.65140063791E+02  0.00000000000E+00 0.  1.
</event>
<event>
 7    1  0.6103724E-006  0.8846072E+02  0.7818608E-02  0.1421271E+00
          2   -1    0    0  502    0  0.00000000000E+00  0.00000000000E+00  0.29852610593E+04  0.29852610593E+04  0.00000000000E+00 0. -1.
          1   -1    0    0  501    0 -0.00000000000E+00 -0.00000000000E+00 -0.41398158857E+02  0.41398158857E+02  0.00000000000E+00 0. -1.
         25    2    1    2    0    0  0.88742662609E+02  0.73579689454E+02  0.39104537137E+03  0.42641612227E+03  0.12499998397E+03 0.  0.
          2    1    1    2  501    0 -0.57233998552E+02 -0.61102201971E+02  0.50658231948E+02  0.97854310790E+02  0.00000000000E+00 0. -1.
          1    1    1    2  502    0 -0.31508664057E+02 -0.12477487483E+02  0.25021592971E+04  0.25023887851E+04  0.00000000000E+00 0. -1.
         22    1    3    3    0    0  0.11832202947E+03  0.42572382583E+02  0.26584843764E+03  0.29408825582E+03  0.00000000000E+00 0. -1.
         22    1    3    3    0    0 -0.29579366856E+02  0.31007306871E+02  0.12519693373E+03  0.13232786645E+03  0.00000000000E+00 0. -1.
</event>
<event>
 7    1  0.6103724E-006  0.2233703E+03  0.7818608E-02  0.1235069E+00
          2   -1    0    0  502    0  0.00000000000E+00  0.00000000000E+00  0.10168175188E+04  0.10168175188E+04  0.00000000000E+00 0. -1.
          1   -1    0    0  501    0 -0.00000000000E+00 -0.00000000000E+00 -0.51540751097E+03  0.51540751097E+03  0.00000000000E+00 0. -1.
         25    2    1    2    0    0  0.23875210976E+03 -0.10019166340E+03  0.53291254707E+03  0.60552564367E+03  0.12499833193E+03 0.  0.
          2    1    1    2  501    0 -0.21964685687E+03  0.32900124239E+02 -0.45030388856E+03  0.50209635724E+03  0.00000000000E+00 0. -1.
          1    1    1    2  502    0 -0.19105252893E+02  0.67291539157E+02  0.41880134931E+03  0.42460302886E+03  0.00000000000E+00 0. -1.
         22    1    3    3    0    0  0.69618700858E+00 -0.41323096838E+02  0.60691551025E+02  0.73427156927E+02  0.00000000000E+00 0.  1.
         22    1    3    3    0    0  0.23805592275E+03 -0.58868566559E+02  0.47222099604E+03  0.53209848674E+03  0.00000000000E+00 0.  1.
</event>
<event>
 7    1  0.6103724E-006  0.4592455E+02  0.7818608E-02  0.1483132E+00
          2   -1    0    0  502    0  0.00000000000E+00  0.00000000000E+00  0.35818947231E+02  0.35818947231E+02  0.00000000000E+00 0. -1.
          1   -1    0    0  501    0 -0.00000000000E+00 -0.00000000000E+00 -0.20030600305E+04  0.20030600305E+04  0.00000000000E+00 0. -1.
         25    2    1    2    0    0 -0.19449460274E+01 -0.66891864384E+02 -0.18735852167E+03  0.23496684732E+03  0.12501159692E+03 0.  0.
          2    1    1    2  501    0 -0.26877530482E+02  0.37124056670E+02 -0.17549620139E+04  0.17555603856E+04  0.00000000000E+00 0. -1.
          1    1    1    2  502    0  0.28822476509E+02  0.29767807714E+02 -0.24920547687E+02  0.48351744800E+02  0.00000000000E+00 0. -1.
         22    1    3    3    0    0  0.35259389873E+02 -0.43010754854E+02 -0.18215023892E+03  0.19045172392E+03  0.00000000000E+00 0.  1.
         22    1    3    3    0    0 -0.37204335900E+02 -0.23881109530E+02 -0.52082827478E+01  0.44515123400E+02  0.00000000000E+00 0.  1.
</event>
<event>
 7    1  0.6103724E-006  0.9886957E+02  0.7818608E-02  0.1345350E+00
          2   -1    0    0  502    0  0.00000000000E+00  0.00000000000E+00  0.30737683866E+03  0.30737683866E+03  0.00000000000E+00 0. -1.
          1   -1    0    0  501    0 -0.00000000000E+00 -0.00000000000E+00 -0.26508088513E+03  0.26508088513E+03  0.00000000000E+00 0. -1.
         25    2    1    2    0    0  0.34823576720E+02 -0.66746627929E+02 -0.67941605273E+02  0.16098791600E+03  0.12503300979E+03 0.  0.
          2    1    1    2  501    0 -0.90995594487E+02  0.66263389962E+02 -0.12581766302E+03  0.16882274548E+03  0.00000000000E+00 0. -1.
          1    1    1    2  502    0  0.56172017768E+02  0.48323796625E+00  0.23605522182E+03  0.24264706231E+03  0.00000000000E+00 0. -1.
         22    1    3    3    0    0  0.79851527955E+01 -0.68829288057E+02  0.17449439544E+02  0.71454296582E+02  0.00000000000E+00 0.  1.
         22    1    3    3    0    0  0.26838423924E+02  0.20826601286E+01 -0.85391044818E+02  0.89533619423E+02  0.00000000000E+00 0.  1.
</event>
<event>
 7    1  0.6103724E-006  0.7051391E+02  0.7818608E-02  0.1396202E+00
          2   -1    0    0  502    0  0.00000000000E+00  0.00000000000E+00  0.10054729712E+04  0.10054729712E+04  0.00000000000E+00 0. -1.
          1   -1    0    0  501    0 -0.00000000000E+00 -0.00000000000E+00 -0.11629975521E+04  0.11629975521E+04  0.00000000000E+00 0. -1.
         25    2    1    2    0    0 -0.75559094535E+02 -0.23978080770E+02  0.13683272328E+03  0.20157710366E+03  0.12500403767E+03 0.  0.
          2    1    1    2  501    0  0.98895270458E+01  0.50765282654E+02 -0.11285283212E+04  0.11297128345E+04  0.00000000000E+00 0. -1.
          1    1    1    2  502    0  0.65669567489E+02 -0.26787201885E+02  0.83417101708E+03  0.83718058507E+03  0.00000000000E+00 0. -1.
         22    1    3    3    0    0 -0.81364721405E+02 -0.38431256481E+02  0.15402153898E+03  0.17838109158E+03  0.00000000000E+00 0. -1.
         22    1    3    3    0    0  0.58056268700E+01  0.14453175711E+02 -0.17188815693E+02  0.23196012080E+02  0.00000000000E+00 0. -1.
</event>
<event>
 7    1  0.6103724E-006  0.7558564E+02  0.7818608E-02  0.1370967E+00
          2   -1    0    0  502    0  0.00000000000E+00  0.00000000000E+00  0.14962335964E+04  0.14962335964E+04  0.00000000000E+00 0. -1.
          1   -1    0    0  501    0 -0.00000000000E+00 -0.00000000000E+00 -0.31181190526E+03  0.31181190526E+03  0.00000000000E+00 0. -1.
         25    2    1    2    0    0  0.19411219967E+00 -0.55584640860E+02  0.15239963328E+02  0.13764819742E+03  0.12500031917E+03 0.  0.
          2    1    1    2  501    0 -0.58817290039E+02  0.68164141844E+01 -0.24606950860E+03  0.25309314525E+03  0.00000000000E+00 0. -1.
          1    1    1    2  502    0  0.58623177839E+02  0.48768226676E+02  0.14152512364E+04  0.14173041589E+04  0.00000000000E+00 0. -1.
         22    1    3    3    0    0 -0.22327577159E+01 -0.72311739933E+02  0.57319385117E+02  0.92301055516E+02  0.00000000000E+00 0.  1.
         22    1    3    3    0    0  0.24268699155E+01  0.16727099073E+02 -0.42079421789E+02  0.45347141907E+02  0.00000000000E+00 0.  1.
</event>
<event>
 7    1  0.6103724E-006  0.3377140E+02  0.7818608E-02  0.1574555E+00
          2   -1    0    0  502    0  0.00000000000E+00  0.00000000000E+00  0.12575042860E+03  0.12575042860E+03  0.00000000000E+00 0. -1.
          1   -1    0    0  501    0 -0.00000000000E+00 -0.00000000000E+00 -0.10886050594E+03  0.10886050594E+03  0.00000000000E+00 0. -1.
         25    2    1    2    0    0 -0.35528340452E+02  0.45493151960E+02  0.17325101905E+02  0.13877015627E+03  0.12500042906E+03 0.  0.
          2    1    1    2  501    0  0.79404762043E+01 -0.29739306199E+02 -0.36521383758E+02  0.47762840861E+02  0.00000000000E+00 0. -1.
          1    1    1    2  502    0  0.27587864248E+02 -0.15753845761E+02  0.36086204511E+02  0.48077937414E+02  0.00000000000E+00 0. -1.
         22    1    3    3    0    0 -0.33918460575E+02  0.54792868936E+02 -0.43155752017E+02  0.77557329674E+02  0.00000000000E+00 0. -1.
         22    1    3    3    0    0 -0.16098798775E+01 -0.92997169764E+01  0.60480853922E+02  0.61212826599E+02  0.00000000000E+00 0. -1.
</event>
<event>
 7    1  0.6103724E-006  0.3852141E+02  0.7818608E-02  0.1568314E+00
          2   -1    0    0  502    0  0.00000000000E+00  0.00000000000E+00  0.91837392134E+03  0.91837392134E+03  0.00000000000E+00 0. -1.
          1   -1    0    0  501    0 -0.00000000000E+00 -0.00000000000E+00 -0.41518128459E+02  0.41518128459E+02  0.00000000000E+00 0. -1.
         25    2    1    2    0    0 -0.44720603663E+02 -0.29838632402E+02  0.11630443026E+03  0.17899933087E+03  0.12499505421E+03 0.  0.
          2    1    1    2  501    0  0.64107621477E+01  0.27315671330E+02  0.10652959236E+02  0.30012152739E+02  0.00000000000E+00 0. -1.
          1    1    1    2  502    0  0.38309841515E+02  0.25229610717E+01  0.74989840338E+03  0.75088056619E+03  0.00000000000E+00 0. -1.
         22    1    3    3    0    0  0.23134665279E+02 -0.37138750912E+01 -0.15762618621E+02  0.28239436105E+02  0.00000000000E+00 0. -1.
         22    1    3    3    0    0 -0.67855268942E+02 -0.26124757311E+02  0.13206704888E+03  0.15075989476E+03  0.00000000000E+00 0. -1.
</event>
<event>
 7    1  0.6103724E-006  0.1227766E+03  0.7818608E-02  0.1253164E+00
          2   -1    0    0  502    0  0.00000000000E+00  0.00000000000E+00  0.15824623738E+04  0.15824623738E+04  0.00000000000E+00 0. -1.
          1   -1    0    0  501    0 -0.00000000000E+00 -0.00000000000E+00 -0.14363954340E+03  0.14363954340E+03  0.00000000000E+00 0. -1.
         25    2    1    2    0    0 -0.21177362083E+03 -0.31527342794E+02  0.40383155109E+03  0.47386373213E+03  0.12499950063E+03 0.  0.
          2    1    1    2  501    0  0.11579968260E+03 -0.13550336191E+02 -0.74064136209E+02  0.13812557465E+03  0.00000000000E+00 0. -1.
          1    1    1    2  502    0  0.95973938227E+02  0.45077678985E+02  0.11090554155E+04  0.11141126104E+04  0.00000000000E+00 0. -1.
         22    1    3    3    0    0 -0.13045228266E+03 -0.23233940146E+02  0.35434216822E+03  0.37830673561E+03  0.00000000000E+00 0. -1.
         22    1    3    3    0    0 -0.81321338164E+02 -0.82934026486E+01  0.49489382862E+02  0.95556996522E+02  0.00000000000E+00 0. -1.
</event>
<event>
 7    1  0.6103724E-006  0.3725449E+02  0.7818608E-02  0.1565031E+00
          2   -1    0    0  502    0  0.00000000000E+00  0.00000000000E+00  0.85925513911E+03  0.85925513911E+03  0.00000000000E+00 0. -1.
          1   -1    0    0  501    0 -0.00000000000E+00 -0.00000000000E+00 -0.12571150395E+03  0.12571150395E+03  0.00000000000E+00 0. -1.
         25    2    1    2    0    0  0.55259984305E+01 -0.72785895701E+01  0.29396814769E+03  0.31957128400E+03  0.12500007669E+03 0.  0.
          2    1    1    2  501    0  0.18587733287E+02 -0.23057432303E+02 -0.11027403831E+03  0.11418192737E+03  0.00000000000E+00 0. -1.
          1    1    1    2  502    0 -0.24113731717E+02  0.30336021873E+02  0.54984952578E+03  0.55121343170E+03  0.00000000000E+00 0. -1.
         22    1    3    3    0    0 -0.26718638257E+02  0.42146814235E+02  0.58845766435E+02  0.77156100263E+02  0.00000000000E+00 0. -1.
         22    1    3    3    0    0  0.32244636688E+02 -0.49425403805E+02  0.23512238126E+03  0.24241518373E+03  0.00000000000E+00 0. -1.
</event>
<event>
 7    1  0.6103724E-006  0.2052842E+03  0.7818608E-02  0.1324103E+00
          2   -1    0    0  502    0  0.00000000000E+00  0.00000000000E+00  0.10727384593E+04  0.10727384593E+04  0.00000000000E+00 0. -1.
          1   -1    0    0  501    0 -0.00000000000E+00 -0.00000000000E+00 -0.15329257684E+04  0.15329257684E+04  0.00000000000E+00 0. -1.
         25    2    1    2    0    0 -0.23391969730E+03  0.90813142899E+01  0.15367334628E+02  0.26582338071E+03  0.12500007881E+03 0.  0.
          2    1    1    2  501    0  0.20376416315E+03  0.32274142179E+01 -0.14000338882E+04  0.14147880189E+04  0.00000000000E+00 0. -1.
          1    1    1    2  502    0  0.30155534153E+02 -0.12308728508E+02  0.92447924453E+03  0.92505282801E+03  0.00000000000E+00 0. -1.
         22    1    3    3    0    0 -0.12907067957E+03 -0.49628471292E+02 -0.21907584252E+02  0.14000774169E+03  0.00000000000E+00 0. -1.
         22    1    3    3    0    0 -0.10484901773E+03  0.58709785581E+02  0.37274918880E+02  0.12581563901E+03  0.00000000000E+00 0. -1.
</event>
<event>
 7    1  0.6103724E-006  0.9949197E+02  0.7818608E-02  0.1316406E+00
          2   -1    0    0  502    0  0.00000000000E+00  0.00000000000E+00  0.25975260568E+04  0.25975260568E+04  0.00000000000E+00 0. -1.
          1   -1    0    0  501    0 -0.00000000000E+00 -0.00000000000E+00 -0.12997600205E+02  0.12997600205E+02  0.00000000000E+00 0. -1.
         25    2    1    2    0    0  0.57473509219E+02  0.95571559365E+02  0.17930489668E+04  0.18008576260E+04  0.12500585867E+03 0.  0.
          2    1    1    2  501    0 -0.71972583068E+02  0.13963379153E+01  0.30167400791E+03  0.31014385295E+03  0.00000000000E+00 0. -1.
          1    1    1    2  502    0  0.14499073848E+02 -0.96967897280E+02  0.48980548186E+03  0.49952217799E+03  0.00000000000E+00 0. -1.
         22    1    3    3    0    0 -0.50416035765E+00 -0.36121497343E+01 -0.45711447106E+00  0.36756981662E+01  0.00000000000E+00 0.  1.
         22    1    3    3    0    0  0.57977669577E+02  0.99183709099E+02  0.17935060813E+04  0.17971819279E+04  0.00000000000E+00 0.  1.
</event>
<event>
 7    1  0.6103724E-006  0.6818656E+02  0.7818608E-02  0.1498127E+00
          2   -1    0    0  502    0  0.00000000000E+00  0.00000000000E+00  0.10702977803E+04  0.10702977803E+04  0.00000000000E+00 0. -1.
          1   -1    0    0  501    0 -0.00000000000E+00 -0.00000000000E+00 -0.18488427384E+04  0.18488427384E+04  0.00000000000E+00 0. -1.
         25    2    1    2    0    0  0.86178644993E+02 -0.20436086469E+02 -0.48675567538E+03  0.51029401370E+03  0.12499800168E+03 0.  0.
          2    1    1    2  501    0 -0.61628044129E+02  0.25853089837E+02 -0.13493414878E+04  0.13509955029E+04  0.00000000000E+00 0. -1.
          1    1    1    2  502    0 -0.24550600864E+02 -0.54170033680E+01  0.10575522051E+04  0.10578510020E+04  0.00000000000E+00 0. -1.
         22    1    3    3    0    0  0.55504593111E+02  0.14933485654E+02 -0.68474794658E+02  0.89401154096E+02  0.00000000000E+00 0.  1.
         22    1    3    3    0    0  0.30674051882E+02 -0.35369572123E+02 -0.41828088072E+03  0.42089285961E+03  0.00000000000E+00 0.  1.
</event>
<event>
 7    1  0.6103724E-006  0.9851457E+02  0.7818608E-02  0.1304794E+00
          2   -1    0    0  502    0  0.00000000000E+00  0.00000000000E+00  0.88270224632E+03  0.88270224632E+03  0.00000000000E+00 0. -1.
          1   -1    0    0  501    0 -0.00000000000E+00 -0.00000000000E+00 -0.17955873535E+03  0.17955873535E+03  0.00000000000E+00 0. -1.
         25    2    1    2    0    0 -0.71228902160E+02  0.15686308874E+03  0.19269347901E+03  0.28711885742E+03  0.12500750505E+03 0.  0.
          2    1    1    2  501    0  0.21947167585E+02 -0.77731854747E+02 -0.11624500395E+03  0.14155147597E+03  0.00000000000E+00 0. -1.
          1    1    1    2  502    0  0.49281734575E+02 -0.79131233993E+02  0.62669503591E+03  0.63359064828E+03  0.00000000000E+00 0. -1.
         22    1    3    3    0    0 -0.58634285180E+02  0.93692916502E+02  0.19333884221E+03  0.22270215515E+03  0.00000000000E+00 0.  1.
         22    1    3    3    0    0 -0.12594616980E+02  0.63170172238E+02 -0.64536319818E+00  0.64416702269E+02  0.00000000000E+00 0.  1.
</event>
<event>
 7    1  0.6103724E-006  0.5271370E+02  0.7818608E-02  0.1463495E+00
          2   -1    0    0  502    0  0.00000000000E+00  0.00000000000E+00  0.66872016844E+03  0.66872016844E+03  0.00000000000E+00 0. -1.
          1   -1    0    0  501    0 -0.00000000000E+00 -0.00000000000E+00 -0.57319271750E+03  0.57319271750E+03  0.00000000000E+00 0. -1.
         25    2    1    2    0    0  0.43487900514E+02  0.74466353196E+02  0.94283354297E+01  0.15215512515E+03  0.12500341335E+03 0.  0.
          2    1    1    2  501    0 -0.89121724125E+01 -0.51472258619E+02 -0.49973301942E+03  0.50245587958E+03  0.00000000000E+00 0. -1.
          1    1    1    2  502    0 -0.34575728102E+02 -0.22994094577E+02  0.58583213493E+03  0.58730188121E+03  0.00000000000E+00 0. -1.
         22    1    3    3    0    0  0.62081915950E+02  0.37900601068E+02  0.54739522584E+02  0.91033154302E+02  0.00000000000E+00 0. -1.
         22    1    3    3    0    0 -0.18594015436E+02  0.36565752128E+02 -0.45311187155E+02  0.61121970846E+02  0.00000000000E+00 0. -1.
</event>
<event>
 7    1  0.6103724E-006  0.4182374E+02  0.7818608E-02  0.1505515E+00
          2   -1    0    0  502    0  0.00000000000E+00  0.00000000000E+00  0.10275221946E+04  0.10275221946E+04  0.00000000000E+00 0. -1.
          1   -1    0    0  501    0 -0.00000000000E+00 -0.00000000000E+00 -0.10752324112E+03  0.10752324112E+03  0.00000000000E+00 0. -1.
         25    2    1    2    0    0 -0.10530572440E+02 -0.69018340777E+02  0.26060316014E+03  0.29734351411E+03  0.12499893594E+03 0.  0.
          2    1    1    2  501    0  0.24538838574E+02  0.30266776648E+02 -0.84297943988E+02  0.92867517076E+02  0.00000000000E+00 0. -1.
          1    1    1    2  502    0 -0.14008266134E+02  0.38751564129E+02  0.74369373733E+03  0.74483440454E+03  0.00000000000E+00 0. -1.
         22    1    3    3    0    0 -0.91221096959E+01 -0.28483056858E+02  0.25458968157E+03  0.25634040527E+03  0.00000000000E+00 0. -1.
         22    1    3    3    0    0 -0.14084627444E+01 -0.40535283919E+02  0.60134785713E+01  0.41003108836E+02  0.00000000000E+00 0. -1.
</event>
<event>
 7    1  0.6103724E-006  0.3299936E+02  0.7818608E-02  0.1596533E+00
          2   -1    0    0  502    0  0.00000000000E+00  0.00000000000E+00  0.10569915212E+04  0.10569915212E+04  0.00000000000E+00 0. -1.
          1   -1    0    0  501    0 -0.00000000000E+00 -0.00000000000E+00 -0.14071962559E+04  0.14071962559E+04  0.00000000000E+00 0. -1.
         25    2    1    2    0    0 -0.13193321062E+02  0.37838290513E+02 -0.17214978132E+03  0.21648764568E+03  0.12500221427E+03 0.  0.
          2    1    1    2  501    0 -0.15985250527E+02 -0.22414487202E+02 -0.12124580848E+04  0.12127706068E+04  0.00000000000E+00 0. -1.
          1    1    1    2  502    0  0.29178571589E+02 -0.15423803311E+02  0.10344031314E+04  0.10349295246E+04  0.00000000000E+00 0. -1.
         22    1    3    3    0    0 -0.52143527686E+02  0.29949915122E+01 -0.15157761455E+03  0.16032370594E+03  0.00000000000E+00 0. -1.
         22    1    3    3    0    0  0.38950206624E+02  0.34843299000E+02 -0.20572166772E+02  0.56163939739E+02  0.00000000000E+00 0. -1.
</event>
<event>
 7    1  0.6103724E-006  0.5480986E+02  0.7818608E-02  0.1511908E+00
          2   -1    0    0  502    0  0.00000000000E+00  0.00000000000E+00  0.18605601771E+03  0.18605601771E+03  0.00000000000E+00 0. -1.
          1   -1    0    0  501    0 -0.00000000000E+00 -0.00000000000E+00 -0.79174564495E+02  0.79174564495E+02  0.00000000000E+00 0. -1.
         25    2    1    2    0    0  0.26817591148E+02 -0.62990588766E+02  0.22396391871E+02  0.14427592733E+03  0.12500778924E+03 0.  0.
          2    1    1    2  501    0  0.11770865433E+02  0.25922155243E+02  0.12087133612E+02  0.30929115804E+02  0.00000000000E+00 0. -1.
          1    1    1    2  502    0 -0.38588456581E+02  0.37068433523E+02  0.72397927732E+02  0.90025539071E+02  0.00000000000E+00 0. -1.
         22    1    3    3    0    0  0.70610240501E+02 -0.68054251901E+01  0.60968596207E+01  0.71198957667E+02  0.00000000000E+00 0.  1.
         22    1    3    3    0    0 -0.43792649353E+02 -0.56185163576E+02  0.16299532251E+02  0.73076969662E+02  0.00000000000E+00 0.  1.
</event>
<event>
 7    1  0.6103724E-006  0.1056089E+03  0.7818608E-02  0.1420563E+00
          2   -1    0    0  502    0  0.00000000000E+00  0.00000000000E+00  0.70489946400E+03  0.70489946400E+03  0.00000000000E+00 0. -1.
          1   -1    0    0  501    0 -0.00000000000E+00 -0.00000000000E+00 -0.35395564081E+03  0.35395564081E+03  0.00000000000E+00 0. -1.
         25    2    1    2    0    0 -0.75899948772E+02  0.68775995852E+02  0.45226516848E+02  0.16782014497E+03  0.12500889329E+03 0.  0.
          2    1    1    2  501    0 -0.19007749392E+02 -0.21291176629E+02 -0.28724065397E+03  0.28865516111E+03  0.00000000000E+00 0. -1.
          1    1    1    2  502    0  0.94907698165E+02 -0.47484819222E+02  0.59295796031E+03  0.60237979874E+03  0.00000000000E+00 0. -1.
         22    1    3    3    0    0  0.18725016234E+02 -0.17414173097E+02  0.29219310706E+02  0.38828440295E+02  0.00000000000E+00 0. -1.
         22    1    3    3    0    0 -0.94624965006E+02  0.86190168949E+02  0.16007206142E+02  0.12899170467E+03  0.00000000000E+00 0. -1.
</event>
<event>
 7    1  0.6103724E-006  0.1077310E+03  0.7818608E-02  0.1280078E+00
          2   -1    0    0  502    0  0.00000000000E+00  0.00000000000E+00  0.28748749315E+04  0.28748749315E+04  0.00000000000E+00 0. -1.
          1   -1    0    0  501    0 -0.00000000000E+00 -0.00000000000E+00 -0.38823581261E+04  0.38823581261E+04  0.00000000000E+00 0. -1.
         25    2    1    2    0    0  0.15497159282E+03  0.12337636393E+03  0.72831698189E+02  0.24529184984E+03  0.12500285428E+03 0.  0.
          2    1    1    2  501    0 -0.79900624439E+02 -0.47623147954E+02 -0.37945108428E+04  0.37956507492E+04  0.00000000000E+00 0. -1.
          1    1    1    2  502    0 -0.75070968378E+02 -0.75753215974E+02  0.27141959501E+04  0.27162904586E+04  0.00000000000E+00 0. -1.
         22    1    3    3    0    0 -0.13403044931E+01  0.54250282980E+02 -0.10294292499E+02  0.55234609418E+02  0.00000000000E+00 0. -1.
         22    1    3    3    0    0  0.15631189731E+03  0.69126080949E+02  0.83125990689E+02  0.19005724042E+03  0.00000000000E+00 0. -1.
</event>
<event>
 7    1  0.6103724E-006  0.6146164E+02  0.7818608E-02  0.1422844E+00
          2   -1    0    0  502    0  0.00000000000E+00  0.00000000000E+00  0.11918431893E+03  0.11918431893E+03  0.00000000000E+00 0. -1.
          1   -1    0    0  501    0 -0.00000000000E+00 -0.00000000000E+00 -0.87750210229E+03  0.87750210229E+03  0.00000000000E+00 0. -1.
         25    2    1    2    0    0  0.11241625484E+02  0.20204853834E+02 -0.38174766141E+03  0.40236480053E+03  0.12502617907E+03 0.  0.
          2    1    1    2  501    0 -0.34592586110E+02 -0.62361445187E+02 -0.47733124661E+03  0.48262896292E+03  0.00000000000E+00 0. -1.
          1    1    1    2  502    0  0.23350960626E+02  0.42156591353E+02  0.10076112466E+03  0.11169265777E+03  0.00000000000E+00 0. -1.
         22    1    3    3    0    0 -0.29314758153E+02  0.56841283197E+02 -0.27618081739E+03  0.28348920688E+03  0.00000000000E+00 0.  1.
         22    1    3    3    0    0  0.40556383637E+02 -0.36636429363E+02 -0.10556684402E+03  0.11887559365E+03  0.00000000000E+00 0.  1.
</event>
<event>
 7    1  0.6103724E-006  0.7088589E+02  0.7818608E-02  0.1482191E+00
          2   -1    0    0  502    0  0.00000000000E+00  0.00000000000E+00  0.25668413497E+04  0.25668413497E+04  0.00000000000E+00 0. -1.
          1   -1    0    0  501    0 -0.00000000000E+00 -0.00000000000E+00 -0.60006012790E+01  0.60006012790E+01  0.00000000000E+00 0. -1.
         25    2    1    2    0    0 -0.22494147758E+02  0.56443487325E+02  0.14178117216E+04  0.14246073815E+04  0.12499703876E+03 0.  0.
          2    1    1    2  501    0 -0.26968457245E+02  0.17101156683E+01  0.16189008367E+03  0.16412989177E+03  0.00000000000E+00 0. -1.
          1    1    1    2  502    0  0.49462605003E+02 -0.58153602993E+02  0.98113894313E+03  0.98410467764E+03  0.00000000000E+00 0. -1.
         22    1    3    3    0    0 -0.53978661999E+02 -0.55411459601E+01  0.31766215112E+03  0.32226331237E+03  0.00000000000E+00 0.  1.
         22    1    3    3    0    0  0.31484514241E+02  0.61984633285E+02  0.11001495705E+04  0.11023440691E+04  0.00000000000E+00 0.  1.
</event>
<event>
 7    1  0.6103724E-006  0.2503244E+03  0.7818608E-02  0.1260860E+00
          2   -1    0    0  502    0  0.00000000000E+00  0.00000000000E+00  0.25131598724E+04  0.25131598724E+04  0.00000000000E+00 0. -1.
          1   -1    0    0  501    0 -0.00000000000E+00 -0.00000000000E+00 -0.57142850333E+03  0.57142850333E+03  0.00000000000E+00 0. -1.
         25    2    1    2    0    0  0.18218446834E+03  0.23547130482E+03 -0.37050501384E+03  0.49146333551E+03  0.12499731586E+03 0.  0.
          2    1    1    2  501    0 -0.27156815277E+02 -0.39821023416E+02 -0.12974990949E+03  0.13841331415E+03  0.00000000000E+00 0. -1.
          1    1    1    2  502    0 -0.15502765306E+03 -0.19565028140E+03  0.24419862924E+04  0.24547117260E+04  0.00000000000E+00 0. -1.
         22    1    3    3    0    0  0.19556803231E+02 -0.15896940410E+01 -0.81483453458E+02  0.83812581796E+02  0.00000000000E+00 0.  1.
         22    1    3    3    0    0  0.16262766511E+03  0.23706099886E+03 -0.28902156038E+03  0.40765075371E+03  0.00000000000E+00 0.  1.
</event>
<event>
 7    1  0.6103724E-006  0.7402970E+02  0.7818608E-02  0.1429497E+00
          2   -1    0    0  502    0  0.00000000000E+00  0.00000000000E+00  0.13346712118E+04  0.13346712118E+04  0.00000000000E+00 0. -1.
          1   -1    0    0  501    0 -0.00000000000E+00 -0.00000000000E+00 -0.76608563369E+02  0.76608563369E+02  0.00000000000E+00 0. -1.
         25    2    1    2    0    0 -0.54874481068E+02  0.13497253100E+02  0.20140356804E+03  0.24368119750E+03  0.12499497704E+03 0.  0.
          2    1    1    2  501    0  0.57122048093E+02 -0.51462594729E+02 -0.28333459873E+02  0.81939685031E+02  0.00000000000E+00 0. -1.
          1    1    1    2  502    0 -0.22475670251E+01  0.37965341629E+02  0.10849925403E+04  0.10856588927E+04  0.00000000000E+00 0. -1.
         22    1    3    3    0    0 -0.42705492361E+02 -0.17074189943E+02  0.70110968204E+01  0.46523569495E+02  0.00000000000E+00 0. -1.
         22    1    3    3    0    0 -0.12168988708E+02  0.30571443043E+02  0.19439247122E+03  0.19715762801E+03  0.00000000000E+00 0. -1.
</event>
<event>
 7    1  0.6103724E-006  0.3809108E+02  0.7818608E-02  0.1525584E+00
          2   -1    0    0  502    0  0.00000000000E+00  0.00000000000E+00  0.92663245264E+03  0.92663245264E+03  0.00000000000E+00 0. -1.
          1   -1    0    0  501    0 -0.00000000000E+00 -0.00000000000E+00 -0.37765384894E+03  0.37765384894E+03  0.00000000000E+00 0. -1.
         25    2    1    2    0    0  0.11811547050E+02 -0.18939629952E+02  0.42244514157E+02  0.13381830037E+03  0.12499806523E+03 0.  0.
          2    1    1    2  501    0 -0.37613950320E+02 -0.81060926047E+01 -0.33033316463E+03  0.33256656123E+03  0.00000000000E+00 0. -1.
          1    1    1    2  502    0  0.25802403270E+02  0.27045722556E+02  0.83706725417E+03  0.83790143998E+03  0.00000000000E+00 0. -1.
         22    1    3    3    0    0  0.57259311471E+02  0.44232973404E+01 -0.12664223717E+02  0.58809666483E+02  0.00000000000E+00 0.  1.
         22    1    3    3    0    0 -0.45447764421E+02 -0.23362927292E+02  0.54908737874E+02  0.75008633886E+02  0.00000000000E+00 0.  1.
</event>
<event>
 7    1  0.6103724E-006  0.1088607E+03  0.7818608E-02  0.1430730E+00
          2   -1    0    0  502    0  0.00000000000E+00  0.00000000000E+00  0.10580687027E+04  0.10580687027E+04  0.00000000000E+00 0. -1.
          1   -1    0    0  501    0 -0.00000000000E+00 -0.00000000000E+00 -0.12616034099E+03  0.12616034099E+03  0.00000000000E+00 0. -1.
         25    2    1    2    0    0  0.13250155363E+01 -0.92860018670E+02  0.44098262183E+02  0.16184629403E+03  0.12499930972E+03 0.  0.
          2    1    1    2  501    0 -0.20595560443E+02 -0.15242649896E+02 -0.61562093616E+02  0.66681383131E+02  0.00000000000E+00 0. -1.
          1    1    1    2  502    0  0.19270544906E+02  0.10810266857E+03  0.94937219317E+03  0.95570136654E+03  0.00000000000E+00 0. -1.
         22    1    3    3    0    0 -0.47170482706E+02  0.14245782321E+01  0.27238503523E+02  0.54488713841E+02  0.00000000000E+00 0. -1.
         22    1    3    3    0    0  0.48495498243E+02 -0.94284596902E+02  0.16859758660E+02  0.10735758019E+03  0.00000000000E+00 0. -1.
</event>
<event>
 7    1  0.6103724E-006  0.8801848E+02  0.7818608E-02  0.1309700E+00
          2   -1    0    0  502    0  0.00000000000E+00  0.00000000000E+00  0.15850761458E+04  0.15850761458E+04  0.00000000000E+00 0. -1.
          1   -1    0    0  501    0 -0.00000000000E+00 -0.00000000000E+00 -0.72054439892E+03  0.72054439892E+03  0.00000000000E+00 0. -1.
         25    2    1    2    0    0  0.20295590119E+01 -0.26214245436E+01  0.10035483414E+03  0.16033755997E+03  0.12500419763E+03 0.  0.
          2    1    1    2  501    0  0.87315812243E+02 -0.11099622740E+02 -0.68633567552E+03  0.69195658259E+03  0.00000000000E+00 0. -1.
          1    1    1    2  502    0 -0.89345371255E+02  0.13721047283E+02  0.14505125883E+04  0.14533264022E+04  0.00000000000E+00 0. -1.
         22    1    3    3    0    0 -0.26720727312E+02 -0.15867398511E+02  0.11941145452E+03  0.12338908814E+03  0.00000000000E+00 0. -1.
         22    1    3    3    0    0  0.28750286324E+02  0.13245973967E+02 -0.19056620375E+02  0.36948471825E+02  0.00000000000E+00 0. -1.
</event>
<event>
 7    1  0.6103724E-006  0.5979082E+02  0.7818608E-02  0.1507970E+00
          2   -1    0    0  502    0  0.00000000000E+00  0.00000000000E+00  0.44743882953E+03  0.44743882953E+03  0.00000000000E+00 0. -1.
          1   -1    0    0  501    0 -0.00000000000E+00 -0.00000000000E+00 -0.51497969798E+03  0.51497969798E+03  0.00000000000E+00 0. -1.
         25    2    1    2    0    0 -0.84485808372E+02 -0.13326457411E+02  0.29782412176E+02  0.15435785197E+03  0.12499563235E+03 0.  0.
          2    1    1    2  501    0  0.59053081927E+02  0.48630975390E+01 -0.45024268575E+03  0.45412486419E+03  0.00000000000E+00 0. -1.
          1    1    1    2  502    0  0.25432726445E+02  0.84633598717E+01  0.35291940513E+03  0.35393581134E+03  0.00000000000E+00 0. -1.
         22    1    3    3    0    0 -0.66619561607E+02 -0.25104528395E+02 -0.39797734279E+02  0.81561406243E+02  0.00000000000E+00 0. -1.
         22    1    3    3    0    0 -0.17866246765E+02  0.11778070984E+02  0.69580146455E+02  0.72796445726E+02  0.00000000000E+00 0. -1.
</event>
<event>
 7    1  0.6103724E-006  0.1380408E+03  0.7818608E-02  0.1343601E+00
          2   -1    0    0  502    0  0.00000000000E+00  0.00000000000E+00  0.71610292787E+02  0.71610292787E+02  0.00000000000E+00 0. -1.
          1   -1    0    0  501    0 -0.00000000000E+00 -0.00000000000E+00 -0.10362533838E+04  0.10362533838E+04  0.00000000000E+00 0. -1.
         25    2    1    2    0    0  0.16815574984E+02  0.10205324682E+03 -0.62389692157E+03  0.64464737838E+03  0.12500097984E+03 0.  0.
          2    1    1    2  501    0 -0.65750788088E+01  0.40310942885E+02 -0.31566619097E+03  0.31829757759E+03  0.00000000000E+00 0. -1.
          1    1    1    2  502    0 -0.10240496175E+02 -0.14236418971E+03 -0.25079978509E+02  0.14491872065E+03  0.00000000000E+00 0. -1.
         22    1    3    3    0    0  0.82170942837E+01 -0.24105179393E+02 -0.21869946512E+03  0.22017728393E+03  0.00000000000E+00 0. -1.
         22    1    3    3    0    0  0.85984806998E+01  0.12615842622E+03 -0.40519745644E+03  0.42447009445E+03  0.00000000000E+00 0. -1.
</event>
<event>
 7    1  0.6103724E-006  0.2900752E+02  0.7818608E-02  0.1611045E+00
          2   -1    0    0  502    0  0.00000000000E+00  0.00000000000E+00  0.86541826519E+02  0.86541826519E+02  0.00000000000E+00 0. -1.
          1   -1    0    0  501    0 -0.00000000000E+00 -0.00000000000E+00 -0.23347887861E+04  0.23347887861E+04  0.00000000000E+00 0. -1.
         25    2    1    2    0    0 -0.29769614465E+02 -0.10011528930E+02 -0.90373753819E+03  0.91288140457E+03  0.12499784084E+03 0.  0.
          2    1    1    2  501    0  0.22323246266E+02 -0.18058175847E+02 -0.14237578633E+04  0.14240473582E+04  0.00000000000E+00 0. -1.
          1    1    1    2  502    0  0.74463681984E+01  0.28069704776E+02  0.79248441880E+02  0.84401849897E+02  0.00000000000E+00 0. -1.
         22    1    3    3    0    0 -0.49078199332E+02 -0.50550390105E+02 -0.33254915873E+03  0.33993080850E+03  0.00000000000E+00 0. -1.
         22    1    3    3    0    0  0.19308584867E+02  0.40538861175E+02 -0.57118837945E+03  0.57295059607E+03  0.00000000000E+00 0. -1.
</event>
<event>
 7    1  0.6103724E-006  0.8564287E+02  0.7818608E-02  0.1319119E+00
          2   -1    0    0  502    0  0.00000000000E+00  0.00000000000E+00  0.21672234511E+03  0.21672234511E+03  0.00000000000E+00 0. -1.
          1   -1    0    0  501    0 -0.00000000000E+00 -0.00000000000E+00 -0.38995269501E+03  0.38995269501E+03  0.00000000000E+00 0. -1.
         25    2    1    2    0    0  0.94551576891E+02 -0.62561800545E+01 -0.57098333321E+02  0.16692546050E+03  0.12499899686E+03 0.  0.
          2    1    1    2  501    0 -0.36513362908E+02  0.72994176902E+02 -0.25909166394E+03  0.27164290135E+03  0.00000000000E+00 0. -1.
          1    1    1    2  502    0 -0.58038213983E+02 -0.66737996848E+02  0.14295964736E+03  0.16810667827E+03  0.00000000000E+00 0. -1.
         22    1    3    3    0    0 -0.62927551345E+01 -0.42811943033E+02 -0.38781207365E+02  0.58107170626E+02  0.00000000000E+00 0.  1.
         22    1    3    3    0    0  0.10084433203E+03  0.36555762979E+02 -0.18317125956E+02  0.10881828988E+03  0.00000000000E+00 0.  1.
</event>
<event>
 7    1  0.6103724E-006  0.5843564E+02  0.7818608E-02  0.1494852E+00
          2   -1    0    0  502    0  0.00000000000E+00  0.00000000000E+00  0.60234309805E+03  0.60234309805E+03  0.00000000000E+00 0. -1.
          1   -1    0    0  501    0 -0.00000000000E+00 -0.00000000000E+00 -0.12815310155E+03  0.12815310155E+03  0.00000000000E+00 0. -1.
         25    2    1    2    0    0 -0.36349901353E+02  0.74886774057E+01  0.36732697118E+03  0.38978383155E+03  0.12499974384E+03 0.  0.
          2    1    1    2  501    0  0.47003923947E+02 -0.35540759783E+02 -0.10839257490E+03  0.12337530047E+03  0.00000000000E+00 0. -1.
          1    1    1    2  502    0 -0.10654022594E+02  0.28052082377E+02  0.21525560021E+03  0.21733706758E+03  0.00000000000E+00 0. -1.
         22    1    3    3    0    0 -0.59785325193E+02  0.44692246115E+02  0.14428858857E+03  0.16245269700E+03  0.00000000000E+00 0.  1.
         22    1    3    3    0    0  0.23435423840E+02 -0.37203568709E+02  0.22303838262E+03  0.22733113455E+03  0.00000000000E+00 0.  1.
</event>
<event>
 7    1  0.6103724E-006  0.1060405E+03  0.7818608E-02  0.1397210E+00
          2   -1    0    0  502    0  0.00000000000E+00  0.00000000000E+00  0.13159723969E+04  0.13159723969E+04  0.00000000000E+00 0. -1.
          1   -1    0    0  501    0 -0.00000000000E+00 -0.00000000000E+00 -0.22174399600E+03  0.22174399600E+03  0.00000000000E+00 0. -1.
         25    2    1    2    0    0  0.10863902367E+02  0.73323879826E+02  0.40479721106E+02  0.15085657681E+03  0.12499873287E+03 0.  0.
          2    1    1    2  501    0  0.13678497043E+02  0.31255249826E+02 -0.16241580010E+03  0.16596048941E+03  0.00000000000E+00 0. -1.
          1    1    1    2  502    0 -0.24542399409E+02 -0.10457912965E+03  0.12161644799E+04  0.12208993267E+04  0.00000000000E+00 0. -1.
         22    1    3    3    0    0  0.11212160224E+02  0.10727810485E+03  0.16105752911E+02  0.10905823945E+03  0.00000000000E+00 0. -1.
         22    1    3    3    0    0 -0.34825785736E+00 -0.33954225019E+02  0.24373968196E+02  0.41798337357E+02  0.00000000000E+00 0. -1.
</event>
<event>
 7    1  0.6103724E-006  0.2641317E+03  0.7818608E-02  0.1225345E+00
          2   -1    0    0  502    0  0.00000000000E+00  0.00000000000E+00  0.48299936888E+02  0.48299936888E+02  0.00000000000E+00 0. -1.
          1   -1    0    0  501    0 -0.00000000000E+00 -0.00000000000E+00 -0.26613689424E+04  0.26613689424E+04  0.00000000000E+00 0. -1.
         25    2    1    2    0    0  0.71287447032E+02  0.22037877154E+03 -0.50599784062E+03  0.57035773057E+03  0.12500169223E+03 0.  0.
          2    1    1    2  501    0 -0.32459402571E+02 -0.27300674876E+03 -0.19482241056E+04  0.19675272459E+04  0.00000000000E+00 0. -1.
          1    1    1    2  502    0 -0.38828044461E+02  0.52627977222E+02 -0.15884705926E+03  0.17178390279E+03  0.00000000000E+00 0. -1.
         22    1    3    3    0    0  0.23885777156E+02  0.16368177153E+03 -0.22169032861E+03  0.27660233998E+03  0.00000000000E+00 0.  1.
         22    1    3    3    0    0  0.47401669876E+02  0.56697000009E+02 -0.28430751201E+03  0.29375539059E+03  0.00000000000E+00 0.  1.
</event>
<event>
 7    1  0.6103724E-006  0.5772502E+02  0.7818608E-02  0.1419557E+00
          2   -1    0    0  502    0  0.00000000000E+00  0.00000000000E+00  0.50404912028E+03  0.50404912028E+03  0.00000000000E+00 0. -1.
          1   -1    0    0  501    0 -0.00000000000E+00 -0.00000000000E+00 -0.24340750631E+03  0.24340750631E+03  0.00000000000E+00 0. -1.
         25    2    1    2    0    0  0.14099613015E+02  0.14865302215E+02 -0.92225250757E+02  0.15668339913E+03  0.12499765754E+03 0.  0.
          2    1    1    2  501    0  0.41770203858E+02 -0.32006177122E+02 -0.11120972676E+03  0.12303149446E+03  0.00000000000E+00 0. -1.
          1    1    1    2  502    0 -0.55869816873E+02  0.17140874906E+02  0.46407659148E+03  0.46774173300E+03  0.00000000000E+00 0. -1.
         22    1    3    3    0    0  0.53156141296E+02 -0.24649743713E+02 -0.13166426823E+02  0.60054475419E+02  0.00000000000E+00 0.  1.
         22    1    3    3    0    0 -0.39056528281E+02  0.39515045928E+02 -0.79058823934E+02  0.96628923713E+02  0.00000000000E+00 0.  1.
</event>
<event>
 7    1  0.6103724E-006  0.4540455E+02  0.7818608E-02  0.1569585E+00
          2   -1    0    0  502    0  0.00000000000E+00  0.00000000000E+00  0.25127320425E+04  0.25127320425E+04  0.00000000000E+00 0. -1.
          1   -1    0    0  501    0 -0.00000000000E+00 -0.00000000000E+00 -0.27082738660E+02  0.27082738660E+02  0.00000000000E+00 0. -1.
         25    2    1    2    0    0  0.66800536311E+02 -0.12589762275E+02  0.96562268148E+03  0.97605021798E+03  0.12500420495E+03 0.  0.
          2    1    1    2  501    0 -0.43188406825E+02  0.12180669464E+02  0.13388643793E+01  0.44893203834E+02  0.00000000000E+00 0. -1.
          1    1    1    2  502    0 -0.23612129486E+02  0.40909281178E+00  0.15186877580E+04  0.15188713593E+04  0.00000000000E+00 0. -1.
         22    1    3    3    0    0  0.66739007451E+02 -0.16539813807E+02  0.22171089890E+03  0.23212794585E+03  0.00000000000E+00 0. -1.
         22    1    3    3    0    0  0.61528860289E-01  0.39500515314E+01  0.74391178259E+03  0.74392227212E+03  0.00000000000E+00 0. -1.
</event>
<event>
 7    1  0.6103724E-006  0.1029561E+03  0.7818608E-02  0.1388248E+00
          2   -1    0    0  502    0  0.00000000000E+00  0.00000000000E+00  0.86296431421E+03  0.86296431421E+03  0.00000000000E+00 0. -1.
          1   -1    0    0  501    0 -0.00000000000E+00 -0.00000000000E+00 -0.12714101849E+03  0.12714101849E+03  0.00000000000E+00 0. -1.
         25    2    1    2    0    0 -0.19665363682E+01  0.73641271181E+02  0.15742462770E+03  0.21408915148E+03  0.12499898914E+03 0.  0.
          2    1    1    2  501    0  0.22279269429E+02 -0.10546343800E+03 -0.68696533927E+02  0.12782064143E+03  0.00000000000E+00 0. -1.
          1    1    1    2  502    0 -0.20312733061E+02  0.31822166821E+02  0.64709520195E+03  0.64819553980E+03  0.00000000000E+00 0. -1.
         22    1    3    3    0    0  0.12533912396E+01 -0.15759829611E+02  0.11319450742E+03  0.11429321821E+03  0.00000000000E+00 0.  1.
         22    1    3    3    0    0 -0.32199276079E+01  0.89401100793E+02  0.44230120282E+02  0.99795933269E+02  0.00000000000E+00 0.  1.
</event>
<event>
 7    1  0.6103724E-006  0.1520506E+03  0.7818608E-02  0.1251041E+00
          2   -1    0    0  502    0  0.00000000000E+00  0.00000000000E+00  0.97833631206E+03  0.97833631206E+03  0.00000000000E+00 0. -1.
          1   -1    0    0  501    0 -0.00000000000E+00 -0.00000000000E+00 -0.24587835898E+04  0.24587835898E+04  0.00000000000E+00 0. -1.
         25    2    1    2    0    0  0.18858344762E+03  0.20338937318E+02  0.30753036424E+03  0.38233156324E+03  0.12500044092E+03 0.  0.
          2    1    1    2  501    0 -0.14211008616E+03  0.53737250625E+02 -0.24159671177E+04  0.24207395735E+04  0.00000000000E+00 0. -1.
          1    1    1    2  502    0 -0.46473361458E+02 -0.74076187942E+02  0.62798947574E+03  0.63404876514E+03  0.00000000000E+00 0. -1.
         22    1    3    3    0    0  0.73213184385E+01  0.26552418947E+02  0.27649741460E+01  0.27681722086E+02  0.00000000000E+00 0. -1.
         22    1    3    3    0    0  0.18126212918E+03 -0.62134816297E+01  0.30476539009E+03  0.35464984115E+03  0.00000000000E+00 0. -1.
</event>
<event>
 7    1  0.6103724E-006  0.9759913E+02  0.7818608E-02  0.1295711E+00
          2   -1    0    0  502    0  0.00000000000E+00  0.00000000000E+00  0.68586351005E+03  0.68586351005E+03  0.00000000000E+00 0. -1.
          1   -1    0    0  501    0 -0.00000000000E+00 -0.00000000000E+00 -0.33952604708E+03  0.33952604708E+03  0.00000000000E+00 0. -1.
         25    2    1    2    0    0 -0.18079920346E+03 -0.35355922221E+02 -0.11665309100E+03  0.25133996701E+03  0.12500176866E+03 0.  0.
          2    1    1    2  501    0  0.85971003417E+02  0.21611537313E+02 -0.13879251120E+03  0.16468586199E+03  0.00000000000E+00 0. -1.
          1    1    1    2  502    0  0.94828200041E+02  0.13744384908E+02  0.60178306517E+03  0.60936372813E+03  0.00000000000E+00 0. -1.
         22    1    3    3    0    0 -0.12753592739E+03 -0.18294003822E+02 -0.14041809742E+03  0.19057105089E+03  0.00000000000E+00 0.  1.
         22    1    3    3    0    0 -0.53263276066E+02 -0.17061918399E+02  0.23765006420E+02  0.60768916124E+02  0.00000000000E+00 0.  1.
</event>
<event>
 7    1  0.6103724E-006  0.1781512E+03  0.7818608E-02  0.1238945E+00
          2   -1    0    0  502    0  0.00000000000E+00  0.00000000000E+00  0.56573574669E+03  0.56573574669E+03  0.00000000000E+00 0. -1.
          1   -1    0    0  501    0 -0.00000000000E+00 -0.00000000000E+00 -0.36598072783E+03  0.36598072783E+03  0.00000000000E+00 0. -1.
         25    2    1    2    0    0 -0.49318251889E+02 -0.12089894753E+03  0.18700560807E+03  0.26009419542E+03  0.12501618918E+03 0.  0.
          2    1    1    2  501    0 -0.55344176651E+01  0.18491826603E+03 -0.29738530456E+03  0.35023337114E+03  0.00000000000E+00 0. -1.
          1    1    1    2  502    0  0.54852669555E+02 -0.64019318501E+02  0.31013471535E+03  0.32138890796E+03  0.00000000000E+00 0. -1.
         22    1    3    3    0    0 -0.72431094766E+02 -0.11123364695E+03  0.19308981228E+03  0.23431360035E+03  0.00000000000E+00 0. -1.
         22    1    3    3    0    0  0.23112842876E+02 -0.96653005763E+01 -0.60842042111E+01  0.25780595065E+02  0.00000000000E+00 0. -1.
</event>
<event>
 7    1  0.6103724E-006  0.3402115E+03  0.7818608E-02  0.1218043E+00
          2   -1    0    0  502    0  0.00000000000E+00  0.00000000000E+00  0.22898881521E+04  0.22898881521E+04  0.00000000000E+00 0. -1.
          1   -1    0    0  501    0 -0.00000000000E+00 -0.00000000000E+00 -0.66637926529E+03  0.66637926529E+03  0.00000000000E+00 0. -1.
         25    2    1    2    0    0 -0.34425005003E+03  0.18234912054E+03  0.43740275743E+03  0.59891929243E+03  0.12499539164E+03 0.  0.
          2    1    1    2  501    0  0.29222468699E+03 -0.16510224567E+03 -0.53705776687E+03  0.63331276962E+03  0.00000000000E+00 0. -1.
          1    1    1    2  502    0  0.52025363048E+02 -0.17246874870E+02  0.17231638963E+04  0.17240353553E+04  0.00000000000E+00 0. -1.
         22    1    3    3    0    0 -0.48479825674E+02  0.55292128850E+02  0.29345592597E+02  0.79174975940E+02  0.00000000000E+00 0. -1.
         22    1    3    3    0    0 -0.29577022436E+03  0.12705699169E+03  0.40805716483E+03  0.51974431649E+03  0.00000000000E+00 0. -1.
</event>
<event>
 7    1  0.6103724E-006  0.9183883E+02  0.7818608E-02  0.1470788E+00
          2   -1    0    0  502    0  0.00000000000E+00  0.00000000000E+00  0.10695281276E+03  0.10695281276E+03  0.00000000000E+00 0. -1.
          1   -1    0    0  501    0 -0.00000000000E+00 -0.00000000000E+00 -0.14549547839E+04  0.14549547839E+04  0.00000000000E+00 0. -1.
         25    2    1    2    0    0  0.70470026406E+02  0.29194688923E+02 -0.12492735529E+03  0.19248549370E+03  0.12500186680E+03 0.  0.
          2    1    1    2  501    0 -0.77590297758E+02 -0.50660467768E+02 -0.12928019973E+04  0.12961187220E+04  0.00000000000E+00 0. -1.
          1    1    1    2  502    0  0.71202713524E+01  0.21465778845E+02  0.69727381481E+02  0.73303380916E+02  0.00000000000E+00 0. -1.
         22    1    3    3    0    0  0.87621331858E+00  0.47283560829E+02  0.11930966393E+01  0.47306726309E+02  0.00000000000E+00 0. -1.
         22    1    3    3    0    0  0.69593813087E+02 -0.18088871906E+02 -0.12612045193E+03  0.14517876739E+03  0.00000000000E+00 0. -1.
</event>
<event>
 7    1  0.6103724E-006  0.1458723E+03  0.7818608E-02  0.1310264E+00
          2   -1    0    0  502    0  0.00000000000E+00  0.00000000000E+00  0.21348102104E+04  0.21348102104E+04  0.00000000000E+00 0. -1.
          1   -1    0    0  501    0 -0.00000000000E+00 -0.00000000000E+00 -0.12263834725E+03  0.12263834725E+03  0.00000000000E+00 0. -1.
         25    2    1    2    0    0  0.39256966701E+02 -0.18999198093E+03  0.21387261651E+03  0.31465073959E+03  0.12500211829E+03 0.  0.
          2    1    1    2  501    0 -0.19473806492E+02  0.48104945461E+02 -0.59802759415E+02  0.79181342189E+02  0.00000000000E+00 0. -1.
          1    1    1    2  502    0 -0.19783160208E+02  0.14188703547E+03  0.18581020060E+04  0.18636164758E+04  0.00000000000E+00 0. -1.
         22    1    3    3    0    0  0.17824373320E+01  0.64855672452E+01 -0.11498052934E+02  0.13320844065E+02  0.00000000000E+00 0. -1.
         22    1    3    3    0    0  0.37474529369E+02 -0.19647754818E+03  0.22537066944E+03  0.30132989552E+03  0.00000000000E+00 0. -1.
</event>
<event>
 7    1  0.6103724E-006  0.5300305E+02  0.7818608E-02  0.1523405E+00
          2   -1    0    0  502    0  0.00000000000E+00  0.00000000000E+00  0.13874296561E+04  0.13874296561E+04  0.00000000000E+00 0. -1.
          1   -1    0    0  501    0 -0.00000000000E+00 -0.00000000000E+00 -0.14790020875E+03  0.14790020875E+03  0.00000000000E+00 0. -1.
         25    2    1    2    0    0  0.42962697902E+02  0.20848254942E+02  0.23376155644E+03  0.26934740771E+03  0.12499247028E+03 0.  0.
          2    1    1    2  501    0 -0.13474053685E+02  0.23691504947E+02 -0.12804419003E+03  0.13091276534E+03  0.00000000000E+00 0. -1.
          1    1    1    2  502    0 -0.29488644217E+02 -0.44539759889E+02  0.11338120810E+04  0.11350696918E+04  0.00000000000E+00 0. -1.
         22    1    3    3    0    0  0.60748999510E+02  0.23342933846E+02  0.43588442841E+02  0.78328065540E+02  0.00000000000E+00 0.  1.
         22    1    3    3    0    0 -0.17786301608E+02 -0.24946789049E+01  0.19017311360E+03  0.19101934217E+03  0.00000000000E+00 0.  1.
</event>
<event>
 7    1  0.6103724E-006  0.8908501E+02  0.7818608E-02  0.1322537E+00
          2   -1    0    0  502    0  0.00000000000E+00  0.00000000000E+00  0.16144482052E+04  0.16144482052E+04  0.00000000000E+00 0. -1.
          1   -1    0    0  501    0 -0.00000000000E+00 -0.00000000000E+00 -0.38117871639E+03  0.38117871639E+03  0.00000000000E+00 0. -1.
         25    2    1    2    0    0 -0.86246142397E+02  0.82309493996E+02  0.74005627116E+01  0.17288204735E+03  0.12498073486E+03 0.  0.
          2    1    1    2  501    0  0.75861127511E+02  0.61169259042E+01 -0.29226018904E+03  0.30200719453E+03  0.00000000000E+00 0. -1.
          1    1    1    2  502    0  0.10385014886E+02 -0.88426419900E+02  0.15181291152E+04  0.15207376797E+04  0.00000000000E+00 0. -1.
         22    1    3    3    0    0 -0.72450998778E+02  0.59584685265E+02 -0.52392810032E+02  0.10744528135E+03  0.00000000000E+00 0. -1.
         22    1    3    3    0    0 -0.13795143618E+02  0.22724808731E+02  0.59793372744E+02  0.65436765991E+02  0.00000000000E+00 0. -1.
</event>
<event>
 7    1  0.6103724E-006  0.4945335E+02  0.7818608E-02  0.1470402E+00
          2   -1    0    0  502    0  0.00000000000E+00  0.00000000000E+00  0.20652195934E+03  0.20652195934E+03  0.00000000000E+00 0. -1.
          1   -1    0    0  501    0 -0.00000000000E+00 -0.00000000000E+00 -0.13780160802E+03  0.13780160802E+03  0.00000000000E+00 0. -1.
         25    2    1    2    0    0  0.63550515473E+01  0.25105754538E+02 -0.64862456786E+02  0.14319002181E+03  0.12500223380E+03 0.  0.
          2    1    1    2  501    0  0.41418518125E+02 -0.76317212000E+01 -0.14511926329E+02  0.44545850738E+02  0.00000000000E+00 0. -1.
          1    1    1    2  502    0 -0.47773569673E+02 -0.17474033338E+02  0.14809473443E+03  0.15658769481E+03  0.00000000000E+00 0. -1.
         22    1    3    3    0    0  0.26648838401E+02  0.44163022430E+02 -0.91258269924E+02  0.10482654706E+03  0.00000000000E+00 0.  1.
         22    1    3    3    0    0 -0.20293786853E+02 -0.19057267892E+02  0.26395813138E+02  0.38363474759E+02  0.00000000000E+00 0.  1.
</event>
<event>
 7    1  0.6103724E-006  0.3001517E+02  0.7818608E-02  0.1607775E+00
          2   -1    0    0  502    0  0.00000000000E+00  0.00000000000E+00  0.37334493478E+03  0.37334493478E+03  0.00000000000E+00 0. -1.
          1   -1    0    0  501    0 -0.00000000000E+00 -0.00000000000E+00 -0.13514976205E+03  0.13514976205E+03  0.00000000000E+00 0. -1.
         25    2    1    2    0    0  0.39729726014E+01  0.26691532079E+01  0.81797331013E+02  0.14946069422E+03  0.12499914746E+03 0.  0.
          2    1    1    2  501    0 -0.34159028839E+01  0.28086545985E+02 -0.98399560106E+02  0.10238650246E+03  0.00000000000E+00 0. -1.
          1    1    1    2  502    0 -0.55706971752E+00 -0.30755699193E+02  0.25479740182E+03  0.25664750015E+03  0.00000000000E+00 0. -1.
         22    1    3    3    0    0  0.52119498851E+02  0.13565799095E+02  0.84298073434E+02  0.10003318574E+03  0.00000000000E+00 0. -1.
         22    1    3    3    0    0 -0.48146526249E+02 -0.10896645887E+02 -0.25007424213E+01  0.49427508476E+02  0.00000000000E+00 0. -1.
</event>
<event>
 7    1  0.6103724E-006  0.5801077E+02  0.7818608E-02  0.1483035E+00
          2   -1    0    0  502    0  0.00000000000E+00  0.00000000000E+00  0.55725852932E+03  0.55725852932E+03  0.00000000000E+00 0. -1.
          1   -1    0    0  501    0 -0.00000000000E+00 -0.00000000000E+00 -0.27960205655E+04  0.27960205655E+04  0.00000000000E+00 0. -1.
         25    2    1    2    0    0 -0.45489391913E+02  0.69627036217E+02  0.26220986465E+03  0.30215090415E+03  0.12499578717E+03 0.  0.
          2    1    1    2  501    0  0.15710194519E+02 -0.55819186162E+02 -0.27747668092E+04  0.27753726664E+04  0.00000000000E+00 0. -1.
          1    1    1    2  502    0  0.29779197393E+02 -0.13807850055E+02  0.27379490838E+03  0.27575552429E+03  0.00000000000E+00 0. -1.
         22    1    3    3    0    0 -0.19854990345E+01  0.81873851138E+01 -0.13739568482E+02  0.16116799418E+02  0.00000000000E+00 0.  1.
         22    1    3    3    0    0 -0.43503892878E+02  0.61439651103E+02  0.27594943313E+03  0.28603410473E+03  0.00000000000E+00 0.  1.
</event>
<event>
 7    1  0.6103724E-006  0.8068895E+02  0.7818608E-02  0.1456442E+00
          2   -1    0    0  502    0  0.00000000000E+00  0.00000000000E+00  0.23957975907E+03  0.23957975907E+03  0.00000000000E+00 0. -1.
          1   -1    0    0  501    0 -0.00000000000E+00 -0.00000000000E+00 -0.10733997667E+04  0.10733997667E+04  0.00000000000E+00 0. -1.
         25    2    1    2    0    0  0.96997091111E+02  0.10147585238E+02  0.39760178092E+02  0.16346516536E+03  0.12501431660E+03 0.  0.
          2    1    1    2  501    0 -0.75216218668E+02 -0.28610377314E+02 -0.10084497021E+04  0.10116554922E+04  0.00000000000E+00 0. -1.
          1    1    1    2  502    0 -0.21780872443E+02  0.18462792076E+02  0.13486951638E+03  0.13785886821E+03  0.00000000000E+00 0. -1.
         22    1    3    3    0    0  0.28029026710E+02  0.47908298387E+02 -0.25688697716E+02  0.61161594019E+02  0.00000000000E+00 0. -1.
         22    1    3    3    0    0  0.68968064401E+02 -0.37760713149E+02  0.65448875808E+02  0.10230357134E+03  0.00000000000E+00 0. -1.
</event>
<event>
 7    1  0.6103724E-006  0.1273998E+03  0.7818608E-02  0.1270786E+00
          2   -1    0    0  502    0  0.00000000000E+00  0.00000000000E+00  0.23535462324E+03  0.23535462324E+03  0.00000000000E+00 0. -1.
          1   -1    0    0  501    0 -0.00000000000E+00 -0.00000000000E+00 -0.12840293446E+04  0.12840293446E+04  0.00000000000E+00 0. -1.
         25    2    1    2    0    0  0.55064827233E+02  0.33625334399E+02 -0.28950671307E+03  0.32187248557E+03  0.12499984697E+03 0.  0.
          2    1    1    2  501    0 -0.13464196179E+03 -0.66192745474E+02 -0.96387384780E+03  0.97548076963E+03  0.00000000000E+00 0. -1.
          1    1    1    2  502    0  0.79577134561E+02  0.32567411075E+02  0.20470583953E+03  0.22203071262E+03  0.00000000000E+00 0. -1.
         22    1    3    3    0    0  0.77935512399E+02  0.49180493614E+02 -0.12634656344E+03  0.15638452334E+03  0.00000000000E+00 0.  1.
         22    1    3    3    0    0 -0.22870685166E+02 -0.15555159215E+02 -0.16316014962E+03  0.16548796223E+03  0.00000000000E+00 0.  1.
</event>
<event>
 7    1  0.6103724E-006  0.6456854E+02  0.7818608E-02  0.1388540E+00
          2   -1    0    0  502    0  0.00000000000E+00  0.00000000000E+00  0.71409457384E+03  0.71409457384E+03  0.00000000000E+00 0. -1.
          1   -1    0    0  501    0 -0.00000000000E+00 -0.00000000000E+00 -0.77830215974E+02  0.77830215974E+02  0.00000000000E+00 0. -1.
         25    2    1    2    0    0  0.85009820482E+02  0.48464304404E+02  0.21913849517E+03  0.27059653441E+03  0.12500138396E+03 0.  0.
          2    1    1    2  501    0 -0.59339340561E+02  0.92500710573E+01 -0.31816961721E+02  0.67963521142E+02  0.00000000000E+00 0. -1.
          1    1    1    2  502    0 -0.25670479921E+02 -0.57714375461E+02  0.44894282441E+03  0.45336473426E+03  0.00000000000E+00 0. -1.
         22    1    3    3    0    0  0.16972687620E+01  0.12640123662E+02  0.16392987724E+03  0.16442523559E+03  0.00000000000E+00 0.  1.
         22    1    3    3    0    0  0.83312551720E+02  0.35824180742E+02  0.55208617933E+02  0.10617129882E+03  0.00000000000E+00 0.  1.
</event>
<event>
 7    1  0.6103724E-006  0.4590180E+02  0.7818608E-02  0.1505079E+00
          2   -1    0    0  502    0  0.00000000000E+00  0.00000000000E+00  0.10596204842E+04  0.10596204842E+04  0.00000000000E+00 0. -1.
          1   -1    0    0  501    0 -0.00000000000E+00 -0.00000000000E+00 -0.52609514771E+03  0.52609514771E+03  0.00000000000E+00 0. -1.
         25    2    1    2    0    0  0.33875264491E+02 -0.43721144637E+02  0.28435122975E+03  0.31550022856E+03  0.12500280128E+03 0.  0.
          2    1    1    2  501    0 -0.35535594769E+02 -0.22781409454E+01 -0.50920109024E+03  0.51044462846E+03  0.00000000000E+00 0. -1.
          1    1    1    2  502    0  0.16603302781E+01  0.45999285583E+02  0.75837519695E+03  0.75977077485E+03  0.00000000000E+00 0. -1.
         22    1    3    3    0    0 -0.16606429894E+02 -0.37623148958E+02  0.18966478710E+02  0.45287991411E+02  0.00000000000E+00 0. -1.
         22    1    3    3    0    0  0.50481694385E+02 -0.60979956789E+01  0.26538475104E+03  0.27021223715E+03  0.00000000000E+00 0. -1.
</event>
<event>
 7    1  0.6103724E-006  0.1445025E+03  0.7818608E-02  0.1263584E+00
          2   -1    0    0  502    0  0.00000000000E+00  0.00000000000E+00  0.10182227013E+04  0.10182227013E+04  0.00000000000E+00 0. -1.
          1   -1    0    0  501    0 -0.00000000000E+00 -0.00000000000E+00 -0.51519365294E+03  0.51519365294E+03  0.00000000000E+00 0. -1.
         25    2    1    2    0    0  0.81292749515E+02 -0.22806450275E+02  0.13086996775E+03  0.19970136695E+03  0.12500016883E+03 0.  0.
          2    1    1    2  501    0 -0.11283012589E+03  0.97739793693E+02 -0.46717900419E+03  0.49044869919E+03  0.00000000000E+00 0. -1.
          1    1    1    2  502    0  0.31537376374E+02 -0.74933343418E+02  0.83933808482E+03  0.84326628812E+03  0.00000000000E+00 0. -1.
         22    1    3    3    0    0  0.22672412514E+02 -0.46466192195E+02  0.12612230588E+03  0.13630840527E+03  0.00000000000E+00 0. -1.
         22    1    3    3    0    0  0.58620337001E+02  0.23659741920E+02  0.47476618683E+01  0.63392961684E+02  0.00000000000E+00 0. -1.
</event>
<event>
 7    1  0.6103724E-006  0.1107502E+03  0.7818608E-02  0.1270691E+00
          2   -1    0    0  502    0  0.00000000000E+00  0.00000000000E+00  0.10885115323E+04  0.10885115323E+04  0.00000000000E+00 0. -1.
          1   -1    0    0  501    0 -0.00000000000E+00 -0.00000000000E+00 -0.25985096567E+03  0.25985096567E+03  0.00000000000E+00 0. -1.
         25    2    1    2    0    0  0.64440684515E+02 -0.14461048418E+03 -0.40992150935E+02  0.20583787466E+03  0.12499632094E+03 0.  0.
          2    1    1    2  501    0  0.33264166204E+02  0.93244363843E+02 -0.11497753511E+03  0.15172623280E+03  0.00000000000E+00 0. -1.
          1    1    1    2  502    0 -0.97704850719E+02  0.51366120339E+02  0.98463025268E+03  0.99079839052E+03  0.00000000000E+00 0. -1.
         22    1    3    3    0    0 -0.11707874490E+01 -0.12824275525E+03 -0.30199256819E+01  0.12828365044E+03  0.00000000000E+00 0.  1.
         22    1    3    3    0    0  0.65611471964E+02 -0.16367728926E+02 -0.37972225253E+02  0.77554224218E+02  0.00000000000E+00 0.  1.
</event>
<event>
 7    1  0.6103724E-006  0.5986859E+02  0.7818608E-02  0.1409521E+00
          2   -1    0    0  502    0  0.00000000000E+00  0.00000000000E+00  0.16906230513E+04  0.16906230513E+04  0.00000000000E+00 0. -1.
          1   -1    0    0  501    0 -0.00000000000E+00 -0.00000000000E+00 -0.42328406680E+03  0.42328406680E+03  0.00000000000E+00 0. -1.
         25    2    1    2    0    0 -0.49310035815E+02  0.54249114689E+02 -0.24134362695E+03  0.28150188879E+03  0.12498848366E+03 0.  0.
          2    1    1    2  501    0 -0.10577799873E+02 -0.53813662135E+02 -0.15666189989E+03  0.16598418889E+03  0.00000000000E+00 0. -1.
          1    1    1    2  502    0  0.59887835688E+02 -0.43545255403E+00  0.16653445113E+04  0.16664210404E+04  0.00000000000E+00 0. -1.
         22    1    3    3    0    0  0.81924842923E+01 -0.26375017397E+02 -0.12820124481E+03  0.13114235591E+03  0.00000000000E+00 0.  1.
         22    1    3    3    0    0 -0.57502520107E+02  0.80624132087E+02 -0.11314238214E+03  0.15035953288E+03  0.00000000000E+00 0.  1.
</event>
<event>
 7    1  0.6103724E-006  0.4048266E+02  0.7818608E-02  0.1546177E+00
          2   -1    0    0  502    0  0.00000000000E+00  0.00000000000E+00  0.20925433870E+04  0.20925433870E+04  0.00000000000E+00 0. -1.
          1   -1    0    0  501    0 -0.00000000000E+00 -0.00000000000E+00 -0.12646320661E+03  0.12646320661E+03  0.00000000000E+00 0. -1.
         25    2    1    2    0    0  0.26859630243E+02  0.39238604676E+02  0.36014467239E+02  0.13850528322E+03  0.12500225517E+03 0.  0.
          2    1    1    2  501    0  0.12118467930E+02 -0.28246441149E+02 -0.71864485761E+02  0.78161518769E+02  0.00000000000E+00 0. -1.
          1    1    1    2  502    0 -0.38978098173E+02 -0.10992163527E+02  0.20019301989E+04  0.20023397916E+04  0.00000000000E+00 0. -1.
         22    1    3    3    0    0 -0.25001371530E+02  0.69321414560E+02  0.22444427634E+02  0.77034274364E+02  0.00000000000E+00 0.  1.
         22    1    3    3    0    0  0.51861001773E+02 -0.30082809884E+02  0.13570039605E+02  0.61471008860E+02  0.00000000000E+00 0.  1.
</event>
<event>
 7    1  0.6103724E-006  0.9979686E+02  0.7818608E-02  0.1380098E+00
          2   -1    0    0  502    0  0.00000000000E+00  0.00000000000E+00  0.96560309812E+02  0.96560309812E+02  0.00000000000E+00 0. -1.
          1   -1    0    0  501    0 -0.00000000000E+00 -0.00000000000E+00 -0.83993327933E+03  0.83993327933E+03  0.00000000000E+00 0. -1.
         25    2    1    2    0    0  0.77853357686E+02 -0.11235802840E+02 -0.28921942669E+03  0.32473860253E+03  0.12497957684E+03 0.  0.
          2    1    1    2  501    0  0.21979315454E+02  0.35328052304E+02 -0.49825388079E+03  0.49998809116E+03  0.00000000000E+00 0. -1.
          1    1    1    2  502    0 -0.99832673141E+02 -0.24092249465E+02  0.44100337958E+02  0.11176689545E+03  0.00000000000E+00 0. -1.
         22    1    3    3    0    0  0.76049516179E+02  0.39328606479E+02 -0.11531883287E+03  0.14362695225E+03  0.00000000000E+00 0. -1.
         22    1    3    3    0    0  0.18038415070E+01 -0.50564409319E+02 -0.17390059383E+03  0.18111165028E+03  0.00000000000E+00 0. -1.
</event>
<event>
 7    1  0.6103724E-006  0.1153345E+03  0.7818608E-02  0.1302242E+00
          2   -1    0    0  502    0  0.00000000000E+00  0.00000000000E+00  0.97986049989E+02  0.97986049989E+02  0.00000000000E+00 0. -1.
          1   -1    0    0  501    0 -0.00000000000E+00 -0.00000000000E+00 -0.28398994824E+04  0.28398994824E+04  0.00000000000E+00 0. -1.
         25    2    1    2    0    0  0.46037306126E+02 -0.61747375811E+02 -0.51717380235E+03  0.53761122994E+03  0.12499968298E+03 0.  0.
          2    1    1    2  501    0 -0.41091546506E+02 -0.57440061965E+02 -0.22711693533E+04  0.22722671734E+04  0.00000000000E+00 0. -1.
          1    1    1    2  502    0 -0.49457596199E+01  0.11918743778E+03  0.46429723317E+02  0.12800712898E+03  0.00000000000E+00 0. -1.
         22    1    3    3    0    0  0.76459810233E+02 -0.28022287007E+02 -0.18217147467E+03  0.19954397344E+03  0.00000000000E+00 0.  1.
         22    1    3    3    0    0 -0.30422504106E+02 -0.33725088804E+02 -0.33500232768E+03  0.33806725651E+03  0.00000000000E+00 0.  1.
</event>
<event>
 7    1  0.6103724E-006  0.1463979E+03  0.7818608E-02  0.1419422E+00
          2   -1    0    0  502    0  0.00000000000E+00  0.00000000000E+00  0.30955963461E+03  0.30955963461E+03  0.00000000000E+00 0. -1.
          1   -1    0    0  501    0 -0.00000000000E+00 -0.00000000000E+00 -0.14829514931E+03  0.14829514931E+03  0.00000000000E+00 0. -1.
         25    2    1    2    0    0 -0.94365292472E+02 -0.89641078006E+02 -0.33138669830E+02  0.18347667206E+03  0.12500074585E+03 0.  0.
          2    1    1    2  501    0 -0.18591822835E+02 -0.92612762372E+01 -0.80961234977E+01  0.22292921064E+02  0.00000000000E+00 0. -1.
          1    1    1    2  502    0  0.11295711531E+03  0.98902354243E+02  0.20249927863E+03  0.25208519079E+03  0.00000000000E+00 0. -1.
         22    1    3    3    0    0  0.26068064447E+02 -0.35787048623E+01 -0.23267575739E+02  0.35124509865E+02  0.00000000000E+00 0.  1.
         22    1    3    3    0    0 -0.12043335692E+03 -0.86062373144E+02 -0.98710940911E+01  0.14835216220E+03  0.00000000000E+00 0.  1.
</event>
<event>
 7    1  0.6103724E-006  0.1746428E+03  0.7818608E-02  0.1351383E+00
          2   -1    0    0  502    0  0.00000000000E+00  0.00000000000E+00  0.81641294002E+03  0.81641294002E+03  0.00000000000E+00 0. -1.
          1   -1    0    0  501    0 -0.00000000000E+00 -0.00000000000E+00 -0.23126296349E+04  0.23126296349E+04  0.00000000000E+00 0. -1.
         25    2    1    2    0    0  0.10815672583E+03 -0.11827951196E+03 -0.14906298818E+04  0.15044233084E+04  0.12499650364E+03 0.  0.
          2    1    1    2  501    0  0.28649649664E+02  0.95590243865E+01 -0.80538632836E+03  0.80595242743E+03  0.00000000000E+00 0. -1.
          1    1    1    2  502    0 -0.13680637549E+03  0.10872048757E+03  0.79979951529E+03  0.81866683911E+03  0.00000000000E+00 0. -1.
         22    1    3    3    0    0  0.74778988412E+02 -0.11560697425E+03 -0.14153646541E+04  0.14220457003E+04  0.00000000000E+00 0. -1.
         22    1    3    3    0    0  0.33377737417E+02 -0.26725377071E+01 -0.75265227760E+02  0.82377608139E+02  0.00000000000E+00 0. -1.
</event>
<event>
 7    1  0.6103724E-006  0.2066441E+03  0.7818608E-02  0.1340988E+00
          2   -1    0    0  502    0  0.00000000000E+00  0.00000000000E+00  0.11826944293E+04  0.11826944293E+04  0.00000000000E+00 0. -1.
          1   -1    0    0  501    0 -0.00000000000E+00 -0.00000000000E+00 -0.11845047276E+04  0.11845047276E+04  0.00000000000E+00 0. -1.
         25    2    1    2    0    0 -0.58811875996E+02 -0.18220688901E+03  0.67513910306E+02  0.23841359455E+03  0.12499890728E+03 0.  0.
          2    1    1    2  501    0  0.16916576971E+02 -0.22194673789E+02 -0.10883046190E+04  0.10886623525E+04  0.00000000000E+00 0. -1.
          1    1    1    2  502    0  0.41895299026E+02  0.20440156280E+03  0.10189804104E+04  0.10401232099E+04  0.00000000000E+00 0. -1.
         22    1    3    3    0    0  0.26612649655E+02 -0.11170813873E+03  0.53790110373E+02  0.12680819119E+03  0.00000000000E+00 0.  1.
         22    1    3    3    0    0 -0.85424525651E+02 -0.70498750286E+02  0.13723799933E+02  0.11160540336E+03  0.00000000000E+00 0.  1.
</event>
<event>
 7    1  0.6103724E-006  0.2371825E+03  0.7818608E-02  0.1262417E+00
          2   -1    0    0  502    0  0.00000000000E+00  0.00000000000E+00  0.13709527693E+03  0.13709527693E+03  0.00000000000E+00 0. -1.
          1   -1    0    0  501    0 -0.00000000000E+00 -0.00000000000E+00 -0.84959203981E+03  0.84959203981E+03  0.00000000000E+00 0. -1.
         25    2    1    2    0    0  0.12450432323E+03 -0.15810886712E+03 -0.14931011292E+03  0.28003105267E+03  0.12499656105E+03 0.  0.
          2    1    1    2  501    0 -0.15925777343E+03  0.19419525385E+03 -0.59600867217E+03  0.64676206777E+03  0.00000000000E+00 0. -1.
          1    1    1    2  502    0  0.34753450198E+02 -0.36086386726E+02  0.32822022208E+02  0.59894196292E+02  0.00000000000E+00 0. -1.
         22    1    3    3    0    0  0.10356035243E+03 -0.78679087294E+02 -0.14914363919E+03  0.19788625643E+03  0.00000000000E+00 0. -1.
         22    1    3    3    0    0  0.20943970804E+02 -0.79429779830E+02 -0.16647373452E+00  0.82144796246E+02  0.00000000000E+00 0. -1.
</event>
<event>
 7    1  0.6103724E-006  0.9076721E+02  0.7818608E-02  0.1314025E+00
          2   -1    0    0  502    0  0.00000000000E+00  0.00000000000E+00  0.39930787903E+03  0.39930787903E+03  0.00000000000E+00 0. -1.
          1   -1    0    0  501    0 -0.00000000000E+00 -0.00000000000E+00 -0.38864153319E+03  0.38864153319E+03  0.00000000000E+00 0. -1.
         25    2    1    2    0    0 -0.23381534520E+02  0.12448073036E+03  0.84389382381E+02  0.19694926422E+03  0.12500118571E+03 0.  0.
          2    1    1    2  501    0  0.69190027064E+02 -0.58146113268E+02 -0.31965856048E+03  0.33218944237E+03  0.00000000000E+00 0. -1.
          1    1    1    2  502    0 -0.45808492544E+02 -0.66334617096E+02  0.24593552394E+03  0.25881070563E+03  0.00000000000E+00 0. -1.
         22    1    3    3    0    0 -0.74808759408E+02  0.83855722481E+02  0.51255454118E+02  0.12351216237E+03  0.00000000000E+00 0.  1.
         22    1    3    3    0    0  0.51427224888E+02  0.40625007883E+02  0.33133928263E+02  0.73437101845E+02  0.00000000000E+00 0.  1.
</event>
<event>
 7    1  0.6103724E-006  0.8681628E+02  0.7818608E-02  0.1431937E+00
          2   -1    0    0  502    0  0.00000000000E+00  0.00000000000E+00  0.71962573633E+03  0.71962573633E+03  0.00000000000E+00 0. -1.
          1   -1    0    0  501    0 -0.00000000000E+00 -0.00000000000E+00 -0.49730755303E+03  0.49730755303E+03  0.00000000000E+00 0. -1.
         25    2    1    2    0    0 -0.31162583660E+02 -0.53471927347E+02  0.29940604424E+03  0.33030153850E+03  0.12499909349E+03 0.  0.
          2    1    1    2  501    0  0.62044636470E+02  0.61208927962E+02 -0.47728144080E+03  0.48517382814E+03  0.00000000000E+00 0. -1.
          1    1    1    2  502    0 -0.30882052810E+02 -0.77370006149E+01  0.40019357986E+03  0.40145792273E+03  0.00000000000E+00 0. -1.
         22    1    3    3    0    0 -0.52696135986E+01  0.28122006994E+02  0.18613659168E+03  0.18832272000E+03  0.00000000000E+00 0. -1.
         22    1    3    3    0    0 -0.25892970061E+02 -0.81593934341E+02  0.11326945256E+03  0.14197881850E+03  0.00000000000E+00 0. -1.
</event>
<event>
 7    1  0.6103724E-006  0.3081874E+02  0.7818608E-02  0.1618942E+00
          2   -1    0    0  502    0  0.00000000000E+00  0.00000000000E+00  0.63559028186E+02  0.63559028186E+02  0.00000000000E+00 0. -1.
          1   -1    0    0  501    0 -0.00000000000E+00 -0.00000000000E+00 -0.14207502147E+04  0.14207502147E+04  0.00000000000E+00 0. -1.
         25    2    1    2    0    0 -0.34727541298E+02 -0.31958983770E+02 -0.38684207341E+03  0.40926667548E+03  0.12500017250E+03 0.  0.
          2    1    1    2  501    0  0.25660940308E+02  0.26236766152E+01 -0.10180158773E+04  0.10183426211E+04  0.00000000000E+00 0. -1.
          1    1    1    2  502    0  0.90666009895E+01  0.29335307155E+02  0.47666764206E+02  0.56699946290E+02  0.00000000000E+00 0. -1.
         22    1    3    3    0    0 -0.79709722043E+02 -0.37856042237E+02 -0.25408696790E+03  0.26897380352E+03  0.00000000000E+00 0.  1.
         22    1    3    3    0    0  0.44982180746E+02  0.58970584667E+01 -0.13275510552E+03  0.14029287196E+03  0.00000000000E+00 0.  1.
</event>
<event>
 7    1  0.6103724E-006  0.5686448E+02  0.7818608E-02  0.1520562E+00
          2   -1    0    0  502    0  0.00000000000E+00  0.00000000000E+00  0.15392759142E+03  0.15392759142E+03  0.00000000000E+00 0. -1.
          1   -1    0    0  501    0 -0.00000000000E+00 -0.00000000000E+00 -0.31315810066E+04  0.31315810066E+04  0.00000000000E+00 0. -1.
         25    2    1    2    0    0 -0.27511497636E+02  0.21250746657E+02 -0.94684387539E+03  0.95569154897E+03  0.12499814265E+03 0.  0.
          2    1    1    2  501    0  0.53017005451E+02 -0.25698597960E+02 -0.21787911781E+04  0.21795876258E+04  0.00000000000E+00 0. -1.
          1    1    1    2  502    0 -0.25505507815E+02  0.44478513037E+01  0.14798163835E+03  0.15022942321E+03  0.00000000000E+00 0. -1.
         22    1    3    3    0    0 -0.61977151110E+01  0.47622722762E+02 -0.87425992151E+03  0.87557794956E+03  0.00000000000E+00 0.  1.
         22    1    3    3    0    0 -0.21313782525E+02 -0.26371976105E+02 -0.72583953887E+02  0.80113599414E+02  0.00000000000E+00 0.  1.
</event>
<event>
 7    1  0.6103724E-006  0.9883767E+02  0.7818608E-02  0.1375882E+00
          2   -1    0    0  502    0  0.00000000000E+00  0.00000000000E+00  0.48739872895E+03  0.48739872895E+03  0.00000000000E+00 0. -1.
          1   -1    0    0  501    0 -0.00000000000E+00 -0.00000000000E+00 -0.96199270540E+03  0.96199270540E+03  0.00000000000E+00 0. -1.
         25    2    1    2    0    0 -0.42041551465E+02 -0.40639855544E+02 -0.19725630595E+02  0.13939798595E+03  0.12499443218E+03 0.  0.
          2    1    1    2  501    0 -0.32790500741E+02 -0.28560815655E+02 -0.87580948991E+03  0.87688836219E+03  0.00000000000E+00 0. -1.
          1    1    1    2  502    0  0.74832052206E+02  0.69200671199E+02  0.42094114407E+03  0.43310508621E+03  0.00000000000E+00 0. -1.
         22    1    3    3    0    0  0.57870484801E+01 -0.29723956679E+02  0.47405274865E+02  0.56251787668E+02  0.00000000000E+00 0. -1.
         22    1    3    3    0    0 -0.47828599945E+02 -0.10915898865E+02 -0.67130905461E+02  0.83146198282E+02  0.00000000000E+00 0. -1.
</event>
<event>
 7    1  0.6103724E-006  0.7946535E+02  0.7818608E-02  0.1367367E+00
          2   -1    0    0  502    0  0.00000000000E+00  0.00000000000E+00  0.40299700182E+03  0.40299700182E+03  0.00000000000E+00 0. -1.
          1   -1    0    0  501    0 -0.00000000000E+00 -0.00000000000E+00 -0.24750279166E+03  0.24750279166E+03  0.00000000000E+00 0. -1.
         25    2    1    2    0    0 -0.39018332221E+02  0.23291732927E+02  0.27855530682E+03  0.30867955166E+03  0.12500028632E+03 0.  0.
          2    1    1    2  501    0  0.19992149149E+02 -0.78109528206E+02 -0.21694990395E+03  0.23144771601E+03  0.00000000000E+00 0. -1.
          1    1    1    2  502    0  0.19026183072E+02  0.54817795279E+02  0.93888807280E+02  0.11037252581E+03  0.00000000000E+00 0. -1.
         22    1    3    3    0    0 -0.15595039632E+01 -0.50152685621E+02  0.94252353694E+02  0.10677654286E+03  0.00000000000E+00 0.  1.
         22    1    3    3    0    0 -0.37458828258E+02  0.73444418549E+02  0.18430295313E+03  0.20190300880E+03  0.00000000000E+00 0.  1.
</event>
<event>
 7    1  0.6103724E-006  0.2041894E+03  0.7818608E-02  0.1226576E+00
          2   -1    0    0  502    0  0.00000000000E+00  0.00000000000E+00  0.11870101065E+04  0.11870101065E+04  0.00000000000E+00 0. -1.
          1   -1    0    0  501    0 -0.00000000000E+00 -0.00000000000E+00 -0.26843666740E+03  0.26843666740E+03  0.00000000000E+00 0. -1.
         25    2    1    2    0    0 -0.11136023279E+03  0.18126269854E+03  0.33560337651E+03  0.41654786272E+03  0.12500091312E+03 0.  0.
          2    1    1    2  501    0  0.30629452445E+02 -0.20268794727E+03 -0.17913440836E+03  0.27223097470E+03  0.00000000000E+00 0. -1.
          1    1    1    2  502    0  0.80730780345E+02  0.21425248728E+02  0.76210447096E+03  0.76666793649E+03  0.00000000000E+00 0. -1.
         22    1    3    3    0    0 -0.11431429103E+03  0.12737510015E+03  0.31554588449E+03  0.35897267095E+03  0.00000000000E+00 0. -1.
         22    1    3    3    0    0  0.29540582403E+01  0.53887598399E+02  0.20057492020E+02  0.57575191771E+02  0.00000000000E+00 0. -1.
</event>
<event>
 7    1  0.6103724E-006  0.8376566E+02  0.7818608E-02  0.1417239E+00
          2   -1    0    0  502    0  0.00000000000E+00  0.00000000000E+00  0.40482988803E+03  0.40482988803E+03  0.00000000000E+00 0. -1.
          1   -1    0    0  501    0 -0.00000000000E+00 -0.00000000000E+00 -0.20018651815E+03  0.20018651815E+03  0.00000000000E+00 0. -1.
         25    2    1    2    0    0  0.88203735160E+02  0.13166291702E+02  0.83838384599E+02  0.17494572554E+03  0.12499552800E+03 0.  0.
          2    1    1    2  501    0 -0.80723852522E+02  0.22985332008E+02 -0.14185678289E+03  0.16482722077E+03  0.00000000000E+00 0. -1.
          1    1    1    2  502    0 -0.74798826372E+01 -0.36151623710E+02  0.26266176818E+03  0.26524345987E+03  0.00000000000E+00 0. -1.
         22    1    3    3    0    0  0.11532373871E+02 -0.51640461920E+02  0.24283838639E+02  0.58218878153E+02  0.00000000000E+00 0. -1.
         22    1    3    3    0    0  0.76671361289E+02  0.64806753622E+02  0.59554545960E+02  0.11672684739E+03  0.00000000000E+00 0. -1.
</event>
<event>
 7    1  0.6103724E-006  0.6203769E+02  0.7818608E-02  0.1514109E+00
          2   -1    0    0  502    0  0.00000000000E+00  0.00000000000E+00  0.45186953326E+02  0.45186953326E+02  0.00000000000E+00 0. -1.
          1   -1    0    0  501    0 -0.00000000000E+00 -0.00000000000E+00 -0.86133992749E+03  0.86133992749E+03  0.00000000000E+00 0. -1.
         25    2    1    2    0    0  0.14317723599E+02 -0.72360239073E+02 -0.76971936319E+03  0.78328419411E+03  0.12500091711E+03 0.  0.
          2    1    1    2  501    0 -0.10837038740E+02  0.47824163960E+02 -0.72338840137E+02  0.87392790661E+02  0.00000000000E+00 0. -1.
          1    1    1    2  502    0 -0.34806848597E+01  0.24536075113E+02  0.25905229153E+02  0.35849896046E+02  0.00000000000E+00 0. -1.
         22    1    3    3    0    0 -0.20443506553E+02 -0.51123590693E+02 -0.70271775776E+03  0.70487148159E+03  0.00000000000E+00 0.  1.
         22    1    3    3    0    0  0.34761230152E+02 -0.21236648379E+02 -0.67001605425E+02  0.78412712526E+02  0.00000000000E+00 0.  1.
</event>
<event>
 7    1  0.6103724E-006  0.3207185E+03  0.7818608E-02  0.1327370E+00
          2   -1    0    0  502    0  0.00000000000E+00  0.00000000000E+00  0.10317221536E+04  0.10317221536E+04  0.00000000000E+00 0. -1.
          1   -1    0    0  501    0 -0.00000000000E+00 -0.00000000000E+00 -0.34717636632E+03  0.34717636632E+03  0.00000000000E+00 0. -1.
         25    2    1    2    0    0 -0.31125969109E+03  0.83003163669E+01  0.71794049294E+03  0.79247426053E+03  0.12500164660E+03 0.  0.
          2    1    1    2  501    0  0.32167336013E+03  0.90707197469E+01 -0.22569676686E+03  0.39305859505E+03  0.00000000000E+00 0. -1.
          1    1    1    2  502    0 -0.10413669037E+02 -0.17371036114E+02  0.19230206118E+03  0.19336566431E+03  0.00000000000E+00 0. -1.
         22    1    3    3    0    0 -0.13541456389E+03 -0.20008433403E+02  0.18211970996E+03  0.22782675496E+03  0.00000000000E+00 0.  1.
         22    1    3    3    0    0 -0.17584512721E+03  0.28308749770E+02  0.53582078297E+03  0.56464750556E+03  0.00000000000E+00 0.  1.
</event>
<event>
 7    1  0.6103724E-006  0.1577520E+03  0.7818608E-02  0.1355560E+00
          2   -1    0    0  502    0  0.00000000000E+00  0.00000000000E+00  0.10809763149E+04  0.10809763149E+04  0.00000000000E+00 0. -1.
          1   -1    0    0  501    0 -0.00000000000E+00 -0.00000000000E+00 -0.10925392665E+04  0.10925392665E+04  0.00000000000E+00 0. -1.
         25    2    1    2    0    0  0.12318082076E+03  0.55030559039E+02  0.11376883929E+03  0.21626376341E+03  0.12499915815E+03 0.  0.
          2    1    1    2  501    0 -0.13357833151E+03 -0.85581186508E+02 -0.10349616760E+04  0.10470496554E+04  0.00000000000E+00 0. -1.
          1    1    1    2  502    0  0.10397510756E+02  0.30550627470E+02  0.90962988504E+03  0.91020216261E+03  0.00000000000E+00 0. -1.
         22    1    3    3    0    0  0.88811550054E+02  0.94804793434E+02  0.92903779672E+02  0.15970770977E+03  0.00000000000E+00 0.  1.
         22    1    3    3    0    0  0.34369270701E+02 -0.39774234396E+02  0.20865059621E+02  0.56556053640E+02  0.00000000000E+00 0.  1.
</event>
<event>
 7    1  0.6103724E-006  0.4411676E+02  0.7818608E-02  0.1495546E+00
          2   -1    0    0  502    0  0.00000000000E+00  0.00000000000E+00  0.24054071844E+04  0.24054071844E+04  0.00000000000E+00 0. -1.
          1   -1    0    0  501    0 -0.00000000000E+00 -0.00000000000E+00 -0.41939042049E+02  0.41939042049E+02  0.00000000000E+00 0. -1.
         25    2    1    2    0    0 -0.71256173830E+01  0.49269932178E+02  0.11492024753E+04  0.11570521842E+04  0.12500050763E+03 0.  0.
          2    1    1    2  501    0 -0.29083432817E+02 -0.33344762627E+02 -0.24715819036E+02  0.50681268430E+02  0.00000000000E+00 0. -1.
          1    1    1    2  502    0  0.36209050200E+02 -0.15925169550E+02  0.12389814861E+04  0.12396127739E+04  0.00000000000E+00 0. -1.
         22    1    3    3    0    0 -0.34705777545E+02 -0.32210210089E+02  0.48405863794E+03  0.48636894802E+03  0.00000000000E+00 0. -1.
         22    1    3    3    0    0  0.27580160162E+02  0.81480142267E+02  0.66514383739E+03  0.67068323614E+03  0.00000000000E+00 0. -1.
</event>
<event>
 7    1  0.6103724E-006  0.9723378E+02  0.7818608E-02  0.1363168E+00
          2   -1    0    0  502    0  0.00000000000E+00  0.00000000000E+00  0.84089196457E+03  0.84089196457E+03  0.00000000000E+00 0. -1.
          1   -1    0    0  501    0 -0.00000000000E+00 -0.00000000000E+00 -0.76773121887E+03  0.76773121887E+03  0.00000000000E+00 0. -1.
         25    2    1    2    0    0  0.10438938255E+03  0.63237427824E+02  0.29458123220E+02  0.17716524666E+03  0.12499451240E+03 0.  0.
          2    1    1    2  501    0 -0.90132271417E+01 -0.48277418156E+02 -0.68984180590E+03  0.69158778512E+03  0.00000000000E+00 0. -1.
          1    1    1    2  502    0 -0.95376155411E+02 -0.14960009668E+02  0.73354442838E+03  0.73987015166E+03  0.00000000000E+00 0. -1.
         22    1    3    3    0    0  0.24944714954E+02 -0.15589976522E+02  0.54999411135E+02  0.62371639367E+02  0.00000000000E+00 0.  1.
         22    1    3    3    0    0  0.79444667599E+02  0.78827404346E+02 -0.25541287915E+02  0.11479360729E+03  0.00000000000E+00 0.  1.
</event>
<event>
 7    1  0.6103724E-006  0.1028028E+03  0.7818608E-02  0.1352717E+00
          2   -1    0    0  502    0  0.00000000000E+00  0.00000000000E+00  0.54378278856E+03  0.54378278856E+03  0.00000000000E+00 0. -1.
          1   -1    0    0  501    0 -0.00000000000E+00 -0.00000000000E+00 -0.84188485477E+02  0.84188485477E+02  0.00000000000E+00 0. -1.
         25    2    1    2    0    0 -0.29212319712E+02  0.11749448773E+03  0.64913443323E+02  0.18573330454E+03  0.12499916408E+03 0.  0.
          2    1    1    2  501    0 -0.14138153753E+02 -0.91147132946E+02  0.75913795827E+02  0.11945958159E+03  0.00000000000E+00 0. -1.
          1    1    1    2  502    0  0.43350473465E+02 -0.26347354782E+02  0.31876706394E+03  0.32277838792E+03  0.00000000000E+00 0. -1.
         22    1    3    3    0    0 -0.12319769145E+02  0.13626376626E+03  0.25882573888E+02  0.13924617890E+03  0.00000000000E+00 0. -1.
         22    1    3    3    0    0 -0.16892550567E+02 -0.18769278533E+02  0.39030869435E+02  0.46487125639E+02  0.00000000000E+00 0. -1.
</event>
<event>
 7    1  0.6103724E-006  0.7494305E+02  0.7818608E-02  0.1357636E+00
          2   -1    0    0  502    0  0.00000000000E+00  0.00000000000E+00  0.88437773772E+03  0.88437773772E+03  0.00000000000E+00 0. -1.
          1   -1    0    0  501    0 -0.00000000000E+00 -0.00000000000E+00 -0.17316939465E+03  0.17316939465E+03  0.00000000000E+00 0. -1.
         25    2    1    2    0    0 -0.21106639587E+02 -0.50442901878E+02  0.11956127445E+03  0.18141232962E+03  0.12500223360E+03 0.  0.
          2    1    1    2  501    0 -0.44153121183E+02  0.64466089040E+02 -0.12985537733E+03  0.15155129088E+03  0.00000000000E+00 0. -1.
          1    1    1    2  502    0  0.65259760770E+02 -0.14023187162E+02  0.72150244595E+03  0.72458351187E+03  0.00000000000E+00 0. -1.
         22    1    3    3    0    0 -0.14215445329E+02 -0.25125406677E+02  0.14320911520E+03  0.14608975195E+03  0.00000000000E+00 0.  1.
         22    1    3    3    0    0 -0.68911942576E+01 -0.25317495201E+02 -0.23647840751E+02  0.35322577676E+02  0.00000000000E+00 0.  1.
</event>
<event>
 7    1  0.6103724E-006  0.4405044E+02  0.7818608E-02  0.1590611E+00
          2   -1    0    0  502    0  0.00000000000E+00  0.00000000000E+00  0.36325275301E+03  0.36325275301E+03  0.00000000000E+00 0. -1.
          1   -1    0    0  501    0 -0.00000000000E+00 -0.00000000000E+00 -0.18174795173E+03  0.18174795173E+03  0.00000000000E+00 0. -1.
         25    2    1    2    0    0 -0.39694325079E+02  0.45898228079E+02  0.94606644826E+02  0.16810094189E+03  0.12500089053E+03 0.  0.
          2    1    1    2  501    0  0.19416992072E+02 -0.39126129924E+02 -0.14120018645E+03  0.14780178036E+03  0.00000000000E+00 0. -1.
          1    1    1    2  502    0  0.20277333006E+02 -0.67720981551E+01  0.22809834291E+03  0.22909798250E+03  0.00000000000E+00 0. -1.
         22    1    3    3    0    0 -0.56732849253E+02  0.52307294549E+02  0.11643088909E+03  0.13968114111E+03  0.00000000000E+00 0.  1.
         22    1    3    3    0    0  0.17038524174E+02 -0.64090664693E+01 -0.21824244259E+02  0.28419800783E+02  0.00000000000E+00 0.  1.
</event>
<event>
 7    1  0.6103724E-006  0.2097559E+03  0.7818608E-02  0.1214404E+00
          2   -1    0    0  502    0  0.00000000000E+00  0.00000000000E+00  0.19500206937E+04  0.19500206937E+04  0.00000000000E+00 0. -1.
          1   -1    0    0  501    0 -0.00000000000E+00 -0.00000000000E+00 -0.55375889261E+03  0.55375889261E+03  0.00000000000E+00 0. -1.
         25    2    1    2    0    0  0.26987721453E+03 -0.33945152309E+02  0.45176009513E+03  0.54194035691E+03  0.12500473031E+03 0.  0.
          2    1    1    2  501    0 -0.82969666070E+02 -0.40627951027E+02 -0.49742855411E+03  0.50593454353E+03  0.00000000000E+00 0. -1.
          1    1    1    2  502    0 -0.18690754846E+03  0.74573103336E+02  0.14419302601E+04  0.14559046859E+04  0.00000000000E+00 0. -1.
         22    1    3    3    0    0  0.52396407286E+02 -0.37841861015E+02  0.39309674146E+02  0.75648135621E+02  0.00000000000E+00 0.  1.
         22    1    3    3    0    0  0.21748080725E+03  0.38967087064E+01  0.41245042098E+03  0.46629222128E+03  0.00000000000E+00 0.  1.
</event>
<event>
 7    1  0.6103724E-006  0.1044259E+03  0.7818608E-02  0.1404289E+00
          2   -1    0    0  502    0  0.00000000000E+00  0.00000000000E+00  0.18584955963E+03  0.18584955963E+03  0.00000000000E+00 0. -1.
          1   -1    0    0  501    0 -0.00000000000E+00 -0.00000000000E+00 -0.69786676806E+03  0.69786676806E+03  0.00000000000E+00 0. -1.
         25    2    1    2    0    0  0.15957507149E+02  0.88329814303E+02  0.75430618581E+02  0.17138028165E+03  0.12499849835E+03 0.  0.
          2    1    1    2  501    0  0.12641373244E+02 -0.10430534345E+03 -0.64100275137E+03  0.64955672290E+03  0.00000000000E+00 0. -1.
          1    1    1    2  502    0 -0.28598880393E+02  0.15975529149E+02  0.53554924355E+02  0.62779323140E+02  0.00000000000E+00 0. -1.
         22    1    3    3    0    0  0.73211381420E+01  0.23372262268E+02  0.98813980834E+02  0.10180404960E+03  0.00000000000E+00 0. -1.
         22    1    3    3    0    0  0.86363690069E+01  0.64957552035E+02 -0.23383362253E+02  0.69576232050E+02  0.00000000000E+00 0. -1.
</event>
<event>
 7    1  0.6103724E-006  0.1610575E+03  0.7818608E-02  0.1379205E+00
          2   -1    0    0  502    0  0.00000000000E+00  0.00000000000E+00  0.13276880072E+04  0.13276880072E+04  0.00000000000E+00 0. -1.
          1   -1    0    0  501    0 -0.00000000000E+00 -0.00000000000E+00 -0.20194757610E+03  0.20194757610E+03  0.00000000000E+00 0. -1.
         25    2    1    2    0    0  0.13695841562E+03  0.39675992610E+02  0.78635916430E+02  0.20527657892E+03  0.12499229777E+03 0.  0.
          2    1    1    2  501    0 -0.15892714565E+03 -0.53525370862E+02 -0.87707691595E+02  0.18924968194E+03  0.00000000000E+00 0. -1.
          1    1    1    2  502    0  0.21968730024E+02  0.13849378252E+02  0.11348122062E+04  0.11351093224E+04  0.00000000000E+00 0. -1.
         22    1    3    3    0    0  0.45522057846E+02  0.25974862441E+01  0.94891977770E+02  0.10527816550E+03  0.00000000000E+00 0. -1.
         22    1    3    3    0    0  0.91436357777E+02  0.37078506366E+02 -0.16256061340E+02  0.99998413428E+02  0.00000000000E+00 0. -1.
</event>
<event>
 7    1  0.6103724E-006  0.2222460E+03  0.7818608E-02  0.1175727E+00
          2   -1    0    0  502    0  0.00000000000E+00  0.00000000000E+00  0.20005473763E+04  0.20005473763E+04  0.00000000000E+00 0. -1.
          1   -1    0    0  501    0 -0.00000000000E+00 -0.00000000000E+00 -0.13139554325E+03  0.13139554325E+03  0.00000000000E+00 0. -1.
         25    2    1    2    0    0  0.29503845322E+03 -0.11545343306E+03  0.58805665425E+03  0.67956926531E+03  0.12500629447E+03 0.  0.
          2    1    1    2  501    0 -0.16222689749E+03  0.12549918853E+03  0.46104897483E+02  0.21022196404E+03  0.00000000000E+00 0. -1.
          1    1    1    2  502    0 -0.13281155573E+03 -0.10045755470E+02  0.12349902813E+04  0.12421516902E+04  0.00000000000E+00 0. -1.
         22    1    3    3    0    0  0.18107600879E+02  0.81419238326E+01  0.12152234875E+03  0.12313349414E+03  0.00000000000E+00 0. -1.
         22    1    3    3    0    0  0.27693085234E+03 -0.12359535689E+03  0.46653430550E+03  0.55643577116E+03  0.00000000000E+00 0. -1.
</event>
<event>
 7    1  0.6103724E-006  0.8367711E+02  0.7818608E-02  0.1441058E+00
          2   -1    0    0  502    0  0.00000000000E+00  0.00000000000E+00  0.31403957015E+03  0.31403957015E+03  0.00000000000E+00 0. -1.
          1   -1    0    0  501    0 -0.00000000000E+00 -0.00000000000E+00 -0.13615441821E+03  0.13615441821E+03  0.00000000000E+00 0. -1.
         25    2    1    2    0    0 -0.13907353076E+02  0.61685878587E+02  0.40808930059E+02  0.14590764611E+03  0.12500044133E+03 0.  0.
          2    1    1    2  501    0  0.17111662560E+02  0.25662187958E+02 -0.71644946072E+02  0.78002276787E+02  0.00000000000E+00 0. -1.
          1    1    1    2  502    0 -0.32043094839E+01 -0.87348066545E+02  0.20872116796E+03  0.22628406546E+03  0.00000000000E+00 0. -1.
         22    1    3    3    0    0 -0.61641068675E+02  0.61785603509E+02  0.72882878357E+01  0.87579685361E+02  0.00000000000E+00 0. -1.
         22    1    3    3    0    0  0.47733715599E+02 -0.99724921521E-01  0.33520642224E+02  0.58327960748E+02  0.00000000000E+00 0. -1.
</event>
<event>
 7    1  0.6103724E-006  0.9080236E+02  0.7818608E-02  0.1363625E+00
          2   -1    0    0  502    0  0.00000000000E+00  0.00000000000E+00  0.42694687157E+03  0.42694687157E+03  0.00000000000E+00 0. -1.
          1   -1    0    0  501    0 -0.00000000000E+00 -0.00000000000E+00 -0.26512176873E+03  0.26512176873E+03  0.00000000000E+00 0. -1.
         25    2    1    2    0    0  0.42696369408E+02  0.60898348318E+02  0.19418175240E+02  0.14674214186E+03  0.12499840751E+03 0.  0.
          2    1    1    2  501    0  0.44723147952E+02 -0.27285896011E+02 -0.19149788221E+03  0.19853493137E+03  0.00000000000E+00 0. -1.
          1    1    1    2  502    0 -0.87419517360E+02 -0.33612452307E+02  0.33390480981E+03  0.34679156706E+03  0.00000000000E+00 0. -1.
         22    1    3    3    0    0  0.66306550687E+02  0.86726857967E+02  0.62361628188E+01  0.10934805112E+03  0.00000000000E+00 0.  1.
         22    1    3    3    0    0 -0.23610181279E+02 -0.25828509649E+02  0.13182012421E+02  0.37394090739E+02  0.00000000000E+00 0.  1.
</event>
<event>
 7    1  0.6103724E-006  0.5568393E+02  0.7818608E-02  0.1455579E+00
          2   -1    0    0  502    0  0.00000000000E+00  0.00000000000E+00  0.77326628203E+03  0.77326628203E+03  0.00000000000E+00 0. -1.
          1   -1    0    0  501    0 -0.00000000000E+00 -0.00000000000E+00 -0.27148665821E+03  0.27148665821E+03  0.00000000000E+00 0. -1.
         25    2    1    2    0    0 -0.24974208908E+01 -0.34169654337E+01 -0.15056014849E+03  0.19573316376E+03  0.12500080126E+03 0.  0.
          2    1    1    2  501    0 -0.38060870049E+02  0.41570933530E+02 -0.89133372084E+02  0.10545866661E+03  0.00000000000E+00 0. -1.
          1    1    1    2  502    0  0.40558290940E+02 -0.38153968096E+02  0.74147314440E+03  0.74356110987E+03  0.00000000000E+00 0. -1.
         22    1    3    3    0    0  0.54674628355E+01  0.41439679667E+01 -0.17173916396E+03  0.17187613580E+03  0.00000000000E+00 0. -1.
         22    1    3    3    0    0 -0.79648837262E+01 -0.75609334004E+01  0.21179015468E+02  0.23857027955E+02  0.00000000000E+00 0. -1.
</event>
<event>
 7    1  0.6103724E-006  0.6732300E+02  0.7818608E-02  0.1403234E+00
          2   -1    0    0  502    0  0.00000000000E+00  0.00000000000E+00  0.17531008224E+03  0.17531008224E+03  0.00000000000E+00 0. -1.
          1   -1    0    0  501    0 -0.00000000000E+00 -0.00000000000E+00 -0.22755683261E+03  0.22755683261E+03  0.00000000000E+00 0. -1.
         25    2    1    2    0    0 -0.22753709916E+02  0.67594177541E+02 -0.16052636376E+02  0.14481411627E+03  0.12500694774E+03 0.  0.
          2    1    1    2  501    0 -0.37907852100E+02 -0.34469258496E+02 -0.13103692921E+03  0.14069759006E+03  0.00000000000E+00 0. -1.
          1    1    1    2  502    0  0.60661562016E+02 -0.33124919045E+02  0.94842815213E+02  0.11735520851E+03  0.00000000000E+00 0. -1.
         22    1    3    3    0    0  0.34887481561E+02  0.69493189136E+02  0.15181331593E+02  0.79226968483E+02  0.00000000000E+00 0. -1.
         22    1    3    3    0    0 -0.57641191477E+02 -0.18990115958E+01 -0.31233967969E+02  0.65587147789E+02  0.00000000000E+00 0. -1.
</event>
<event>
 7    1  0.6103724E-006  0.1224335E+03  0.7818608E-02  0.1277168E+00
          2   -1    0    0  502    0  0.00000000000E+00  0.00000000000E+00  0.21572168193E+04  0.21572168193E+04  0.00000000000E+00 0. -1.
          1   -1    0    0  501    0 -0.00000000000E+00 -0.00000000000E+00 -0.24393880542E+04  0.24393880542E+04  0.00000000000E+00 0. -1.
         25    2    1    2    0    0 -0.14004320155E+03 -0.67783477641E+02  0.43982618261E+03  0.48298891576E+03  0.12499809479E+03 0.  0.
          2    1    1    2  501    0  0.64192085494E+02  0.10422137778E+03 -0.24152119438E+04  0.24183116947E+04  0.00000000000E+00 0. -1.
          1    1    1    2  502    0  0.75851116054E+02 -0.36437900137E+02  0.16932145263E+04  0.16953042631E+04  0.00000000000E+00 0. -1.
         22    1    3    3    0    0 -0.68487945112E+02 -0.49689597124E+02  0.82705608339E+02  0.11832105619E+03  0.00000000000E+00 0. -1.
         22    1    3    3    0    0 -0.71555256436E+02 -0.18093880517E+02  0.35712057427E+03  0.36466785957E+03  0.00000000000E+00 0. -1.
</event>
<event>
 7    1  0.6103724E-006  0.1227154E+03  0.7818608E-02  0.1307461E+00
          2   -1    0    0  502    0  0.00000000000E+00  0.00000000000E+00  0.39264805076E+03  0.39264805076E+03  0.00000000000E+00 0. -1.
          1   -1    0    0  501    0 -0.00000000000E+00 -0.00000000000E+00 -0.38424221507E+03  0.38424221507E+03  0.00000000000E+00 0. -1.
         25    2    1    2    0    0 -0.62875725632E+02 -0.84288737488E+01 -0.14463398873E+03  0.20141458076E+03  0.12499775943E+03 0.  0.
          2    1    1    2  501    0 -0.63261366965E+02 -0.16410840261E+01 -0.19507142944E+03  0.20507939021E+03  0.00000000000E+00 0. -1.
          1    1    1    2  502    0  0.12613709260E+03  0.10069957775E+02  0.34811125386E+03  0.37039629485E+03  0.00000000000E+00 0. -1.
         22    1    3    3    0    0 -0.30288593598E+02 -0.51364180852E+02 -0.13372910238E+03  0.14642114191E+03  0.00000000000E+00 0. -1.
         22    1    3    3    0    0 -0.32587132034E+02  0.42935307104E+02 -0.10904886353E+02  0.54993438851E+02  0.00000000000E+00 0. -1.
</event>
<event>
 7    1  0.6103724E-006  0.1838731E+03  0.7818608E-02  0.1232893E+00
          2   -1    0    0  502    0  0.00000000000E+00  0.00000000000E+00  0.12921295341E+03  0.12921295341E+03  0.00000000000E+00 0. -1.
          1   -1    0    0  501    0 -0.00000000000E+00 -0.00000000000E+00 -0.58891969645E+03  0.58891969645E+03  0.00000000000E+00 0. -1.
         25    2    1    2    0    0  0.42060578979E+02 -0.39662445375E+02 -0.20884360647E+03  0.25016272830E+03  0.12499414702E+03 0.  0.
          2    1    1    2  501    0 -0.17537832322E+03 -0.86969710468E+02 -0.19375843093E+03  0.27543350622E+03  0.00000000000E+00 0. -1.
          1    1    1    2  502    0  0.13331774424E+03  0.12663215584E+03 -0.57104705634E+02  0.19253641533E+03  0.00000000000E+00 0. -1.
         22    1    3    3    0    0 -0.25963874613E+02 -0.11933392778E+02 -0.15862643572E+03  0.16117963506E+03  0.00000000000E+00 0.  1.
         22    1    3    3    0    0  0.68024453592E+02 -0.27729052597E+02 -0.50217170752E+02  0.88983093241E+02  0.00000000000E+00 0.  1.
</event>
<event>
 7    1  0.6103724E-006  0.9342555E+02  0.7818608E-02  0.1381101E+00
          2   -1    0    0  502    0  0.00000000000E+00  0.00000000000E+00  0.11626306648E+03  0.11626306648E+03  0.00000000000E+00 0. -1.
          1   -1    0    0  501    0 -0.00000000000E+00 -0.00000000000E+00 -0.28053903503E+04  0.28053903503E+04  0.00000000000E+00 0. -1.
         25    2    1    2    0    0 -0.11618461645E+03 -0.48935272551E+02 -0.25537285633E+03  0.31102000440E+03  0.12499848553E+03 0.  0.
          2    1    1    2  501    0  0.43664786719E+02 -0.60572594816E+01 -0.24985327265E+04  0.24989215853E+04  0.00000000000E+00 0. -1.
          1    1    1    2  502    0  0.72519829728E+02  0.54992532033E+02  0.64778299040E+02  0.11171182708E+03  0.00000000000E+00 0. -1.
         22    1    3    3    0    0 -0.32006822886E+02 -0.18084893539E+02 -0.20482701810E+03  0.20809999382E+03  0.00000000000E+00 0. -1.
         22    1    3    3    0    0 -0.84177793561E+02 -0.30850379012E+02 -0.50545838233E+02  0.10292001057E+03  0.00000000000E+00 0. -1.
</event>
<event>
 7    1  0.6103724E-006  0.7132710E+02  0.7818608E-02  0.1399635E+00
          2   -1    0    0  502    0  0.00000000000E+00  0.00000000000E+00  0.78884438121E+03  0.78884438121E+03  0.00000000000E+00 0. -1.
          1   -1    0    0  501    0 -0.00000000000E+00 -0.00000000000E+00 -0.63135378119E+03  0.63135378119E+03  0.00000000000E+00 0. -1.
         25    2    1    2    0    0  0.47534487470E+02  0.10062249514E+03 -0.11243648799E+02  0.16776392654E+03  0.12503560047E+03 0.  0.
          2    1    1    2  501    0 -0.39353297189E+02 -0.30444655786E+02 -0.53894500517E+03  0.54123680369E+03  0.00000000000E+00 0. -1.
          1    1    1    2  502    0 -0.81811902808E+01 -0.70177839354E+02  0.70767925398E+03  0.71119743217E+03  0.00000000000E+00 0. -1.
         22    1    3    3    0    0  0.56886884880E+02  0.29304809234E+01  0.26233465758E+02  0.62712838522E+02  0.00000000000E+00 0.  1.
         22    1    3    3    0    0 -0.93523974102E+01  0.97692014216E+02 -0.37477114557E+02  0.10505108802E+03  0.00000000000E+00 0.  1.
</event>
<event>
 7    1  0.6103724E-006  0.5051311E+02  0.7818608E-02  0.1493643E+00
          2   -1    0    0  502    0  0.00000000000E+00  0.00000000000E+00  0.18671144320E+04  0.18671144320E+04  0.00000000000E+00 0. -1.
          1   -1    0    0  501    0 -0.00000000000E+00 -0.00000000000E+00 -0.46218391072E+03  0.46218391072E+03  0.00000000000E+00 0. -1.
         25    2    1    2    0    0  0.12901637037E+02  0.48470389681E+02  0.77221917503E+02  0.15525700194E+03  0.12500272475E+03 0.  0.
          2    1    1    2  501    0 -0.41776252757E+02 -0.28680624091E+02 -0.42147358667E+03  0.42450891363E+03  0.00000000000E+00 0. -1.
          1    1    1    2  502    0  0.28874615720E+02 -0.19789765590E+02  0.17491821904E+04  0.17495324271E+04  0.00000000000E+00 0. -1.
         22    1    3    3    0    0 -0.14970854512E+02 -0.37645603492E+02  0.79712794422E+01  0.41289941185E+02  0.00000000000E+00 0.  1.
         22    1    3    3    0    0  0.27872491549E+02  0.86115993173E+02  0.69250638061E+02  0.11396706076E+03  0.00000000000E+00 0.  1.
</event>
<event>
 7    1  0.6103724E-006  0.5488279E+02  0.7818608E-02  0.1443867E+00
          2   -1    0    0  502    0  0.00000000000E+00  0.00000000000E+00  0.27456722744E+04  0.27456722744E+04  0.00000000000E+00 0. -1.
          1   -1    0    0  501    0 -0.00000000000E+00 -0.00000000000E+00 -0.31372946999E+03  0.31372946999E+03  0.00000000000E+00 0. -1.
         25    2    1    2    0    0  0.12270085125E+02  0.42383610008E+01  0.61835587822E+03  0.63099714602E+03  0.12499954986E+03 0.  0.
          2    1    1    2  501    0 -0.51081201569E+02  0.20552593255E+02 -0.30469102166E+03  0.30962609212E+03  0.00000000000E+00 0. -1.
          1    1    1    2  502    0  0.38811116444E+02 -0.24790954256E+02  0.21182779479E+04  0.21187785063E+04  0.00000000000E+00 0. -1.
         22    1    3    3    0    0 -0.10232173710E+01  0.62489516548E+02  0.24261735673E+03  0.25053775851E+03  0.00000000000E+00 0.  1.
         22    1    3    3    0    0  0.13293302496E+02 -0.58251155548E+02  0.37573852150E+03  0.38045938752E+03  0.00000000000E+00 0.  1.
</event>
<event>
 7    1  0.6103724E-006  0.8850124E+02  0.7818608E-02  0.1489433E+00
          2   -1    0    0  502    0  0.00000000000E+00  0.00000000000E+00  0.19087838649E+04  0.19087838649E+04  0.00000000000E+00 0. -1.
          1   -1    0    0  501    0 -0.00000000000E+00 -0.00000000000E+00 -0.19047707193E+02  0.19047707193E+02  0.00000000000E+00 0. -1.
         25    2    1    2    0    0 -0.78721241486E+02  0.50276241380E+02  0.16327911336E+04  0.16402306647E+04  0.12500005221E+03 0.  0.
          2    1    1    2  501    0  0.82962679239E+02 -0.30144988947E+02  0.11918140728E+03  0.14830958953E+03  0.00000000000E+00 0. -1.
          1    1    1    2  502    0 -0.42414377530E+01 -0.20131252433E+02  0.13776361678E+03  0.13929131784E+03  0.00000000000E+00 0. -1.
         22    1    3    3    0    0 -0.20205416516E+02  0.85293293400E+02  0.95896670776E+03  0.96296435622E+03  0.00000000000E+00 0. -1.
         22    1    3    3    0    0 -0.58515824971E+02 -0.35017052021E+02  0.67382442587E+03  0.67726630848E+03  0.00000000000E+00 0. -1.
</event>
<event>
 7    1  0.6103724E-006  0.1348689E+03  0.7818608E-02  0.1277066E+00
          2   -1    0    0  502    0  0.00000000000E+00  0.00000000000E+00  0.20212306972E+04  0.20212306972E+04  0.00000000000E+00 0. -1.
          1   -1    0    0  501    0 -0.00000000000E+00 -0.00000000000E+00 -0.15312346234E+03  0.15312346234E+03  0.00000000000E+00 0. -1.
         25    2    1    2    0    0 -0.11055879889E+03  0.56103007268E+02  0.27944413261E+03  0.33027816492E+03  0.12499539005E+03 0.  0.
          2    1    1    2  501    0  0.68843884477E+02 -0.12018718436E+03 -0.89022032785E+02  0.16464920904E+03  0.00000000000E+00 0. -1.
          1    1    1    2  502    0  0.41714914410E+02  0.64084177095E+02  0.16776851350E+04  0.16794267856E+04  0.00000000000E+00 0. -1.
         22    1    3    3    0    0 -0.42180028147E+02 -0.19505713846E+02  0.18306286512E+02  0.49947450115E+02  0.00000000000E+00 0. -1.
         22    1    3    3    0    0 -0.68378770740E+02  0.75608721114E+02  0.26113784610E+03  0.28033071480E+03  0.00000000000E+00 0. -1.
</event>
<event>
 7    1  0.6103724E-006  0.2494793E+03  0.7818608E-02  0.1186501E+00
          2   -1    0    0  502    0  0.00000000000E+00  0.00000000000E+00  0.30209777248E+04  0.30209777248E+04  0.00000000000E+00 0. -1.
          1   -1    0    0  501    0 -0.00000000000E+00 -0.00000000000E+00 -0.33675866627E+03  0.33675866627E+03  0.00000000000E+00 0. -1.
         25    2    1    2    0    0  0.24817668099E+03  0.44517963253E+02  0.59417088128E+03  0.65744801116E+03  0.12500134868E+03 0.  0.
          2    1    1    2  501    0 -0.24353961122E+03  0.60523394751E+02 -0.25214224227E+03  0.35573913740E+03  0.00000000000E+00 0. -1.
          1    1    1    2  502    0 -0.46370697663E+01 -0.10504135800E+03  0.23421904195E+04  0.23445492425E+04  0.00000000000E+00 0. -1.
         22    1    3    3    0    0  0.23570893784E+03  0.53717133639E+01  0.54186974041E+03  0.59094024592E+03  0.00000000000E+00 0. -1.
         22    1    3    3    0    0  0.12467743143E+02  0.39146249889E+02  0.52301140875E+02  0.66507765233E+02  0.00000000000E+00 0. -1.
</event>
<event>
 7    1  0.6103724E-006  0.7972232E+02  0.7818608E-02  0.1353380E+00
          2   -1    0    0  502    0  0.00000000000E+00  0.00000000000E+00  0.60287685038E+03  0.60287685038E+03  0.00000000000E+00 0. -1.
          1   -1    0    0  501    0 -0.00000000000E+00 -0.00000000000E+00 -0.31357663944E+03  0.31357663944E+03  0.00000000000E+00 0. -1.
         25    2    1    2    0    0 -0.46838800427E+02  0.71424002930E+02  0.64397980701E+02  0.16452041818E+03  0.12499842663E+03 0.  0.
          2    1    1    2  501    0  0.64602736375E+02  0.75987803957E+01 -0.25606287509E+03  0.26419585729E+03  0.00000000000E+00 0. -1.
          1    1    1    2  502    0 -0.17763935948E+02 -0.79022783326E+02  0.48096510533E+03  0.48773721434E+03  0.00000000000E+00 0. -1.
         22    1    3    3    0    0  0.19900434522E+02  0.68963584592E+02  0.66295003517E+02  0.97708908423E+02  0.00000000000E+00 0. -1.
         22    1    3    3    0    0 -0.66739234950E+02  0.24604183385E+01 -0.18970228164E+01  0.66811509754E+02  0.00000000000E+00 0. -1.
</event>
<event>
 7    1  0.6103724E-006  0.8012916E+02  0.7818608E-02  0.1346260E+00
          2   -1    0    0  502    0  0.00000000000E+00  0.00000000000E+00  0.12368950438E+04  0.12368950438E+04  0.00000000000E+00 0. -1.
          1   -1    0    0  501    0 -0.00000000000E+00 -0.00000000000E+00 -0.82192372229E+03  0.82192372229E+03  0.00000000000E+00 0. -1.
         25    2    1    2    0    0 -0.76930240634E+02  0.12651862363E+03 -0.26547628225E+03  0.32867724051E+03  0.12500339174E+03 0.  0.
          2    1    1    2  501    0  0.30245969103E+02 -0.61764195164E+02 -0.52126413294E+03  0.52578125750E+03  0.00000000000E+00 0. -1.
          1    1    1    2  502    0  0.46684271531E+02 -0.64754428469E+02  0.12017117367E+04  0.12043602681E+04  0.00000000000E+00 0. -1.
         22    1    3    3    0    0 -0.80864125932E+01  0.47092496658E+02 -0.53042152957E+01  0.48075232813E+02  0.00000000000E+00 0. -1.
         22    1    3    3    0    0 -0.68843828041E+02  0.79426126975E+02 -0.26017206695E+03  0.28060200770E+03  0.00000000000E+00 0. -1.
</event>
<event>
 7    1  0.6103724E-006  0.1673318E+03  0.7818608E-02  0.1272318E+00
          2   -1    0    0  502    0  0.00000000000E+00  0.00000000000E+00  0.17662202801E+04  0.17662202801E+04  0.00000000000E+00 0. -1.
          1   -1    0    0  501    0 -0.00000000000E+00 -0.00000000000E+00 -0.43526967285E+03  0.43526967285E+03  0.00000000000E+00 0. -1.
         25    2    1    2    0    0  0.28510804574E+02  0.13280761234E+03  0.11711513913E+03  0.21861124617E+03  0.12499677302E+03 0.  0.
          2    1    1    2  501    0 -0.53338182002E+02  0.36274297463E+02 -0.37720804573E+03  0.38268354561E+03  0.00000000000E+00 0. -1.
          1    1    1    2  502    0  0.24827377429E+02 -0.16908190981E+03  0.15910435139E+04  0.16001951612E+04  0.00000000000E+00 0. -1.
         22    1    3    3    0    0  0.22966858454E+02  0.11765028581E+01  0.77792251007E+02  0.81120250635E+02  0.00000000000E+00 0. -1.
         22    1    3    3    0    0  0.55439461193E+01  0.13163110948E+03  0.39322888125E+02  0.13749099554E+03  0.00000000000E+00 0. -1.
</event>
<event>
 7    1  0.6103724E-006  0.1992064E+03  0.7818608E-02  0.1211749E+00
          2   -1    0    0  502    0  0.00000000000E+00  0.00000000000E+00  0.84543342287E+03  0.84543342287E+03  0.00000000000E+00 0. -1.
          1   -1    0    0  501    0 -0.00000000000E+00 -0.00000000000E+00 -0.40905469954E+03  0.40905469954E+03  0.00000000000E+00 0. -1.
         25    2    1    2    0    0  0.12119248212E+03 -0.26537177615E+03  0.27703650357E+03  0.42128959972E+03  0.12500362085E+03 0.  0.
          2    1    1    2  501    0 -0.75251970390E+02  0.17648461389E+03 -0.30383332555E+03  0.35933879237E+03  0.00000000000E+00 0. -1.
          1    1    1    2  502    0 -0.45940511730E+02  0.88887162258E+02  0.46317554532E+03  0.47385973032E+03  0.00000000000E+00 0. -1.
         22    1    3    3    0    0  0.45066563476E+02 -0.48416009686E+02  0.68261682526E+01  0.66495877395E+02  0.00000000000E+00 0.  1.
         22    1    3    3    0    0  0.76125918645E+02 -0.21695576646E+03  0.27021033531E+03  0.35479372233E+03  0.00000000000E+00 0.  1.
</event>
<event>
 7    1  0.6103724E-006  0.3934003E+02  0.7818608E-02  0.1515594E+00
          2   -1    0    0  502    0  0.00000000000E+00  0.00000000000E+00  0.16921456256E+03  0.16921456256E+03  0.00000000000E+00 0. -1.
          1   -1    0    0  501    0 -0.00000000000E+00 -0.00000000000E+00 -0.44080010190E+03  0.44080010190E+03  0.00000000000E+00 0. -1.
         25    2    1    2    0    0 -0.77347548151E+00  0.41412650408E+02 -0.12638216855E+03  0.18251917325E+03  0.12500076079E+03 0.  0.
          2    1    1    2  501    0 -0.33133463559E+02 -0.21463788545E+02 -0.28220732336E+03  0.28495524909E+03  0.00000000000E+00 0. -1.
          1    1    1    2  502    0  0.33906939040E+02 -0.19948861863E+02  0.13700395257E+03  0.14254024212E+03  0.00000000000E+00 0. -1.
         22    1    3    3    0    0  0.15350013963E+02  0.18617917497E+02 -0.14626526699E+03  0.14824229527E+03  0.00000000000E+00 0. -1.
         22    1    3    3    0    0 -0.16123489444E+02  0.22794732910E+02  0.19883098440E+02  0.34276877978E+02  0.00000000000E+00 0. -1.
</event>
<event>
 7    1  0.6103724E-006  0.8826761E+02  0.7818608E-02  0.1320712E+00
          2   -1    0    0  502    0  0.00000000000E+00  0.00000000000E+00  0.16446619349E+04  0.16446619349E+04  0.00000000000E+00 0. -1.
          1   -1    0    0  501    0 -0.00000000000E+00 -0.00000000000E+00 -0.15424788557E+04  0.15424788557E+04  0.00000000000E+00 0. -1.
         25    2    1    2    0    0 -0.42317454311E+02  0.12118619680E+03 -0.48449336207E+02  0.18560395264E+03  0.12499851128E+03 0.  0.
          2    1    1    2  501    0  0.68685037278E+02 -0.37114948885E+02 -0.14231500541E+04  0.14252898758E+04  0.00000000000E+00 0. -1.
          1    1    1    2  502    0 -0.26367582967E+02 -0.84071247916E+02  0.15737824695E+04  0.15762469620E+04  0.00000000000E+00 0. -1.
         22    1    3    3    0    0 -0.78724545818E+02  0.38041244487E+02 -0.33410759938E+02  0.93600049551E+02  0.00000000000E+00 0.  1.
         22    1    3    3    0    0  0.36407091507E+02  0.83144952314E+02 -0.15038576269E+02  0.92003903088E+02  0.00000000000E+00 0.  1.
</event>
<event>
 7    1  0.6103724E-006  0.2726587E+03  0.7818608E-02  0.1237048E+00
          2   -1    0    0  502    0  0.00000000000E+00  0.00000000000E+00  0.12625550546E+04  0.12625550546E+04  0.00000000000E+00 0. -1.
          1   -1    0    0  501    0 -0.00000000000E+00 -0.00000000000E+00 -0.31924614554E+03  0.31924614554E+03  0.00000000000E+00 0. -1.
         25    2    1    2    0    0  0.17487305190E+03 -0.19378222657E+03  0.10252587171E+03  0.30703222205E+03  0.12500038156E+03 0.  0.
          2    1    1    2  501    0 -0.22411624067E+03  0.16678355019E+03 -0.12592276580E+03  0.30643332863E+03  0.00000000000E+00 0. -1.
          1    1    1    2  502    0  0.49243188773E+02  0.26998676374E+02  0.96670580313E+03  0.96833564944E+03  0.00000000000E+00 0. -1.
         22    1    3    3    0    0  0.31806042593E+01 -0.10326051364E+02  0.48936791580E+02  0.50115398336E+02  0.00000000000E+00 0. -1.
         22    1    3    3    0    0  0.17169244764E+03 -0.18345617520E+03  0.53589080128E+02  0.25691682371E+03  0.00000000000E+00 0. -1.
</event>
<event>
 7    1  0.6103724E-006  0.1000352E+03  0.7818608E-02  0.1400430E+00
          2   -1    0    0  502    0  0.00000000000E+00  0.00000000000E+00  0.17577622200E+04  0.17577622200E+04  0.00000000000E+00 0. -1.
          1   -1    0    0  501    0 -0.00000000000E+00 -0.00000000000E+00 -0.25679095295E+02  0.25679095295E+02  0.00000000000E+00 0. -1.
         25    2    1    2    0    0 -0.63521710666E+02  0.32371308026E+02  0.35544761351E+03  0.38347191291E+03  0.12499917093E+03 0.  0.
          2    1    1    2  501    0 -0.21505804584E+02  0.27934313290E+02  0.22487913930E+02  0.41815448853E+02  0.00000000000E+00 0. -1.
          1    1    1    2  502    0  0.85027515250E+02 -0.60305621316E+02  0.13541475973E+04  0.13581539536E+04  0.00000000000E+00 0. -1.
         22    1    3    3    0    0 -0.58683947683E+02 -0.13766741987E+02  0.62339492275E+02  0.86715288143E+02  0.00000000000E+00 0.  1.
         22    1    3    3    0    0 -0.48377629822E+01  0.46138050012E+02  0.29310812123E+03  0.29675662477E+03  0.00000000000E+00 0.  1.
</event>
<event>
 7    1  0.6103724E-006  0.3103508E+02  0.7818608E-02  0.1593852E+00
          2   -1    0    0  502    0  0.00000000000E+00  0.00000000000E+00  0.14372611978E+04  0.14372611978E+04  0.00000000000E+00 0. -1.
          1   -1    0    0  501    0 -0.00000000000E+00 -0.00000000000E+00 -0.29041573042E+02  0.29041573042E+02  0.00000000000E+00 0. -1.
         25    2    1    2    0    0  0.65608901295E+01  0.45342529444E+01  0.18084717090E+03  0.21998894145E+03  0.12500332160E+03 0.  0.
          2    1    1    2  501    0 -0.29538884496E+02  0.16326901785E+02  0.21445917628E+02  0.39988008229E+02  0.00000000000E+00 0. -1.
          1    1    1    2  502    0  0.22977994366E+02 -0.20861154730E+02  0.12059265363E+04  0.12063258212E+04  0.00000000000E+00 0. -1.
         22    1    3    3    0    0  0.37284666891E+02 -0.48969311766E+02  0.10995352120E+03  0.12600760574E+03  0.00000000000E+00 0.  1.
         22    1    3    3    0    0 -0.30723776762E+02  0.53503564711E+02  0.70893649692E+02  0.93981335711E+02  0.00000000000E+00 0.  1.
</event>
<event>
 7    1  0.6103724E-006  0.1466269E+03  0.7818608E-02  0.1240200E+00
          2   -1    0    0  502    0  0.00000000000E+00  0.00000000000E+00  0.67253364739E+02  0.67253364739E+02  0.00000000000E+00 0. -1.
          1   -1    0    0  501    0 -0.00000000000E+00 -0.00000000000E+00 -0.10830505914E+04  0.10830505914E+04  0.00000000000E+00 0. -1.
         25    2    1    2    0    0 -0.10559732738E+03  0.11172783407E+03 -0.47622892883E+03  0.51580325536E+03  0.12500040454E+03 0.  0.
          2    1    1    2  501    0  0.15337141022E+03 -0.22590984588E+02 -0.50398775911E+03  0.52729195271E+03  0.00000000000E+00 0. -1.
          1    1    1    2  502    0 -0.47774082850E+02 -0.89136849485E+02 -0.35580538736E+02  0.10720874808E+03  0.00000000000E+00 0. -1.
         22    1    3    3    0    0 -0.99929473259E+02  0.11959883424E+03 -0.48054542919E+03  0.50518678752E+03  0.00000000000E+00 0.  1.
         22    1    3    3    0    0 -0.56678541164E+01 -0.78710001694E+01  0.43165003603E+01  0.10616467836E+02  0.00000000000E+00 0.  1.
</event>
<event>
 7    1  0.6103724E-006  0.7811062E+02  0.7818608E-02  0.1371960E+00
          2   -1    0    0  502    0  0.00000000000E+00  0.00000000000E+00  0.42153910727E+03  0.42153910727E+03  0.00000000000E+00 0. -1.
          1   -1    0    0  501    0 -0.00000000000E+00 -0.00000000000E+00 -0.32947072570E+03  0.32947072570E+03  0.00000000000E+00 0. -1.
         25    2    1    2    0    0  0.27123625369E+02  0.28817465966E+01  0.11129390210E+01  0.12794856977E+03  0.12500240940E+03 0.  0.
          2    1    1    2  501    0  0.52962925008E+02 -0.20602390170E+02 -0.25821062860E+03  0.26439035275E+03  0.00000000000E+00 0. -1.
          1    1    1    2  502    0 -0.80086550377E+02  0.17720643574E+02  0.34916607115E+03  0.35867091045E+03  0.00000000000E+00 0. -1.
         22    1    3    3    0    0  0.14665560016E+02  0.41502365029E+02 -0.47409937896E+02  0.64693331688E+02  0.00000000000E+00 0. -1.
         22    1    3    3    0    0  0.12458065353E+02 -0.38620618432E+02  0.48522876917E+02  0.63255238082E+02  0.00000000000E+00 0. -1.
</event>
<event>
 7    1  0.6103724E-006  0.2166163E+03  0.7818608E-02  0.1295578E+00
          2   -1    0    0  502    0  0.00000000000E+00  0.00000000000E+00  0.11187448017E+03  0.11187448017E+03  0.00000000000E+00 0. -1.
          1   -1    0    0  501    0 -0.00000000000E+00 -0.00000000000E+00 -0.93402421459E+03  0.93402421459E+03  0.00000000000E+00 0. -1.
         25    2    1    2    0    0 -0.45246862445E+01  0.22206589757E+03 -0.36964376851E+03  0.44899362964E+03  0.12500011281E+03 0.  0.
          2    1    1    2  501    0 -0.38461076365E+02 -0.10951600276E+02 -0.36037435510E+03  0.36258635904E+03  0.00000000000E+00 0. -1.
          1    1    1    2  502    0  0.42985762610E+02 -0.21111429730E+03 -0.92131610810E+02  0.23431870608E+03  0.00000000000E+00 0. -1.
         22    1    3    3    0    0 -0.47978476773E+02  0.28793050044E+02 -0.67163797609E+02  0.87418245655E+02  0.00000000000E+00 0.  1.
         22    1    3    3    0    0  0.43453790528E+02  0.19327284753E+03 -0.30247997090E+03  0.36157538398E+03  0.00000000000E+00 0.  1.
</event>
<event>
 7    1  0.6103724E-006  0.7243599E+02  0.7818608E-02  0.1438229E+00
          2   -1    0    0  502    0  0.00000000000E+00  0.00000000000E+00  0.18539145037E+03  0.18539145037E+03  0.00000000000E+00 0. -1.
          1   -1    0    0  501    0 -0.00000000000E+00 -0.00000000000E+00 -0.12601749821E+04  0.12601749821E+04  0.00000000000E+00 0. -1.
         25    2    1    2    0    0  0.33104157613E+02 -0.68641718769E+02 -0.12406275955E+03  0.19189492071E+03  0.12499808590E+03 0.  0.
          2    1    1    2  501    0  0.25646569631E+02  0.25819501920E+02 -0.10931526852E+04  0.10937582852E+04  0.00000000000E+00 0. -1.
          1    1    1    2  502    0 -0.58750727245E+02  0.42822216849E+02  0.14243191300E+03  0.15991322662E+03  0.00000000000E+00 0. -1.
         22    1    3    3    0    0  0.26436750087E+02 -0.93642228263E+02 -0.42234231584E+02  0.10607308323E+03  0.00000000000E+00 0.  1.
         22    1    3    3    0    0  0.66674075264E+01  0.25000509493E+02 -0.81828527968E+02  0.85821837475E+02  0.00000000000E+00 0.  1.
</event>
<event>
 7    1  0.6103724E-006  0.5800028E+02  0.7818608E-02  0.1501659E+00
          2   -1    0    0  502    0  0.00000000000E+00  0.00000000000E+00  0.95480775920E+03  0.95480775920E+03  0.00000000000E+00 0. -1.
          1   -1    0    0  501    0 -0.00000000000E+00 -0.00000000000E+00 -0.20265322041E+03  0.20265322041E+03  0.00000000000E+00 0. -1.
         25    2    1    2    0    0  0.89094028418E+01  0.28790317195E+02  0.42097722087E+01  0.12864809403E+03  0.12499740035E+03 0.  0.
          2    1    1    2  501    0  0.15649637461E+02  0.24233784148E+02 -0.13797982696E+03  0.14096318702E+03  0.00000000000E+00 0. -1.
          1    1    1    2  502    0 -0.24559040303E+02 -0.53024101343E+02  0.88592459354E+03  0.88784969855E+03  0.00000000000E+00 0. -1.
         22    1    3    3    0    0  0.40556178253E+02 -0.29281377825E+02  0.29232713317E+02  0.57937502619E+02  0.00000000000E+00 0.  1.
         22    1    3    3    0    0 -0.31646775412E+02  0.58071695020E+02 -0.25022941108E+02  0.70710591415E+02  0.00000000000E+00 0.  1.
</event>
<event>
 7    1  0.6103724E-006  0.1757339E+03  0.7818608E-02  0.1285123E+00
          2   -1    0    0  502    0  0.00000000000E+00  0.00000000000E+00  0.53886288995E+03  0.53886288995E+03  0.00000000000E+00 0. -1.
          1   -1    0    0  501    0 -0.00000000000E+00 -0.00000000000E+00 -0.93906534833E+03  0.93906534833E+03  0.00000000000E+00 0. -1.
         25    2    1    2    0    0 -0.13337722869E+03  0.26769501730E+01  0.37041609513E+02  0.18653052710E+03  0.12499962204E+03 0.  0.
          2    1    1    2  501    0 -0.54017566175E+02 -0.60963027409E+01 -0.84283969453E+03  0.84459091461E+03  0.00000000000E+00 0. -1.
          1    1    1    2  502    0  0.18739479487E+03  0.34193525679E+01  0.40559562664E+03  0.44680679657E+03  0.00000000000E+00 0. -1.
         22    1    3    3    0    0 -0.13775561641E+03 -0.66579314653E+01  0.68094285301E+02  0.15381082405E+03  0.00000000000E+00 0.  1.
         22    1    3    3    0    0  0.43783877183E+01  0.93348816383E+01 -0.31052675788E+02  0.32719703052E+02  0.00000000000E+00 0.  1.
</event>
<event>
 7    1  0.6103724E-006  0.1037838E+03  0.7818608E-02  0.1373412E+00
          2   -1    0    0  502    0  0.00000000000E+00  0.00000000000E+00  0.16932956679E+03  0.16932956679E+03  0.00000000000E+00 0. -1.
          1   -1    0    0  501    0 -0.00000000000E+00 -0.00000000000E+00 -0.15659286042E+04  0.15659286042E+04  0.00000000000E+00 0. -1.
         25    2    1    2    0    0  0.78695015540E+01  0.13699998826E+03 -0.20669226056E+02  0.18677060142E+03  0.12500045924E+03 0.  0.
          2    1    1    2  501    0 -0.68100086960E+01 -0.41709694574E+02 -0.14354885304E+04  0.14361105096E+04  0.00000000000E+00 0. -1.
          1    1    1    2  502    0 -0.10594928580E+01 -0.95290293689E+02  0.59558719044E+02  0.11237705998E+03  0.00000000000E+00 0. -1.
         22    1    3    3    0    0  0.10171781442E+01 -0.21831470777E+02  0.11308049097E+02  0.24607310744E+02  0.00000000000E+00 0. -1.
         22    1    3    3    0    0  0.68523234098E+01  0.15883145904E+03 -0.31977275153E+02  0.16216329068E+03  0.00000000000E+00 0. -1.
</event>
<event>
 7    1  0.6103724E-006  0.1271345E+03  0.7818608E-02  0.1424880E+00
          2   -1    0    0  502    0  0.00000000000E+00  0.00000000000E+00  0.48489762482E+03  0.48489762482E+03  0.00000000000E+00 0. -1.
          1   -1    0    0  501    0 -0.00000000000E+00 -0.00000000000E+00 -0.50311767942E+03  0.50311767942E+03  0.00000000000E+00 0. -1.
         25    2    1    2    0    0 -0.10039450164E+03 -0.85002592383E+02 -0.63809042023E+02  0.19233719779E+03  0.12497002496E+03 0.  0.
          2    1    1    2  501    0  0.81063374557E+02  0.97349411329E+02 -0.36401701264E+03  0.38543036216E+03  0.00000000000E+00 0. -1.
          1    1    1    2  502    0  0.19331127084E+02 -0.12346818946E+02  0.40960600006E+03  0.41024774429E+03  0.00000000000E+00 0. -1.
         22    1    3    3    0    0 -0.32714312255E+02 -0.60045754351E+02 -0.92223128033E+02  0.11480777058E+03  0.00000000000E+00 0.  1.
         22    1    3    3    0    0 -0.67680189387E+02 -0.24956838032E+02  0.28414086009E+02  0.77529427211E+02  0.00000000000E+00 0.  1.
</event>
<event>
 7    1  0.6103724E-006  0.1638100E+03  0.7818608E-02  0.1403335E+00
          2   -1    0    0  502    0  0.00000000000E+00  0.00000000000E+00  0.18419559660E+04  0.18419559660E+04  0.00000000000E+00 0. -1.
          1   -1    0    0  501    0 -0.00000000000E+00 -0.00000000000E+00 -0.30309069228E+03  0.30309069228E+03  0.00000000000E+00 0. -1.
         25    2    1    2    0    0  0.38767141569E+02 -0.16365643499E+03  0.16178844527E+04  0.16313984755E+04  0.12499825535E+03 0.  0.
          2    1    1    2  501    0 -0.17744115045E+02  0.16280264084E+03 -0.27309544434E+03  0.31843472675E+03  0.00000000000E+00 0. -1.
          1    1    1    2  502    0 -0.21023026525E+02  0.85379415233E+00  0.19407626539E+03  0.19521345598E+03  0.00000000000E+00 0. -1.
         22    1    3    3    0    0  0.59585485144E+02 -0.83223105972E+02  0.49651210388E+03  0.50695244817E+03  0.00000000000E+00 0.  1.
         22    1    3    3    0    0 -0.20818343575E+02 -0.80433329019E+02  0.11213723488E+04  0.11244460274E+04  0.00000000000E+00 0.  1.
</event>
<event>
 7    1  0.6103724E-006  0.2979471E+02  0.7818608E-02  0.1634674E+00
          2   -1    0    0  502    0  0.00000000000E+00  0.00000000000E+00  0.38722368423E+03  0.38722368423E+03  0.00000000000E+00 0. -1.
          1   -1    0    0  501    0 -0.00000000000E+00 -0.00000000000E+00 -0.24202266686E+03  0.24202266686E+03  0.00000000000E+00 0. -1.
         25    2    1    2    0    0  0.45499306550E+02 -0.62903284707E+01 -0.16158081718E+03  0.20938750029E+03  0.12500003867E+03 0.  0.
          2    1    1    2  501    0 -0.17648044787E+02  0.16775697115E+02 -0.53274283988E+02  0.58574967631E+02  0.00000000000E+00 0. -1.
          1    1    1    2  502    0 -0.27851261762E+02 -0.10485368644E+02  0.36005611855E+03  0.36128388317E+03  0.00000000000E+00 0. -1.
         22    1    3    3    0    0 -0.37192884771E+02  0.91691415211E+01 -0.16559336254E+02  0.41732426852E+02  0.00000000000E+00 0. -1.
         22    1    3    3    0    0  0.82692191320E+02 -0.15459469992E+02 -0.14502148093E+03  0.16765507344E+03  0.00000000000E+00 0. -1.
</event>
<event>
 7    1  0.6103724E-006  0.8700812E+02  0.7818608E-02  0.1455448E+00
          2   -1    0    0  502    0  0.00000000000E+00  0.00000000000E+00  0.63321364514E+03  0.63321364514E+03  0.00000000000E+00 0. -1.
          1   -1    0    0  501    0 -0.00000000000E+00 -0.00000000000E+00 -0.15932878163E+04  0.15932878163E+04  0.00000000000E+00 0. -1.
         25    2    1    2    0    0 -0.72307176278E+02  0.46862195133E+02 -0.74057694186E+02  0.16891913977E+03  0.12499896256E+03 0.  0.
          2    1    1    2  501    0 -0.11760396928E+02 -0.23939751103E+02 -0.14684371733E+04  0.14686793900E+04  0.00000000000E+00 0. -1.
          1    1    1    2  502    0  0.84067573206E+02 -0.22922444030E+02  0.58242069638E+03  0.58890293163E+03  0.00000000000E+00 0. -1.
         22    1    3    3    0    0  0.14964587883E+01  0.72593810281E+02 -0.25777073518E+02  0.77049063584E+02  0.00000000000E+00 0. -1.
         22    1    3    3    0    0 -0.73803635066E+02 -0.25731615148E+02 -0.48280620669E+02  0.91870076190E+02  0.00000000000E+00 0. -1.
</event>
<event>
 7    1  0.6103724E-006  0.7176915E+02  0.7818608E-02  0.1451230E+00
          2   -1    0    0  502    0  0.00000000000E+00  0.00000000000E+00  0.17853697383E+04  0.17853697383E+04  0.00000000000E+00 0. -1.
          1   -1    0    0  501    0 -0.00000000000E+00 -0.00000000000E+00 -0.16337832263E+04  0.16337832263E+04  0.00000000000E+00 0. -1.
         25    2    1    2    0    0  0.86940082275E+02 -0.19168719242E+02 -0.32941895051E+02  0.15695855184E+03  0.12499920337E+03 0.  0.
          2    1    1    2  501    0 -0.15978413500E+02  0.29274697051E+02 -0.15379068285E+04  0.15382684196E+04  0.00000000000E+00 0. -1.
          1    1    1    2  502    0 -0.70961668775E+02 -0.10105977809E+02  0.17224352356E+04  0.17239259932E+04  0.00000000000E+00 0. -1.
         22    1    3    3    0    0  0.62134240280E+02 -0.56037108764E+02  0.21787364806E+02  0.86461035380E+02  0.00000000000E+00 0.  1.
         22    1    3    3    0    0  0.24805841995E+02  0.36868389521E+02 -0.54729259856E+02  0.70497516463E+02  0.00000000000E+00 0.  1.
</event>
<event>
 7    1  0.6103724E-006  0.1454845E+03  0.7818608E-02  0.1278598E+00
          2   -1    0    0  502    0  0.00000000000E+00  0.00000000000E+00  0.87743434755E+03  0.87743434755E+03  0.00000000000E+00 0. -1.
          1   -1    0    0  501    0 -0.00000000000E+00 -0.00000000000E+00 -0.27627102660E+03  0.27627102660E+03  0.00000000000E+00 0. -1.
         25    2    1    2    0    0 -0.43452582097E+02 -0.78794139543E+02  0.11941359612E+03  0.19488811701E+03  0.12500051159E+03 0.  0.
          2    1    1    2  501    0 -0.16979381299E+02 -0.67761695233E+02 -0.22443636077E+03  0.23505664587E+03  0.00000000000E+00 0. -1.
          1    1    1    2  502    0  0.60431963396E+02  0.14655583478E+03  0.70618608561E+03  0.72376061127E+03  0.00000000000E+00 0. -1.
         22    1    3    3    0    0  0.33609608370E+02 -0.56326545884E+02  0.23170378519E+02  0.69564013590E+02  0.00000000000E+00 0. -1.
         22    1    3    3    0    0 -0.77062190467E+02 -0.22467593660E+02  0.96243217599E+02  0.12532410342E+03  0.00000000000E+00 0. -1.
</event>
<event>
 7    1  0.6103724E-006  0.1304565E+03  0.7818608E-02  0.1341189E+00
          2   -1    0    0  502    0  0.00000000000E+00  0.00000000000E+00  0.12096778464E+04  0.12096778464E+04  0.00000000000E+00 0. -1.
          1   -1    0    0  501    0 -0.00000000000E+00 -0.00000000000E+00 -0.76202509206E+02  0.76202509206E+02  0.00000000000E+00 0. -1.
         25    2    1    2    0    0 -0.37809742219E+01  0.11717207748E+03  0.16218875743E+03  0.23595451423E+03  0.12500299293E+03 0.  0.
          2    1    1    2  501    0 -0.43596319197E+02  0.68244722250E+01 -0.20951375463E+02  0.48848465713E+02  0.00000000000E+00 0. -1.
          1    1    1    2  502    0  0.47377293419E+02 -0.12399654970E+03  0.99223795527E+03  0.10010773757E+04  0.00000000000E+00 0. -1.
         22    1    3    3    0    0  0.23117852906E+02  0.12176304478E+03  0.16728542712E+03  0.20819483261E+03  0.00000000000E+00 0. -1.
         22    1    3    3    0    0 -0.26898827128E+02 -0.45909673038E+01 -0.50966696946E+01  0.27759681620E+02  0.00000000000E+00 0. -1.
</event>
<event>
 7    1  0.6103724E-006  0.9416591E+02  0.7818608E-02  0.1294427E+00
          2   -1    0    0  502    0  0.00000000000E+00  0.00000000000E+00  0.26348688085E+04  0.26348688085E+04  0.00000000000E+00 0. -1.
          1   -1    0    0  501    0 -0.00000000000E+00 -0.00000000000E+00 -0.86339046575E+03  0.86339046575E+03  0.00000000000E+00 0. -1.
         25    2    1    2    0    0  0.20364261628E+02  0.75528455611E+01 -0.90078113789E+01  0.12719356817E+03  0.12500125795E+03 0.  0.
          2    1    1    2  501    0 -0.56230596859E+02  0.79515081723E+02 -0.79144343893E+03  0.79741284494E+03  0.00000000000E+00 0. -1.
          1    1    1    2  502    0  0.35866335231E+02 -0.87067927284E+02  0.25719295931E+04  0.25736528611E+04  0.00000000000E+00 0. -1.
         22    1    3    3    0    0 -0.16446248336E+02 -0.45394298827E+02  0.24913178112E+02  0.54330358861E+02  0.00000000000E+00 0.  1.
         22    1    3    3    0    0  0.36810509964E+02  0.52947144388E+02 -0.33920989491E+02  0.72863209309E+02  0.00000000000E+00 0.  1.
</event>
<event>
 7    1  0.6103724E-006  0.9755721E+02  0.7818608E-02  0.1323029E+00
          2   -1    0    0  502    0  0.00000000000E+00  0.00000000000E+00  0.81406123047E+03  0.81406123047E+03  0.00000000000E+00 0. -1.
          1   -1    0    0  501    0 -0.00000000000E+00 -0.00000000000E+00 -0.46100683860E+03  0.46100683860E+03  0.00000000000E+00 0. -1.
         25    2    1    2    0    0  0.49400385938E+01 -0.52470149903E+02  0.86026405371E+02  0.16063467374E+03  0.12500174149E+03 0.  0.
          2    1    1    2  501    0 -0.71882204745E+02  0.69978729034E+02 -0.41599196989E+03  0.42791750711E+03  0.00000000000E+00 0. -1.
          1    1    1    2  502    0  0.66942166151E+02 -0.17508579131E+02  0.68301995638E+03  0.68651588822E+03  0.00000000000E+00 0. -1.
         22    1    3    3    0    0 -0.54091329363E+02 -0.40934120746E+02  0.71902550403E+02  0.98850649507E+02  0.00000000000E+00 0. -1.
         22    1    3    3    0    0  0.59031367957E+02 -0.11536029156E+02  0.14123854968E+02  0.61784024235E+02  0.00000000000E+00 0. -1.
</event>
<event>
 7    1  0.6103724E-006  0.5905245E+02  0.7818608E-02  0.1428259E+00
          2   -1    0    0  502    0  0.00000000000E+00  0.00000000000E+00  0.18224920805E+04  0.18224920805E+04  0.00000000000E+00 0. -1.
          1   -1    0    0  501    0 -0.00000000000E+00 -0.00000000000E+00 -0.78996292102E+03  0.78996292102E+03  0.00000000000E+00 0. -1.
         25    2    1    2    0    0  0.57427019045E+02  0.82606037612E+02  0.14219584383E+03  0.21439447473E+03  0.12499485119E+03 0.  0.
          2    1    1    2  501    0 -0.46761024500E+02 -0.35675014688E+02 -0.75236344184E+03  0.75465889560E+03  0.00000000000E+00 0. -1.
          1    1    1    2  502    0 -0.10665994545E+02 -0.46931022924E+02  0.16426967574E+04  0.16434016311E+04  0.00000000000E+00 0. -1.
         22    1    3    3    0    0  0.82417637498E+02  0.84889682290E+02  0.14714783056E+03  0.18881580752E+03  0.00000000000E+00 0. -1.
         22    1    3    3    0    0 -0.24990618453E+02 -0.22836446779E+01 -0.49519867279E+01  0.25578667210E+02  0.00000000000E+00 0. -1.
</event>
<event>
 7    1  0.6103724E-006  0.8975910E+02  0.7818608E-02  0.1329142E+00
          2   -1    0    0  502    0  0.00000000000E+00  0.00000000000E+00  0.50252016828E+03  0.50252016828E+03  0.00000000000E+00 0. -1.
          1   -1    0    0  501    0 -0.00000000000E+00 -0.00000000000E+00 -0.99622223666E+02  0.99622223666E+02  0.00000000000E+00 0. -1.
         25    2    1    2    0    0  0.59793330342E+02  0.11928480978E+02  0.10744780731E+03  0.17573538292E+03  0.12498144863E+03 0.  0.
          2    1    1    2  501    0  0.22517755561E+02 -0.67592950339E+02 -0.36396036285E+02  0.80003298109E+02  0.00000000000E+00 0. -1.
          1    1    1    2  502    0 -0.82311085904E+02  0.55664469361E+02  0.33184617360E+03  0.34640371092E+03  0.00000000000E+00 0. -1.
         22    1    3    3    0    0  0.91702488822E+02 -0.50387336376E+01  0.42035571825E+02  0.10100358702E+03  0.00000000000E+00 0. -1.
         22    1    3    3    0    0 -0.31909158480E+02  0.16967214616E+02  0.65412235482E+02  0.74731795893E+02  0.00000000000E+00 0. -1.
</event>
<event>
 7    1  0.6103724E-006  0.6169830E+02  0.7818608E-02  0.1506125E+00
          2   -1    0    0  502    0  0.00000000000E+00  0.00000000000E+00  0.14930736718E+04  0.14930736718E+04  0.00000000000E+00 0. -1.
          1   -1    0    0  501    0 -0.00000000000E+00 -0.00000000000E+00 -0.30102972808E+03  0.30102972808E+03  0.00000000000E+00 0. -1.
         25    2    1    2    0    0  0.23973906315E+02 -0.80314596414E+02 -0.12247423595E+02  0.15099772022E+03  0.12500051818E+03 0.  0.
          2    1    1    2  501    0 -0.72662697075E+01  0.59998894446E+02 -0.21512102267E+03  0.22344959254E+03  0.00000000000E+00 0. -1.
          1    1    1    2  502    0 -0.16707636607E+02  0.20315701968E+02  0.14194123900E+04  0.14196560871E+04  0.00000000000E+00 0. -1.
         22    1    3    3    0    0  0.63807992168E+02 -0.86121626724E+02 -0.22360952490E+02  0.10949158256E+03  0.00000000000E+00 0. -1.
         22    1    3    3    0    0 -0.39834085853E+02  0.58070303108E+01  0.10113528896E+02  0.41506137661E+02  0.00000000000E+00 0. -1.
</event>
<event>
 7    1  0.6103724E-006  0.1049405E+03  0.7818608E-02  0.1303710E+00
          2   -1    0    0  502    0  0.00000000000E+00  0.00000000000E+00  0.40024244715E+03  0.40024244715E+03  0.00000000000E+00 0. -1.
          1   -1    0    0  501    0 -0.00000000000E+00 -0.00000000000E+00 -0.10520311066E+04  0.10520311066E+04  0.00000000000E+00 0. -1.
         25    2    1    2    0    0  0.29148050878E+02  0.17554677587E+03 -0.97546637199E+02  0.23834071565E+03  0.12499868368E+03 0.  0.
          2    1    1    2  501    0 -0.99624034894E+01 -0.10140720359E+03 -0.87665126076E+03  0.88255317314E+03  0.00000000000E+00 0. -1.
          1    1    1    2  502    0 -0.19185647388E+02 -0.74139572278E+02  0.32240923853E+03  0.33137966493E+03  0.00000000000E+00 0. -1.
         22    1    3    3    0    0  0.59885454576E+02  0.28636510689E+02 -0.19583393976E+02  0.69208574135E+02  0.00000000000E+00 0. -1.
         22    1    3    3    0    0 -0.30737403698E+02  0.14691026518E+03 -0.77963243223E+02  0.16913214152E+03  0.00000000000E+00 0. -1.
</event>
<event>
 7    1  0.6103724E-006  0.1535571E+03  0.7818608E-02  0.1227238E+00
          2   -1    0    0  502    0  0.00000000000E+00  0.00000000000E+00  0.70933041948E+03  0.70933041948E+03  0.00000000000E+00 0. -1.
          1   -1    0    0  501    0 -0.00000000000E+00 -0.00000000000E+00 -0.12505487775E+04  0.12505487775E+04  0.00000000000E+00 0. -1.
         25    2    1    2    0    0  0.12346779784E+03 -0.70401648388E+02 -0.30539390751E+03  0.35929288898E+03  0.12500100849E+03 0.  0.
          2    1    1    2  501    0 -0.53615224200E+02  0.15577099802E+03 -0.90627302858E+03  0.92112431214E+03  0.00000000000E+00 0. -1.
          1    1    1    2  502    0 -0.69852573635E+02 -0.85369349627E+02  0.67044857811E+03  0.67946199584E+03  0.00000000000E+00 0. -1.
         22    1    3    3    0    0  0.86091743234E+02 -0.99361531930E+02 -0.26974221489E+03  0.30007559843E+03  0.00000000000E+00 0. -1.
         22    1    3    3    0    0  0.37376054601E+02  0.28959883542E+02 -0.35651692623E+02  0.59217290542E+02  0.00000000000E+00 0. -1.
</event>
<event>
 7    1  0.6103724E-006  0.1587848E+03  0.7818608E-02  0.1286890E+00
          2   -1    0    0  502    0  0.00000000000E+00  0.00000000000E+00  0.19995516705E+04  0.19995516705E+04  0.00000000000E+00 0. -1.
          1   -1    0    0  501    0 -0.00000000000E+00 -0.00000000000E+00 -0.37531990342E+03  0.37531990342E+03  0.00000000000E+00 0. -1.
         25    2    1    2    0    0 -0.18245575482E+03  0.36918639865E+02 -0.24437745067E+03  0.33166082112E+03  0.12500189372E+03 0.  0.
          2    1    1    2  501    0  0.12330131689E+03 -0.38258932022E+02 -0.38861326108E+02  0.13482271060E+03  0.00000000000E+00 0. -1.
          1    1    1    2  502    0  0.59154437927E+02  0.13402921567E+01  0.19074705438E+04  0.19083880422E+04  0.00000000000E+00 0. -1.
         22    1    3    3    0    0 -0.82854278466E+01  0.19421777897E+02  0.96066782255E+01  0.23197888650E+02  0.00000000000E+00 0. -1.
         22    1    3    3    0    0 -0.17417032697E+03  0.17496861968E+02 -0.25398412889E+03  0.30846293247E+03  0.00000000000E+00 0. -1.
</event>
<event>
 7    1  0.6103724E-006  0.5176537E+02  0.7818608E-02  0.1556785E+00
          2   -1    0    0  502    0  0.00000000000E+00  0.00000000000E+00  0.44387807524E+03  0.44387807524E+03  0.00000000000E+00 0. -1.
          1   -1    0    0  501    0 -0.00000000000E+00 -0.00000000000E+00 -0.22538041700E+03  0.22538041700E+03  0.00000000000E+00 0. -1.
         25    2    1    2    0    0  0.16431138825E+02 -0.66914480420E+02  0.11791856524E+03  0.18515888613E+03  0.12502597759E+03 0.  0.
          2    1    1    2  501    0 -0.17872153676E+00  0.51417132829E+02 -0.18786927592E+03  0.19477838259E+03  0.00000000000E+00 0. -1.
          1    1    1    2  502    0 -0.16252417288E+02  0.15497347591E+02  0.28844836892E+03  0.28932122353E+03  0.00000000000E+00 0. -1.
         22    1    3    3    0    0  0.45814975699E+02  0.10323886657E+02  0.79993920299E+01  0.47640160651E+02  0.00000000000E+00 0. -1.
         22    1    3    3    0    0 -0.29383836875E+02 -0.77238367077E+02  0.10991917321E+03  0.13751872548E+03  0.00000000000E+00 0. -1.
</event>
<event>
 7    1  0.6103724E-006  0.1162225E+03  0.7818608E-02  0.1301186E+00
          2   -1    0    0  502    0  0.00000000000E+00  0.00000000000E+00  0.12271622688E+04  0.12271622688E+04  0.00000000000E+00 0. -1.
          1   -1    0    0  501    0 -0.00000000000E+00 -0.00000000000E+00 -0.10595907866E+04  0.10595907866E+04  0.00000000000E+00 0. -1.
         25    2    1    2    0    0  0.90957553288E+02 -0.90246258108E+01  0.69734547566E+02  0.16983072436E+03  0.12499938976E+03 0.  0.
          2    1    1    2  501    0 -0.10028602149E+03 -0.61126907304E+02 -0.10049888490E+04  0.10118282322E+04  0.00000000000E+00 0. -1.
          1    1    1    2  502    0  0.93284681982E+01  0.70151533115E+02  0.11028257837E+04  0.11050940988E+04  0.00000000000E+00 0. -1.
         22    1    3    3    0    0  0.11187474320E+03 -0.38696305077E+02  0.49934803860E+02  0.12847897427E+03  0.00000000000E+00 0. -1.
         22    1    3    3    0    0 -0.20917189914E+02  0.29671679266E+02  0.19799743706E+02  0.41351750086E+02  0.00000000000E+00 0. -1.
</event>
<event>
 7    1  0.6103724E-006  0.8349451E+02  0.7818608E-02  0.1379205E+00
          2   -1    0    0  502    0  0.00000000000E+00  0.00000000000E+00  0.82393427498E+03  0.82393427498E+03  0.00000000000E+00 0. -1.
          1   -1    0    0  501    0 -0.00000000000E+00 -0.00000000000E+00 -0.10201290664E+03  0.10201290664E+03  0.00000000000E+00 0. -1.
         25    2    1    2    0    0  0.70993531346E+02 -0.10550399038E+03  0.28453286217E+03  0.33579003077E+03  0.12499928653E+03 0.  0.
          2    1    1    2  501    0 -0.34956213803E+02  0.35882471538E+02 -0.64789212833E+02  0.81897074103E+02  0.00000000000E+00 0. -1.
          1    1    1    2  502    0 -0.36037317543E+02  0.69621518843E+02  0.50217771900E+03  0.50826007674E+03  0.00000000000E+00 0. -1.
         22    1    3    3    0    0  0.16124466423E+02  0.26977977500E+02  0.28957984343E+02  0.42736103526E+02  0.00000000000E+00 0.  1.
         22    1    3    3    0    0  0.54869064923E+02 -0.13248196788E+03  0.25557487783E+03  0.29305392725E+03  0.00000000000E+00 0.  1.
</event>
<event>
 7    1  0.6103724E-006  0.1260203E+03  0.7818608E-02  0.1425742E+00
          2   -1    0    0  502    0  0.00000000000E+00  0.00000000000E+00  0.28992932376E+03  0.28992932376E+03  0.00000000000E+00 0. -1.
          1   -1    0    0  501    0 -0.00000000000E+00 -0.00000000000E+00 -0.41415652392E+03  0.41415652392E+03  0.00000000000E+00 0. -1.
         25    2    1    2    0    0 -0.79420346894E+02 -0.90303569453E+02 -0.16832323620E+03  0.24170442045E+03  0.12500395540E+03 0.  0.
          2    1    1    2  501    0  0.68266668400E+02  0.11040541025E+03 -0.18837962066E+03  0.22877188225E+03  0.00000000000E+00 0. -1.
          1    1    1    2  502    0  0.11153678495E+02 -0.20101840798E+02  0.23247565670E+03  0.23360954498E+03  0.00000000000E+00 0. -1.
         22    1    3    3    0    0 -0.24163776669E+02 -0.10704216682E+03 -0.78488625231E+02  0.13491618832E+03  0.00000000000E+00 0. -1.
         22    1    3    3    0    0 -0.55256570225E+02  0.16738597362E+02 -0.89834610968E+02  0.10678823214E+03  0.00000000000E+00 0. -1.
</event>
<event>
 7    1  0.6103724E-006  0.1319571E+03  0.7818608E-02  0.1368177E+00
          2   -1    0    0  502    0  0.00000000000E+00  0.00000000000E+00  0.31008613929E+03  0.31008613929E+03  0.00000000000E+00 0. -1.
          1   -1    0    0  501    0 -0.00000000000E+00 -0.00000000000E+00 -0.12768242595E+04  0.12768242595E+04  0.00000000000E+00 0. -1.
         25    2    1    2    0    0 -0.70907768116E+02  0.14415949513E+03  0.12337398070E+03  0.23802441149E+03  0.12499843894E+03 0.  0.
          2    1    1    2  501    0  0.72675832264E+02 -0.10949535420E+03 -0.12135581010E+04  0.12206532160E+04  0.00000000000E+00 0. -1.
          1    1    1    2  502    0 -0.17680641479E+01 -0.34664140924E+02  0.12344600006E+03  0.12823277135E+03  0.00000000000E+00 0. -1.
         22    1    3    3    0    0 -0.10282923055E+03  0.76983008301E+02  0.87700193228E+02  0.15553635625E+03  0.00000000000E+00 0. -1.
         22    1    3    3    0    0  0.31921462430E+02  0.67176486825E+02  0.35673787469E+02  0.82488055245E+02  0.00000000000E+00 0. -1.
</event>
<event>
 7    1  0.6103724E-006  0.7950710E+02  0.7818608E-02  0.1390161E+00
          2   -1    0    0  502    0  0.00000000000E+00  0.00000000000E+00  0.84013398913E+02  0.84013398913E+02  0.00000000000E+00 0. -1.
          1   -1    0    0  501    0 -0.00000000000E+00 -0.00000000000E+00 -0.63675002483E+03  0.63675002483E+03  0.00000000000E+00 0. -1.
         25    2    1    2    0    0  0.55384520029E+01  0.53129913242E+02 -0.20656397194E+03  0.24728330979E+03  0.12500759443E+03 0.  0.
          2    1    1    2  501    0 -0.50245861186E+02 -0.70983051403E+02 -0.39526720588E+03  0.40472139084E+03  0.00000000000E+00 0. -1.
          1    1    1    2  502    0  0.44707409183E+02  0.17853138161E+02  0.49094551906E+02  0.68758723119E+02  0.00000000000E+00 0. -1.
         22    1    3    3    0    0  0.11142808357E+02 -0.40563826669E+02 -0.65624202173E+02  0.77949484431E+02  0.00000000000E+00 0.  1.
         22    1    3    3    0    0 -0.56043563546E+01  0.93693739911E+02 -0.14093976977E+03  0.16933382536E+03  0.00000000000E+00 0.  1.
</event>
<event>
 7    1  0.6103724E-006  0.1432412E+03  0.7818608E-02  0.1250655E+00
          2   -1    0    0  502    0  0.00000000000E+00  0.00000000000E+00  0.14566717466E+04  0.14566717466E+04  0.00000000000E+00 0. -1.
          1   -1    0    0  501    0 -0.00000000000E+00 -0.00000000000E+00 -0.44816415816E+03  0.44816415816E+03  0.00000000000E+00 0. -1.
         25    2    1    2    0    0 -0.17994013239E+03 -0.53190677572E+02  0.39035137153E+00  0.22546239606E+03  0.12500176095E+03 0.  0.
          2    1    1    2  501    0  0.13689430444E+03 -0.29454228347E+02 -0.31931824985E+03  0.34867140239E+03  0.00000000000E+00 0. -1.
          1    1    1    2  502    0  0.43045827954E+02  0.82644905918E+02  0.13274354869E+04  0.13307021063E+04  0.00000000000E+00 0. -1.
         22    1    3    3    0    0 -0.27471625125E+02 -0.21673671695E+02  0.50912844344E+02  0.61778280577E+02  0.00000000000E+00 0.  1.
         22    1    3    3    0    0 -0.15246850726E+03 -0.31517005877E+02 -0.50522492973E+02  0.16368411549E+03  0.00000000000E+00 0.  1.
</event>
<event>
 7    1  0.6103724E-006  0.2931050E+02  0.7818608E-02  0.1655864E+00
          2   -1    0    0  502    0  0.00000000000E+00  0.00000000000E+00  0.24561616526E+03  0.24561616526E+03  0.00000000000E+00 0. -1.
          1   -1    0    0  501    0 -0.00000000000E+00 -0.00000000000E+00 -0.11732530040E+04  0.11732530040E+04  0.00000000000E+00 0. -1.
         25    2    1    2    0    0 -0.20943078406E+02  0.45171766008E+02 -0.78923120582E+02  0.15599151300E+03  0.12500156874E+03 0.  0.
          2    1    1    2  501    0  0.14046493350E+02 -0.16859840436E+02 -0.10546558727E+04  0.10548841491E+04  0.00000000000E+00 0. -1.
          1    1    1    2  502    0  0.68965850553E+01 -0.28311925572E+02  0.20594215453E+03  0.20799350717E+03  0.00000000000E+00 0. -1.
         22    1    3    3    0    0  0.27291084327E+02 -0.90293980400E+01 -0.78325115132E+02  0.83433548247E+02  0.00000000000E+00 0. -1.
         22    1    3    3    0    0 -0.48234162732E+02  0.54201164048E+02 -0.59800545016E+00  0.72557964754E+02  0.00000000000E+00 0. -1.
</event>
<event>
 7    1  0.6103724E-006  0.9952681E+02  0.7818608E-02  0.1308273E+00
          2   -1    0    0  502    0  0.00000000000E+00  0.00000000000E+00  0.64993186360E+03  0.64993186360E+03  0.00000000000E+00 0. -1.
          1   -1    0    0  501    0 -0.00000000000E+00 -0.00000000000E+00 -0.23703746582E+03  0.23703746582E+03  0.00000000000E+00 0. -1.
         25    2    1    2    0    0  0.85772593232E+02 -0.14617107593E+03  0.11410785138E+03  0.23951701802E+03  0.12499951594E+03 0.  0.
          2    1    1    2  501    0 -0.34807569503E+02  0.87849800073E+02 -0.15802442730E+03  0.18412189954E+03  0.00000000000E+00 0. -1.
          1    1    1    2  502    0 -0.50965023729E+02  0.58321275858E+02  0.45681097370E+03  0.46333041186E+03  0.00000000000E+00 0. -1.
         22    1    3    3    0    0 -0.27872365639E+02 -0.32628162355E+02  0.51664736867E+02  0.67161825322E+02  0.00000000000E+00 0. -1.
         22    1    3    3    0    0  0.11364495887E+03 -0.11354291358E+03  0.62443114509E+02  0.17235519270E+03  0.00000000000E+00 0. -1.
</event>
<event>
 7    1  0.6103724E-006  0.1061505E+03  0.7818608E-02  0.1294747E+00
          2   -1    0    0  502    0  0.00000000000E+00  0.00000000000E+00  0.13083496807E+03  0.13083496807E+03  0.00000000000E+00 0. -1.
          1   -1    0    0  501    0 -0.00000000000E+00 -0.00000000000E+00 -0.11844760321E+04  0.11844760321E+04  0.00000000000E+00 0. -1.
         25    2    1    2    0    0  0.17978455463E+03 -0.87020827629E+01 -0.24413767493E+03  0.32806454400E+03  0.12499971355E+03 0.  0.
          2    1    1    2  501    0 -0.10038878155E+03 -0.12730527570E+02 -0.87579196818E+03  0.88161870745E+03  0.00000000000E+00 0. -1.
          1    1    1    2  502    0 -0.79395773084E+02  0.21432610333E+02  0.66288579116E+02  0.10562774868E+03  0.00000000000E+00 0. -1.
         22    1    3    3    0    0  0.13498313264E+03  0.48289650773E+02 -0.13416494051E+03  0.19634807799E+03  0.00000000000E+00 0. -1.
         22    1    3    3    0    0  0.44801421990E+02 -0.56991733536E+02 -0.10997273442E+03  0.13171646601E+03  0.00000000000E+00 0. -1.
</event>
<event>
 7    1  0.6103724E-006  0.5712630E+02  0.7818608E-02  0.1466285E+00
          2   -1    0    0  502    0  0.00000000000E+00  0.00000000000E+00  0.40100427224E+04  0.40100427224E+04  0.00000000000E+00 0. -1.
          1   -1    0    0  501    0 -0.00000000000E+00 -0.00000000000E+00 -0.22695035825E+04  0.22695035825E+04  0.00000000000E+00 0. -1.
         25    2    1    2    0    0 -0.47154257452E+02 -0.81436417660E+02 -0.28466059046E+03  0.32482302207E+03  0.12499171888E+03 0.  0.
          2    1    1    2  501    0  0.14333781986E+02  0.34709265098E+02 -0.19643780122E+04  0.19647369201E+04  0.00000000000E+00 0. -1.
          1    1    1    2  502    0  0.32820475466E+02  0.46727152562E+02  0.39895777426E+04  0.39899863627E+04  0.00000000000E+00 0. -1.
         22    1    3    3    0    0  0.58691414206E+01 -0.59480858697E+02 -0.25157923875E+03  0.25858177187E+03  0.00000000000E+00 0.  1.
         22    1    3    3    0    0 -0.53023398873E+02 -0.21955558963E+02 -0.33081351711E+02  0.66241250203E+02  0.00000000000E+00 0.  1.
</event>
<event>
 7    1  0.6103724E-006  0.1484179E+03  0.7818608E-02  0.1254712E+00
          2   -1    0    0  502    0  0.00000000000E+00  0.00000000000E+00  0.42117237895E+03  0.42117237895E+03  0.00000000000E+00 0. -1.
          1   -1    0    0  501    0 -0.00000000000E+00 -0.00000000000E+00 -0.13020356554E+04  0.13020356554E+04  0.00000000000E+00 0. -1.
         25    2    1    2    0    0 -0.15972179910E+03  0.86761580911E+02 -0.16075276029E+03  0.27295706763E+03  0.12500194319E+03 0.  0.
          2    1    1    2  501    0  0.81192295741E+02 -0.12273469872E+03 -0.10749873913E+04  0.10850133118E+04  0.00000000000E+00 0. -1.
          1    1    1    2  502    0  0.78529503356E+02  0.35973117813E+02  0.35487687515E+03  0.36523765499E+03  0.00000000000E+00 0. -1.
         22    1    3    3    0    0 -0.80661210965E+02 -0.12600705659E+02 -0.21334474966E+02  0.84381091244E+02  0.00000000000E+00 0. -1.
         22    1    3    3    0    0 -0.79060588133E+02  0.99362286570E+02 -0.13941828532E+03  0.18857597639E+03  0.00000000000E+00 0. -1.
</event>
<event>
 7    1  0.6103724E-006  0.4195258E+02  0.7818608E-02  0.1502442E+00
          2   -1    0    0  502    0  0.00000000000E+00  0.00000000000E+00  0.11827733549E+04  0.11827733549E+04  0.00000000000E+00 0. -1.
          1   -1    0    0  501    0 -0.00000000000E+00 -0.00000000000E+00 -0.16137907823E+03  0.16137907823E+03  0.00000000000E+00 0. -1.
         25    2    1    2    0    0 -0.52202946788E+02  0.13022330170E+02  0.11210952392E+03  0.17631967347E+03  0.12500141264E+03 0.  0.
          2    1    1    2  501    0  0.16939196222E+02 -0.35870547937E+02 -0.12579446545E+03  0.13190102393E+03  0.00000000000E+00 0. -1.
          1    1    1    2  502    0  0.35263750566E+02  0.22848217767E+02  0.10350792182E+04  0.10359317357E+04  0.00000000000E+00 0. -1.
         22    1    3    3    0    0  0.39747541481E+02  0.13106208755E+02  0.20807022912E+02  0.46739404834E+02  0.00000000000E+00 0. -1.
         22    1    3    3    0    0 -0.91950488269E+02 -0.83878585274E-01  0.91302501013E+02  0.12958026864E+03  0.00000000000E+00 0. -1.
</event>
<event>
 7    1  0.6103724E-006  0.2595279E+02  0.7818608E-02  0.1674959E+00
          2   -1    0    0  502    0  0.00000000000E+00  0.00000000000E+00  0.15962522415E+04  0.15962522415E+04  0.00000000000E+00 0. -1.
          1   -1    0    0  501    0 -0.00000000000E+00 -0.00000000000E+00 -0.17708199644E+02  0.17708199644E+02  0.00000000000E+00 0. -1.
         25    2    1    2    0    0 -0.20797603473E+02  0.75242580867E+01  0.26932091103E+03  0.29773783807E+03  0.12499964932E+03 0.  0.
          2    1    1    2  501    0  0.93250725137E+01 -0.26642013928E+02  0.55173114382E+02  0.61974401442E+02  0.00000000000E+00 0. -1.
          1    1    1    2  502    0  0.11472530960E+02  0.19117755841E+02  0.12540500164E+04  0.12542482016E+04  0.00000000000E+00 0. -1.
         22    1    3    3    0    0  0.26644156830E+02 -0.42116554845E+02  0.16879746325E+03  0.17600084911E+03  0.00000000000E+00 0.  1.
         22    1    3    3    0    0 -0.47441760303E+02  0.49640812932E+02  0.10052344778E+03  0.12173698897E+03  0.00000000000E+00 0.  1.
</event>
<event>
 7    1  0.6103724E-006  0.3887945E+03  0.7818608E-02  0.1194606E+00
          2   -1    0    0  502    0  0.00000000000E+00  0.00000000000E+00  0.88801363075E+03  0.88801363075E+03  0.00000000000E+00 0. -1.
          1   -1    0    0  501    0 -0.00000000000E+00 -0.00000000000E+00 -0.75462404356E+03  0.75462404356E+03  0.00000000000E+00 0. -1.
         25    2    1    2    0    0 -0.16348896954E+03 -0.35590053223E+03 -0.28560767535E+02  0.41211036252E+03  0.12500160579E+03 0.  0.
          2    1    1    2  501    0  0.10472600433E+03  0.37469379471E+03 -0.46173960046E+03  0.60379337063E+03  0.00000000000E+00 0. -1.
          1    1    1    2  502    0  0.58762965208E+02 -0.18793262477E+02  0.62368995519E+03  0.62673394116E+03  0.00000000000E+00 0. -1.
         22    1    3    3    0    0 -0.15374607782E+03 -0.32485058337E+03  0.12626756758E+02  0.35961812099E+03  0.00000000000E+00 0.  1.
         22    1    3    3    0    0 -0.97428917241E+01 -0.31049948866E+02 -0.41187524293E+02  0.52492241533E+02  0.00000000000E+00 0.  1.
</event>
<event>
 7    1  0.6103724E-006  0.1589194E+03  0.7818608E-02  0.1232256E+00
          2   -1    0    0  502    0  0.00000000000E+00  0.00000000000E+00  0.88413362155E+03  0.88413362155E+03  0.00000000000E+00 0. -1.
          1   -1    0    0  501    0 -0.00000000000E+00 -0.00000000000E+00 -0.14538935458E+04  0.14538935458E+04  0.00000000000E+00 0. -1.
         25    2    1    2    0    0 -0.76142001020E+01  0.91478802691E+02 -0.32765591694E+03  0.36250448744E+03  0.12499902450E+03 0.  0.
          2    1    1    2  501    0  0.43566177133E+02 -0.18607802666E+03 -0.10975738551E+04  0.11140877036E+04  0.00000000000E+00 0. -1.
          1    1    1    2  502    0 -0.35951977031E+02  0.94599223968E+02  0.85546984785E+03  0.86143497630E+03  0.00000000000E+00 0. -1.
         22    1    3    3    0    0 -0.49838921461E+02  0.81408981193E+01 -0.56869434825E+02  0.76054749569E+02  0.00000000000E+00 0.  1.
         22    1    3    3    0    0  0.42224721359E+02  0.83337904572E+02 -0.27078648211E+03  0.28644973787E+03  0.00000000000E+00 0.  1.
</event>
<event>
 7    1  0.6103724E-006  0.3406003E+02  0.7818608E-02  0.1573872E+00
          2   -1    0    0  502    0  0.00000000000E+00  0.00000000000E+00  0.30479479517E+04  0.30479479517E+04  0.00000000000E+00 0. -1.
          1   -1    0    0  501    0 -0.00000000000E+00 -0.00000000000E+00 -0.49982370159E+01  0.49982370159E+01  0.00000000000E+00 0. -1.
         25    2    1    2    0    0 -0.29549484198E+02 -0.13589424139E+02  0.14619705040E+04  0.14676648327E+04  0.12499784847E+03 0.  0.
          2    1    1    2  501    0  0.31202867518E+02 -0.17016144733E+02  0.15701016101E+03  0.16098247974E+03  0.00000000000E+00 0. -1.
          1    1    1    2  502    0 -0.16533833201E+01  0.30605568872E+02  0.14239690497E+04  0.14242988763E+04  0.00000000000E+00 0. -1.
         22    1    3    3    0    0  0.78211761586E+00 -0.64051752232E+02  0.53396417510E+03  0.53779269143E+03  0.00000000000E+00 0.  1.
         22    1    3    3    0    0 -0.30331601814E+02  0.50462328093E+02  0.92800632891E+03  0.92987214128E+03  0.00000000000E+00 0.  1.
</event>
<event>
 7    1  0.6103724E-006  0.4475615E+02  0.7818608E-02  0.1570706E+00
          2   -1    0    0  502    0  0.00000000000E+00  0.00000000000E+00  0.24113160987E+04  0.24113160987E+04  0.00000000000E+00 0. -1.
          1   -1    0    0  501    0 -0.00000000000E+00 -0.00000000000E+00 -0.13867411518E+03  0.13867411518E+03  0.00000000000E+00 0. -1.
         25    2    1    2    0    0  0.19331012910E+02 -0.12367969559E+02  0.45438740776E+03  0.47182609663E+03  0.12500117757E+03 0.  0.
          2    1    1    2  501    0  0.23680396784E+02 -0.22854019586E+01 -0.12859863782E+03  0.13078070922E+03  0.00000000000E+00 0. -1.
          1    1    1    2  502    0 -0.43011409695E+02  0.14653371518E+02  0.19468532136E+04  0.19473834080E+04  0.00000000000E+00 0. -1.
         22    1    3    3    0    0  0.42847490866E+01 -0.38593160029E+02  0.37959658672E+02  0.54302180088E+02  0.00000000000E+00 0. -1.
         22    1    3    3    0    0  0.15046263824E+02  0.26225190470E+02  0.41642774909E+03  0.41752391654E+03  0.00000000000E+00 0. -1.
</event>
<event>
 7    1  0.6103724E-006  0.1897315E+03  0.7818608E-02  0.1351149E+00
          2   -1    0    0  502    0  0.00000000000E+00  0.00000000000E+00  0.24711830204E+03  0.24711830204E+03  0.00000000000E+00 0. -1.
          1   -1    0    0  501    0 -0.00000000000E+00 -0.00000000000E+00 -0.92951453001E+03  0.92951453001E+03  0.00000000000E+00 0. -1.
         25    2    1    2    0    0  0.17125374545E+03  0.16770581374E+02 -0.21522663140E+03  0.30258423573E+03  0.12500247645E+03 0.  0.
          2    1    1    2  501    0 -0.19562509460E+03 -0.32806505234E+01 -0.65529107335E+03  0.68387596179E+03  0.00000000000E+00 0. -1.
          1    1    1    2  502    0  0.24371349142E+02 -0.13489930850E+02  0.18812147679E+03  0.19017263453E+03  0.00000000000E+00 0. -1.
         22    1    3    3    0    0  0.23933878606E+02  0.22822034728E+02 -0.12594725405E+03  0.13021669101E+03  0.00000000000E+00 0. -1.
         22    1    3    3    0    0  0.14731986685E+03 -0.60514533544E+01 -0.89279377354E+02  0.17236754473E+03  0.00000000000E+00 0. -1.
</event>
<event>
 7    1  0.6103724E-006  0.8235055E+02  0.7818608E-02  0.1344963E+00
          2   -1    0    0  502    0  0.00000000000E+00  0.00000000000E+00  0.54264442461E+02  0.54264442461E+02  0.00000000000E+00 0. -1.
          1   -1    0    0  501    0 -0.00000000000E+00 -0.00000000000E+00 -0.67646442241E+03  0.67646442241E+03  0.00000000000E+00 0. -1.
         25    2    1    2    0    0 -0.26368978640E+02 -0.29064646607E+02 -0.24182998811E+03  0.27503900655E+03  0.12499854103E+03 0.  0.
          2    1    1    2  501    0  0.29501046342E+02  0.96659198465E+02 -0.37435457727E+03  0.38775593085E+03  0.00000000000E+00 0. -1.
          1    1    1    2  502    0 -0.31320677020E+01 -0.67594551858E+02 -0.60154145652E+01  0.67933927469E+02  0.00000000000E+00 0. -1.
         22    1    3    3    0    0  0.29475185369E+02  0.29711870926E+02 -0.13233369444E+03  0.13879405070E+03  0.00000000000E+00 0. -1.
         22    1    3    3    0    0 -0.55844164009E+02 -0.58776517533E+02 -0.10949629367E+03  0.13624495585E+03  0.00000000000E+00 0. -1.
</event>
<event>
 7    1  0.6103724E-006  0.1608724E+03  0.7818608E-02  0.1299975E+00
          2   -1    0    0  502    0  0.00000000000E+00  0.00000000000E+00  0.20823583450E+04  0.20823583450E+04  0.00000000000E+00 0. -1.
          1   -1    0    0  501    0 -0.00000000000E+00 -0.00000000000E+00 -0.24514636281E+04  0.24514636281E+04  0.00000000000E+00 0. -1.
         25    2    1    2    0    0 -0.19063384622E+03  0.82778809841E+02 -0.85524411148E+03  0.88896637913E+03  0.12500055331E+03 0.  0.
          2    1    1    2  501    0  0.36783382384E+02 -0.36330574794E+02 -0.15758077467E+04  0.15766556321E+04  0.00000000000E+00 0. -1.
          1    1    1    2  502    0  0.15385046383E+03 -0.46448235048E+02  0.20619465751E+04  0.20681999619E+04  0.00000000000E+00 0. -1.
         22    1    3    3    0    0 -0.15785178314E+01 -0.18094528576E+02 -0.17079187357E+03  0.17175496430E+03  0.00000000000E+00 0. -1.
         22    1    3    3    0    0 -0.18905532839E+03  0.10087333842E+03 -0.68445223790E+03  0.71721141483E+03  0.00000000000E+00 0. -1.
</event>
<event>
 7    1  0.6103724E-006  0.1159867E+03  0.7818608E-02  0.1453015E+00
          2   -1    0    0  502    0  0.00000000000E+00  0.00000000000E+00  0.12781536752E+04  0.12781536752E+04  0.00000000000E+00 0. -1.
          1   -1    0    0  501    0 -0.00000000000E+00 -0.00000000000E+00 -0.15007569633E+04  0.15007569633E+04  0.00000000000E+00 0. -1.
         25    2    1    2    0    0  0.96125877256E+02  0.40204084081E+02  0.63776664401E+02  0.17478392107E+03  0.12500161394E+03 0.  0.
          2    1    1    2  501    0 -0.99368978627E+02 -0.60312314809E+02 -0.14428262464E+04  0.14475010696E+04  0.00000000000E+00 0. -1.
          1    1    1    2  502    0  0.32431013712E+01  0.20108230727E+02  0.11564462939E+04  0.11566256478E+04  0.00000000000E+00 0. -1.
         22    1    3    3    0    0  0.74454750834E+02  0.20463517043E+02  0.10116993591E+03  0.12726987618E+03  0.00000000000E+00 0.  1.
         22    1    3    3    0    0  0.21671126422E+02  0.19740567038E+02 -0.37393271508E+02  0.47514044886E+02  0.00000000000E+00 0.  1.
</event>
<event>
 7    1  0.6103724E-006  0.7201809E+02  0.7818608E-02  0.1394812E+00
          2   -1    0    0  502    0  0.00000000000E+00  0.00000000000E+00  0.22725580971E+03  0.22725580971E+03  0.00000000000E+00 0. -1.
          1   -1    0    0  501    0 -0.00000000000E+00 -0.00000000000E+00 -0.19867552845E+04  0.19867552845E+04  0.00000000000E+00 0. -1.
         25    2    1    2    0    0 -0.96129199999E+02 -0.22984477224E+02 -0.42352509972E+03  0.45251223302E+03  0.12499880662E+03 0.  0.
          2    1    1    2  501    0  0.68318694731E+02 -0.20008415001E+02 -0.15448243320E+04  0.15464637071E+04  0.00000000000E+00 0. -1.
          1    1    1    2  502    0  0.27810505268E+02  0.42992892225E+02  0.20884995692E+03  0.21503515408E+03  0.00000000000E+00 0. -1.
         22    1    3    3    0    0 -0.24317045337E+02 -0.44169645938E+02 -0.32436459382E+03  0.32826005855E+03  0.00000000000E+00 0. -1.
         22    1    3    3    0    0 -0.71812154662E+02  0.21185168715E+02 -0.99160505907E+02  0.12425217448E+03  0.00000000000E+00 0. -1.
</event>
<event>
 7    1  0.6103724E-006  0.3047161E+02  0.7818608E-02  0.1602485E+00
          2   -1    0    0  502    0  0.00000000000E+00  0.00000000000E+00  0.69412150336E+03  0.69412150336E+03  0.00000000000E+00 0. -1.
          1   -1    0    0  501    0 -0.00000000000E+00 -0.00000000000E+00 -0.50171369681E+02  0.50171369681E+02  0.00000000000E+00 0. -1.
         25    2    1    2    0    0 -0.20792676039E+02 -0.15608520061E+02  0.22955366565E+03  0.26266599849E+03  0.12499031992E+03 0.  0.
          2    1    1    2  501    0  0.24411427299E+02 -0.15215380196E+02 -0.26815014182E+02  0.39325189928E+02  0.00000000000E+00 0. -1.
          1    1    1    2  502    0 -0.36187512597E+01  0.30823900257E+02  0.44121148221E+03  0.44230168463E+03  0.00000000000E+00 0. -1.
         22    1    3    3    0    0 -0.55868051774E+01 -0.11591413776E+02 -0.13763169730E+02  0.18841393431E+02  0.00000000000E+00 0. -1.
         22    1    3    3    0    0 -0.15205870862E+02 -0.40171062850E+01  0.24331683538E+03  0.24382460506E+03  0.00000000000E+00 0. -1.
</event>
<event>
 7    1  0.6103724E-006  0.4430816E+02  0.7818608E-02  0.1584609E+00
          2   -1    0    0  502    0  0.00000000000E+00  0.00000000000E+00  0.94966462194E+03  0.94966462194E+03  0.00000000000E+00 0. -1.
          1   -1    0    0  501    0 -0.00000000000E+00 -0.00000000000E+00 -0.71766215645E+02  0.71766215645E+02  0.00000000000E+00 0. -1.
         25    2    1    2    0    0  0.45420312695E+02 -0.37873160747E+01  0.75923722600E+03  0.77080729148E+03  0.12500146674E+03 0.  0.
          2    1    1    2  501    0 -0.36518763981E+01  0.21743796841E+02 -0.61228593020E+02  0.65077411638E+02  0.00000000000E+00 0. -1.
          1    1    1    2  502    0 -0.41768436297E+02 -0.17956480767E+02  0.17988977332E+03  0.18554613447E+03  0.00000000000E+00 0. -1.
         22    1    3    3    0    0  0.37938531296E+02 -0.46021575835E+01  0.76187462780E+03  0.76283252454E+03  0.00000000000E+00 0.  1.
         22    1    3    3    0    0  0.74817813987E+01  0.81484150875E+00 -0.26374017954E+01  0.79747669441E+01  0.00000000000E+00 0.  1.
</event>
<event>
 7    1  0.6103724E-006  0.1403014E+03  0.7818608E-02  0.1411648E+00
          2   -1    0    0  502    0  0.00000000000E+00  0.00000000000E+00  0.61577329274E+03  0.61577329274E+03  0.00000000000E+00 0. -1.
          1   -1    0    0  501    0 -0.00000000000E+00 -0.00000000000E+00 -0.24509987152E+03  0.24509987152E+03  0.00000000000E+00 0. -1.
         25    2    1    2    0    0  0.13987591997E+03  0.55161127688E+02 -0.11514633426E+03  0.22691652549E+03  0.12499763298E+03 0.  0.
          2    1    1    2  501    0 -0.38374940482E+01 -0.22695371587E+02 -0.63274311406E+02  0.67330860205E+02  0.00000000000E+00 0. -1.
          1    1    1    2  502    0 -0.13603842592E+03 -0.32465756101E+02  0.54909406688E+03  0.56662577856E+03  0.00000000000E+00 0. -1.
         22    1    3    3    0    0  0.44178856570E+02 -0.20442777355E+02  0.12617997561E+02  0.50288093782E+02  0.00000000000E+00 0. -1.
         22    1    3    3    0    0  0.95697063401E+02  0.75603905042E+02 -0.12776433182E+03  0.17662843170E+03  0.00000000000E+00 0. -1.
</event>
<event>
 7    1  0.6103724E-006  0.8156416E+02  0.7818608E-02  0.1335813E+00
          2   -1    0    0  502    0  0.00000000000E+00  0.00000000000E+00  0.27059884674E+04  0.27059884674E+04  0.00000000000E+00 0. -1.
          1   -1    0    0  501    0 -0.00000000000E+00 -0.00000000000E+00 -0.36449274193E+02  0.36449274193E+02  0.00000000000E+00 0. -1.
         25    2    1    2    0    0 -0.37330316820E+02 -0.44731723312E+02  0.63050851723E+03  0.64541504208E+03  0.12500042647E+03 0.  0.
          2    1    1    2  501    0  0.85934806681E+02 -0.11003744684E+02  0.37962841199E+02  0.94588850867E+02  0.00000000000E+00 0. -1.
          1    1    1    2  502    0 -0.48604489861E+02  0.55735467996E+02  0.20010678348E+04  0.20024338487E+04  0.00000000000E+00 0. -1.
         22    1    3    3    0    0 -0.25623437139E+01 -0.56824814409E+02  0.11214650567E+03  0.12574761975E+03  0.00000000000E+00 0.  1.
         22    1    3    3    0    0 -0.34767973106E+02  0.12093091097E+02  0.51836201156E+03  0.51966742233E+03  0.00000000000E+00 0.  1.
</event>
<event>
 7    1  0.6103724E-006  0.3863950E+02  0.7818608E-02  0.1573476E+00
          2   -1    0    0  502    0  0.00000000000E+00  0.00000000000E+00  0.16249297766E+04  0.16249297766E+04  0.00000000000E+00 0. -1.
          1   -1    0    0  501    0 -0.00000000000E+00 -0.00000000000E+00 -0.43927566991E+02  0.43927566991E+02  0.00000000000E+00 0. -1.
         25    2    1    2    0    0 -0.33631226786E+02 -0.47052744580E+02  0.43248701938E+03  0.45388907456E+03  0.12500099952E+03 0.  0.
          2    1    1    2  501    0  0.10674311298E+01  0.27063330556E+02 -0.27344771920E+02  0.38487658039E+02  0.00000000000E+00 0. -1.
          1    1    1    2  502    0  0.32563795656E+02  0.19989414025E+02  0.11758599622E+04  0.11764806110E+04  0.00000000000E+00 0. -1.
         22    1    3    3    0    0  0.19681420217E+02  0.21839295530E+02  0.29700353458E+02  0.41790239609E+02  0.00000000000E+00 0.  1.
         22    1    3    3    0    0 -0.53312647003E+02 -0.68892040110E+02  0.40278666592E+03  0.41209883495E+03  0.00000000000E+00 0.  1.
</event>
<event>
 7    1  0.6103724E-006  0.7048570E+02  0.7818608E-02  0.1370941E+00
          2   -1    0    0  502    0  0.00000000000E+00  0.00000000000E+00  0.16957145122E+04  0.16957145122E+04  0.00000000000E+00 0. -1.
          1   -1    0    0  501    0 -0.00000000000E+00 -0.00000000000E+00 -0.96076943373E+02  0.96076943373E+02  0.00000000000E+00 0. -1.
         25    2    1    2    0    0  0.66587792450E+02  0.10033881135E+03  0.11302924510E+03  0.20712863283E+03  0.12499939649E+03 0.  0.
          2    1    1    2  501    0 -0.15472200923E+02 -0.62648976946E+02 -0.26834348095E+02  0.69888236145E+02  0.00000000000E+00 0. -1.
          1    1    1    2  502    0 -0.51115591527E+02 -0.37689834409E+02  0.15134426718E+04  0.15147745866E+04  0.00000000000E+00 0. -1.
         22    1    3    3    0    0  0.86505917466E+02  0.54073658357E+02  0.11861361944E+03  0.15644943273E+03  0.00000000000E+00 0. -1.
         22    1    3    3    0    0 -0.19918125016E+02  0.46265152997E+02 -0.55843743389E+01  0.50679200100E+02  0.00000000000E+00 0. -1.
</event>
<event>
 7    1  0.6103724E-006  0.8968652E+02  0.7818608E-02  0.1457538E+00
          2   -1    0    0  502    0  0.00000000000E+00  0.00000000000E+00  0.32940923053E+03  0.32940923053E+03  0.00000000000E+00 0. -1.
          1   -1    0    0  501    0 -0.00000000000E+00 -0.00000000000E+00 -0.40332403508E+03  0.40332403508E+03  0.00000000000E+00 0. -1.
         25    2    1    2    0    0  0.27018412174E+02 -0.69075210536E+02  0.64260795143E+01  0.14548802779E+03  0.12499636965E+03 0.  0.
          2    1    1    2  501    0 -0.13429602885E+02 -0.21658379926E+02 -0.32497525427E+03  0.32597293683E+03  0.00000000000E+00 0. -1.
          1    1    1    2  502    0 -0.13588809289E+02  0.90733590462E+02  0.24463437021E+03  0.26127230099E+03  0.00000000000E+00 0. -1.
         22    1    3    3    0    0  0.47933896236E+02  0.10793899991E+02  0.32495471362E+02  0.58907744350E+02  0.00000000000E+00 0.  1.
         22    1    3    3    0    0 -0.20915484062E+02 -0.79869110526E+02 -0.26069391848E+02  0.86580283443E+02  0.00000000000E+00 0.  1.
</event>
<event>
 7    1  0.6103724E-006  0.1250227E+03  0.7818608E-02  0.1330019E+00
          2   -1    0    0  502    0  0.00000000000E+00  0.00000000000E+00  0.97901399400E+03  0.97901399400E+03  0.00000000000E+00 0. -1.
          1   -1    0    0  501    0 -0.00000000000E+00 -0.00000000000E+00 -0.16051204971E+04  0.16051204971E+04  0.00000000000E+00 0. -1.
         25    2    1    2    0    0 -0.17265634601E+03 -0.93748919685E+01  0.19873690840E+02  0.21428622388E+03  0.12500207894E+03 0.  0.
          2    1    1    2  501    0  0.49780741752E+02  0.99047959713E+01 -0.15031043838E+04  0.15039611085E+04  0.00000000000E+00 0. -1.
          1    1    1    2  502    0  0.12287560426E+03 -0.52990400287E+00  0.85712418984E+03  0.86588715877E+03  0.00000000000E+00 0. -1.
         22    1    3    3    0    0 -0.84367475474E+02  0.55148472462E+02 -0.89739445109E+01  0.10119168253E+03  0.00000000000E+00 0.  1.
         22    1    3    3    0    0 -0.88288870534E+02 -0.64523364431E+02  0.28847635351E+02  0.11309454135E+03  0.00000000000E+00 0.  1.
</event>
<event>
 7    1  0.6103724E-006  0.8187592E+02  0.7818608E-02  0.1388883E+00
          2   -1    0    0  502    0  0.00000000000E+00  0.00000000000E+00  0.30400441528E+03  0.30400441528E+03  0.00000000000E+00 0. -1.
          1   -1    0    0  501    0 -0.00000000000E+00 -0.00000000000E+00 -0.89789775368E+03  0.89789775368E+03  0.00000000000E+00 0. -1.
         25    2    1    2    0    0  0.12603615163E+03 -0.12267235444E+02 -0.56263548122E+02  0.18661995974E+03  0.12500330374E+03 0.  0.
          2    1    1    2  501    0 -0.46849703000E+02  0.59847725951E+01 -0.76910630455E+03  0.77055513747E+03  0.00000000000E+00 0. -1.
          1    1    1    2  502    0 -0.79186448625E+02  0.62824628489E+01  0.23147651428E+03  0.24472707175E+03  0.00000000000E+00 0. -1.
         22    1    3    3    0    0  0.12280534069E+03 -0.14558197909E+02  0.64005983207E+01  0.12383077359E+03  0.00000000000E+00 0.  1.
         22    1    3    3    0    0  0.32308109311E+01  0.22909624655E+01 -0.62664146443E+02  0.62789186153E+02  0.00000000000E+00 0.  1.
</event>
<event>
 7    1  0.6103724E-006  0.4240028E+02  0.7818608E-02  0.1533471E+00
          2   -1    0    0  502    0  0.00000000000E+00  0.00000000000E+00  0.25463511765E+03  0.25463511765E+03  0.00000000000E+00 0. -1.
          1   -1    0    0  501    0 -0.00000000000E+00 -0.00000000000E+00 -0.44556554554E+03  0.44556554554E+03  0.00000000000E+00 0. -1.
         25    2    1    2    0    0  0.63577921617E+02 -0.19032326166E+02 -0.19784150508E+03  0.24324944644E+03  0.12499860200E+03 0.  0.
          2    1    1    2  501    0 -0.40643612634E+02 -0.31072967292E+01 -0.22206081461E+03  0.22577104315E+03  0.00000000000E+00 0. -1.
          1    1    1    2  502    0 -0.22934308983E+02  0.22139622895E+02  0.22897189180E+03  0.23118017360E+03  0.00000000000E+00 0. -1.
         22    1    3    3    0    0  0.96956924934E+02  0.96502450278E+01 -0.13999023251E+03  0.17056095016E+03  0.00000000000E+00 0. -1.
         22    1    3    3    0    0 -0.33379003317E+02 -0.28682571194E+02 -0.57851272570E+02  0.72688496274E+02  0.00000000000E+00 0. -1.
</event>
<event>
 7    1  0.6103724E-006  0.8010110E+02  0.7818608E-02  0.1409846E+00
          2   -1    0    0  502    0  0.00000000000E+00  0.00000000000E+00  0.16537722749E+04  0.16537722749E+04  0.00000000000E+00 0. -1.
          1   -1    0    0  501    0 -0.00000000000E+00 -0.00000000000E+00 -0.34628615944E+03  0.34628615944E+03  0.00000000000E+00 0. -1.
         25    2    1    2    0    0 -0.80047340510E+02  0.68886544051E+02  0.11066865561E+03  0.19754188689E+03  0.12498925180E+03 0.  0.
          2    1    1    2  501    0  0.40884352215E+02  0.44472569210E+00 -0.30040673484E+03  0.30317640801E+03  0.00000000000E+00 0. -1.
          1    1    1    2  502    0  0.39162988296E+02 -0.69331269743E+02  0.14972241947E+04  0.14993401394E+04  0.00000000000E+00 0. -1.
         22    1    3    3    0    0 -0.16529518436E+02  0.68906075198E+02  0.11367548519E+03  0.13395293245E+03  0.00000000000E+00 0.  1.
         22    1    3    3    0    0 -0.63517822074E+02 -0.19531146366E-01 -0.30068295714E+01  0.63588954439E+02  0.00000000000E+00 0.  1.
</event>
<event>
 7    1  0.6103724E-006  0.2272778E+03  0.7818608E-02  0.1232343E+00
          2   -1    0    0  502    0  0.00000000000E+00  0.00000000000E+00  0.99567073445E+03  0.99567073445E+03  0.00000000000E+00 0. -1.
          1   -1    0    0  501    0 -0.00000000000E+00 -0.00000000000E+00 -0.12506734313E+04  0.12506734313E+04  0.00000000000E+00 0. -1.
         25    2    1    2    0    0  0.18180108087E+03  0.71198366037E+02  0.75372382446E+03  0.78857208315E+03  0.12500194575E+03 0.  0.
          2    1    1    2  501    0 -0.22719890355E+03 -0.17000474994E+02 -0.12168359633E+04  0.12379814697E+04  0.00000000000E+00 0. -1.
          1    1    1    2  502    0  0.45397822679E+02 -0.54197891043E+02  0.20810944193E+03  0.21979061290E+03  0.00000000000E+00 0. -1.
         22    1    3    3    0    0  0.15532372881E+03  0.62200292876E+02  0.39783987319E+03  0.43159112811E+03  0.00000000000E+00 0.  1.
         22    1    3    3    0    0  0.26477352068E+02  0.89980731606E+01  0.35588395127E+03  0.35698095504E+03  0.00000000000E+00 0.  1.
</event>
<event>
 7    1  0.6103724E-006  0.9932183E+02  0.7818608E-02  0.1422584E+00
          2   -1    0    0  502    0  0.00000000000E+00  0.00000000000E+00  0.19793738424E+04  0.19793738424E+04  0.00000000000E+00 0. -1.
          1   -1    0    0  501    0 -0.00000000000E+00 -0.00000000000E+00 -0.12308030627E+03  0.12308030627E+03  0.00000000000E+00 0. -1.
         25    2    1    2    0    0 -0.59850034283E+02  0.10232244995E+03  0.28771945489E+02  0.17467368280E+03  0.12502463857E+03 0.  0.
          2    1    1    2  501    0 -0.68074985779E+01 -0.29095270030E+02 -0.44248479750E+02  0.53392927764E+02  0.00000000000E+00 0. -1.
          1    1    1    2  502    0  0.66657532861E+02 -0.73227179921E+02  0.18717700704E+04  0.18743875381E+04  0.00000000000E+00 0. -1.
         22    1    3    3    0    0  0.11103548871E+02 -0.85258152456E+01 -0.28026725772E+02  0.31328512263E+02  0.00000000000E+00 0.  1.
         22    1    3    3    0    0 -0.70953583154E+02  0.11084826520E+03  0.56798671261E+02  0.14334517054E+03  0.00000000000E+00 0.  1.
</event>
<event>
 7    1  0.6103724E-006  0.8564159E+02  0.7818608E-02  0.1420413E+00
          2   -1    0    0  502    0  0.00000000000E+00  0.00000000000E+00  0.72767169404E+02  0.72767169404E+02  0.00000000000E+00 0. -1.
          1   -1    0    0  501    0 -0.00000000000E+00 -0.00000000000E+00 -0.78517190900E+03  0.78517190900E+03  0.00000000000E+00 0. -1.
         25    2    1    2    0    0 -0.59021269683E+02 -0.83612027109E+01 -0.73632403732E+02  0.15684403641E+03  0.12499960357E+03 0.  0.
          2    1    1    2  501    0  0.86577234918E+02 -0.13599548509E+02 -0.65603104875E+03  0.66185897460E+03  0.00000000000E+00 0. -1.
          1    1    1    2  502    0 -0.27555965235E+02  0.21960751220E+02  0.17258712889E+02  0.39236067397E+02  0.00000000000E+00 0. -1.
         22    1    3    3    0    0  0.95584701789E+01  0.21051781395E+02  0.24418618792E+02  0.33627530326E+02  0.00000000000E+00 0.  1.
         22    1    3    3    0    0 -0.68579739862E+02 -0.29412984106E+02 -0.98051022525E+02  0.12321650608E+03  0.00000000000E+00 0.  1.
</event>
<event>
 7    1  0.6103724E-006  0.1442997E+03  0.7818608E-02  0.1231513E+00
          2   -1    0    0  502    0  0.00000000000E+00  0.00000000000E+00  0.15806093409E+04  0.15806093409E+04  0.00000000000E+00 0. -1.
          1   -1    0    0  501    0 -0.00000000000E+00 -0.00000000000E+00 -0.12741798072E+04  0.12741798072E+04  0.00000000000E+00 0. -1.
         25    2    1    2    0    0  0.41409002193E+01 -0.60873800454E+02  0.54424331608E+02  0.14936394508E+03  0.12499925433E+03 0.  0.
          2    1    1    2  501    0 -0.93153568655E+02 -0.62734306101E+02 -0.12202016576E+04  0.12253592394E+04  0.00000000000E+00 0. -1.
          1    1    1    2  502    0  0.89012668435E+02  0.12360810656E+03  0.14722068596E+04  0.14800659636E+04  0.00000000000E+00 0. -1.
         22    1    3    3    0    0  0.61837687218E+02 -0.35257319531E+02  0.48121192888E+02  0.85922216836E+02  0.00000000000E+00 0.  1.
         22    1    3    3    0    0 -0.57696786999E+02 -0.25616480923E+02  0.63031387198E+01  0.63441728244E+02  0.00000000000E+00 0.  1.
</event>
<event>
 7    1  0.6103724E-006  0.6518621E+02  0.7818608E-02  0.1498759E+00
          2   -1    0    0  502    0  0.00000000000E+00  0.00000000000E+00  0.88111183660E+03  0.88111183660E+03  0.00000000000E+00 0. -1.
          1   -1    0    0  501    0 -0.00000000000E+00 -0.00000000000E+00 -0.10705331451E+03  0.10705331451E+03  0.00000000000E+00 0. -1.
         25    2    1    2    0    0  0.50449960724E+02 -0.65199970329E+01  0.14998232416E+03  0.20176014608E+03  0.12499900034E+03 0.  0.
          2    1    1    2  501    0 -0.64729928178E+02 -0.15427524421E+02 -0.67235879655E+02  0.94597228419E+02  0.00000000000E+00 0. -1.
          1    1    1    2  502    0  0.14279967454E+02  0.21947521453E+02  0.69131207758E+03  0.69180777661E+03  0.00000000000E+00 0. -1.
         22    1    3    3    0    0  0.40350968388E+02 -0.39468793752E+02  0.96564427055E+01  0.57264589546E+02  0.00000000000E+00 0.  1.
         22    1    3    3    0    0  0.10098992335E+02  0.32948796719E+02  0.14032588146E+03  0.14449555654E+03  0.00000000000E+00 0.  1.
</event>
<event>
 7    1  0.6103724E-006  0.1318943E+03  0.7818608E-02  0.1250922E+00
          2   -1    0    0  502    0  0.00000000000E+00  0.00000000000E+00  0.92170396799E+03  0.92170396799E+03  0.00000000000E+00 0. -1.
          1   -1    0    0  501    0 -0.00000000000E+00 -0.00000000000E+00 -0.42227945818E+03  0.42227945818E+03  0.00000000000E+00 0. -1.
         25    2    1    2    0    0 -0.42210503453E+02  0.14001969291E+03  0.11609883691E+03  0.22470413994E+03  0.12500307823E+03 0.  0.
          2    1    1    2  501    0  0.99188102870E+02 -0.18672519496E+02 -0.35490378234E+03  0.36897647277E+03  0.00000000000E+00 0. -1.
          1    1    1    2  502    0 -0.56977599418E+02 -0.12134717342E+03  0.73822945523E+03  0.75030281347E+03  0.00000000000E+00 0. -1.
         22    1    3    3    0    0 -0.49247875428E+02  0.15340148306E+03  0.69051132795E+02  0.17528669995E+03  0.00000000000E+00 0. -1.
         22    1    3    3    0    0  0.70373719751E+01 -0.13381790148E+02  0.47047704119E+02  0.49417439986E+02  0.00000000000E+00 0. -1.
</event>
<event>
 7    1  0.6103724E-006  0.4923552E+02  0.7818608E-02  0.1518456E+00
          2   -1    0    0  502    0  0.00000000000E+00  0.00000000000E+00  0.60748629746E+03  0.60748629746E+03  0.00000000000E+00 0. -1.
          1   -1    0    0  501    0 -0.00000000000E+00 -0.00000000000E+00 -0.23378237258E+03  0.23378237258E+03  0.00000000000E+00 0. -1.
         25    2    1    2    0    0  0.48841495377E+02  0.33930334964E+02  0.10197108187E+03  0.17192827001E+03  0.12499787673E+03 0.  0.
          2    1    1    2  501    0 -0.20496875157E+02 -0.44713218004E+02 -0.19526196787E+03  0.20136193744E+03  0.00000000000E+00 0. -1.
          1    1    1    2  502    0 -0.28344620220E+02  0.10782883041E+02  0.46699481088E+03  0.46797846259E+03  0.00000000000E+00 0. -1.
         22    1    3    3    0    0 -0.31733051730E+01 -0.39982576615E+02  0.68017637432E+01  0.40680957320E+02  0.00000000000E+00 0.  1.
         22    1    3    3    0    0  0.52014800550E+02  0.73912911578E+02  0.95169318132E+02  0.13124731269E+03  0.00000000000E+00 0.  1.
</event>
<event>
 7    1  0.6103724E-006  0.5463657E+02  0.7818608E-02  0.1528338E+00
          2   -1    0    0  502    0  0.00000000000E+00  0.00000000000E+00  0.10590364920E+04  0.10590364920E+04  0.00000000000E+00 0. -1.
          1   -1    0    0  501    0 -0.00000000000E+00 -0.00000000000E+00 -0.45484996142E+02  0.45484996142E+02  0.00000000000E+00 0. -1.
         25    2    1    2    0    0 -0.67073654544E+02  0.70607814111E+01  0.41713811469E+03  0.44065628836E+03  0.12500011188E+03 0.  0.
          2    1    1    2  501    0  0.48342805433E+02 -0.24494795159E+02 -0.11510352105E+02  0.55403159048E+02  0.00000000000E+00 0. -1.
          1    1    1    2  502    0  0.18730849112E+02  0.17434013747E+02  0.60792373329E+03  0.60846204075E+03  0.00000000000E+00 0. -1.
         22    1    3    3    0    0 -0.84023495132E+02 -0.11291939395E+02  0.40326529628E+03  0.41208051982E+03  0.00000000000E+00 0. -1.
         22    1    3    3    0    0  0.16949840588E+02  0.18352720806E+02  0.13872818415E+02  0.28575768540E+02  0.00000000000E+00 0. -1.
</event>
<event>
 7    1  0.6103724E-006  0.2059830E+03  0.7818608E-02  0.1350879E+00
          2   -1    0    0  502    0  0.00000000000E+00  0.00000000000E+00  0.81970451788E+03  0.81970451788E+03  0.00000000000E+00 0. -1.
          1   -1    0    0  501    0 -0.00000000000E+00 -0.00000000000E+00 -0.53559432783E+03  0.53559432783E+03  0.00000000000E+00 0. -1.
         25    2    1    2    0    0  0.19188291973E+03  0.39495327176E+02  0.76671940465E+02  0.24470720725E+03  0.12499638024E+03 0.  0.
          2    1    1    2  501    0 -0.20681436110E+03 -0.18556920962E+02 -0.42743260175E+03  0.47520013500E+03  0.00000000000E+00 0. -1.
          1    1    1    2  502    0  0.14931441365E+02 -0.20938406213E+02  0.63487085133E+03  0.63539150346E+03  0.00000000000E+00 0. -1.
         22    1    3    3    0    0  0.54421417650E+02 -0.33489134169E+02 -0.12824820237E+02  0.65174295704E+02  0.00000000000E+00 0.  1.
         22    1    3    3    0    0  0.13746150208E+03  0.72984461345E+02  0.89496760702E+02  0.17953291155E+03  0.00000000000E+00 0.  1.
</event>
<event>
 7    1  0.6103724E-006  0.1094014E+03  0.7818608E-02  0.1314082E+00
          2   -1    0    0  502    0  0.00000000000E+00  0.00000000000E+00  0.11751066803E+04  0.11751066803E+04  0.00000000000E+00 0. -1.
          1   -1    0    0  501    0 -0.00000000000E+00 -0.00000000000E+00 -0.12899870180E+03  0.12899870180E+03  0.00000000000E+00 0. -1.
         25    2    1    2    0    0 -0.46522511002E+02  0.14832733489E+02  0.11063512984E+03  0.17392312076E+03  0.12499906386E+03 0.  0.
          2    1    1    2  501    0 -0.63261117368E+02  0.21607457324E+02 -0.82202917550E+02  0.10595362588E+03  0.00000000000E+00 0. -1.
          1    1    1    2  502    0  0.10978362837E+03 -0.36440190812E+02  0.10176757662E+04  0.10242286354E+04  0.00000000000E+00 0. -1.
         22    1    3    3    0    0 -0.32070556044E+02  0.34353993651E+02 -0.12325648242E+02  0.48586408072E+02  0.00000000000E+00 0.  1.
         22    1    3    3    0    0 -0.14451954958E+02 -0.19521260163E+02  0.12296077808E+03  0.12533671269E+03  0.00000000000E+00 0.  1.
</event>
<event>
 7    1  0.6103724E-006  0.2432369E+03  0.7818608E-02  0.1261262E+00
          2   -1    0    0  502    0  0.00000000000E+00  0.00000000000E+00  0.52126602518E+03  0.52126602518E+03  0.00000000000E+00 0. -1.
          1   -1    0    0  501    0 -0.00000000000E+00 -0.00000000000E+00 -0.15610061194E+04  0.15610061194E+04  0.00000000000E+00 0. -1.
         25    2    1    2    0    0  0.16347653504E+03  0.18888581843E+03 -0.65832775885E+03  0.71513844826E+03  0.12500052873E+03 0.  0.
          2    1    1    2  501    0 -0.19069957302E+03 -0.14765259602E+03 -0.85633382445E+03  0.88964893927E+03  0.00000000000E+00 0. -1.
          1    1    1    2  502    0  0.27223037973E+02 -0.41233222406E+02  0.47492148908E+03  0.47748475705E+03  0.00000000000E+00 0. -1.
         22    1    3    3    0    0  0.44735686440E+02 -0.91826193408E+01 -0.15031871234E+03  0.15710288800E+03  0.00000000000E+00 0.  1.
         22    1    3    3    0    0  0.11874084860E+03  0.19806843777E+03 -0.50800904652E+03  0.55803556026E+03  0.00000000000E+00 0.  1.
</event>
<event>
 7    1  0.6103724E-006  0.8110348E+02  0.7818608E-02  0.1355363E+00
          2   -1    0    0  502    0  0.00000000000E+00  0.00000000000E+00  0.56033130104E+03  0.56033130104E+03  0.00000000000E+00 0. -1.
          1   -1    0    0  501    0 -0.00000000000E+00 -0.00000000000E+00 -0.15989023581E+03  0.15989023581E+03  0.00000000000E+00 0. -1.
         25    2    1    2    0    0  0.80084484071E+02 -0.11010286364E+03  0.40886573717E+02  0.18929602113E+03  0.12500042614E+03 0.  0.
          2    1    1    2  501    0 -0.19720064699E+02  0.59702559192E+02 -0.70081187746E+02  0.94152267109E+02  0.00000000000E+00 0. -1.
          1    1    1    2  502    0 -0.60364419373E+02  0.50400304445E+02  0.42963567926E+03  0.43677324861E+03  0.00000000000E+00 0. -1.
         22    1    3    3    0    0  0.46537532928E+01  0.26745608355E+02 -0.21064314028E+01  0.27229066074E+02  0.00000000000E+00 0. -1.
         22    1    3    3    0    0  0.75430730779E+02 -0.13684847199E+03  0.42993005120E+02  0.16206695506E+03  0.00000000000E+00 0. -1.
</event>
<event>
 7    1  0.6103724E-006  0.3659104E+02  0.7818608E-02  0.1599417E+00
          2   -1    0    0  502    0  0.00000000000E+00  0.00000000000E+00  0.51917151555E+03  0.51917151555E+03  0.00000000000E+00 0. -1.
          1   -1    0    0  501    0 -0.00000000000E+00 -0.00000000000E+00 -0.61112711418E+02  0.61112711418E+02  0.00000000000E+00 0. -1.
         25    2    1    2    0    0  0.14098671995E+02  0.34139356072E+01  0.37473665610E+03  0.39530162540E+03  0.12500154444E+03 0.  0.
          2    1    1    2  501    0 -0.29513296659E+02 -0.22328262517E+02 -0.42765898575E+02  0.56555354014E+02  0.00000000000E+00 0. -1.
          1    1    1    2  502    0  0.15414624664E+02  0.18914326910E+02  0.12608804661E+03  0.12842724755E+03  0.00000000000E+00 0. -1.
         22    1    3    3    0    0  0.17265417545E+02  0.61746044885E+02  0.15065291585E+03  0.16372834133E+03  0.00000000000E+00 0.  1.
         22    1    3    3    0    0 -0.31667455504E+01 -0.58332109278E+02  0.22408374025E+03  0.23157328406E+03  0.00000000000E+00 0.  1.
</event>
<event>
 7    1  0.6103724E-006  0.4697806E+03  0.7818608E-02  0.1126844E+00
          2   -1    0    0  502    0  0.00000000000E+00  0.00000000000E+00  0.13569550865E+04  0.13569550865E+04  0.00000000000E+00 0. -1.
          1   -1    0    0  501    0 -0.00000000000E+00 -0.00000000000E+00 -0.78977052543E+03  0.78977052543E+03  0.00000000000E+00 0. -1.
         25    2    1    2    0    0  0.41262994486E+03 -0.26097789428E+03  0.10974791266E+03  0.51579273639E+03  0.12499843953E+03 0.  0.
          2    1    1    2  501    0  0.29439284323E+02  0.10839557620E+03 -0.52818175852E+03  0.53999281702E+03  0.00000000000E+00 0. -1.
          1    1    1    2  502    0 -0.44206922918E+03  0.15258231808E+03  0.98561840694E+03  0.10909400585E+04  0.00000000000E+00 0. -1.
         22    1    3    3    0    0  0.23393868088E+03 -0.87549294357E+02  0.18064763771E+02  0.25043666074E+03  0.00000000000E+00 0.  1.
         22    1    3    3    0    0  0.17869126398E+03 -0.17342859993E+03  0.91683148887E+02  0.26535607565E+03  0.00000000000E+00 0.  1.
</event>
<event>
 7    1  0.6103724E-006  0.3752157E+02  0.7818608E-02  0.1607602E+00
          2   -1    0    0  502    0  0.00000000000E+00  0.00000000000E+00  0.80184451935E+03  0.80184451935E+03  0.00000000000E+00 0. -1.
          1   -1    0    0  501    0 -0.00000000000E+00 -0.00000000000E+00 -0.13366258748E+04  0.13366258748E+04  0.00000000000E+00 0. -1.
         25    2    1    2    0    0 -0.16586544989E+02 -0.84182751677E+00  0.50432372919E+02  0.13580832049E+03  0.12499861410E+03 0.  0.
          2    1    1    2  501    0  0.34691920289E+02  0.14462292721E+02 -0.12934837772E+04  0.12940297404E+04  0.00000000000E+00 0. -1.
          1    1    1    2  502    0 -0.18105375300E+02 -0.13620465204E+02  0.70827004881E+03  0.70863233325E+03  0.00000000000E+00 0. -1.
         22    1    3    3    0    0 -0.67430618405E+02  0.19592611474E+02  0.37079436526E+02  0.79408081049E+02  0.00000000000E+00 0.  1.
         22    1    3    3    0    0  0.50844073416E+02 -0.20434438991E+02  0.13352936393E+02  0.56400239438E+02  0.00000000000E+00 0.  1.
</event>
<event>
 7    1  0.6103724E-006  0.1029414E+03  0.7818608E-02  0.1279768E+00
          2   -1    0    0  502    0  0.00000000000E+00  0.00000000000E+00  0.15108876793E+04  0.15108876793E+04  0.00000000000E+00 0. -1.
          1   -1    0    0  501    0 -0.00000000000E+00 -0.00000000000E+00 -0.12135452053E+04  0.12135452053E+04  0.00000000000E+00 0. -1.
         25    2    1    2    0    0 -0.35618371788E+02  0.51240004026E+02 -0.34462854431E+03  0.37187073610E+03  0.12499921755E+03 0.  0.
          2    1    1    2  501    0  0.12272374040E+03 -0.71418072522E+01 -0.84927379905E+03  0.85812476227E+03  0.00000000000E+00 0. -1.
          1    1    1    2  502    0 -0.87105368615E+02 -0.44098196774E+02  0.14912448174E+04  0.14944373863E+04  0.00000000000E+00 0. -1.
         22    1    3    3    0    0 -0.38255875036E+01  0.75188973381E+02 -0.10641134717E+03  0.13035103239E+03  0.00000000000E+00 0. -1.
         22    1    3    3    0    0 -0.31792784285E+02 -0.23948969355E+02 -0.23821719714E+03  0.24151970371E+03  0.00000000000E+00 0. -1.
</event>
<event>
 7    1  0.6103724E-006  0.1407865E+03  0.7818608E-02  0.1310351E+00
          2   -1    0    0  502    0  0.00000000000E+00  0.00000000000E+00  0.22368098262E+04  0.22368098262E+04  0.00000000000E+00 0. -1.
          1   -1    0    0  501    0 -0.00000000000E+00 -0.00000000000E+00 -0.24116509110E+04  0.24116509110E+04  0.00000000000E+00 0. -1.
         25    2    1    2    0    0  0.84646424455E+02 -0.13774466645E+03  0.44023023285E+03  0.48535365285E+03  0.12500760022E+03 0.  0.
          2    1    1    2  501    0 -0.30918676390E+02  0.13729329944E+03 -0.23866090587E+04  0.23907547372E+04  0.00000000000E+00 0. -1.
          1    1    1    2  502    0 -0.53727748065E+02  0.45136701597E+00  0.17715377410E+04  0.17723523472E+04  0.00000000000E+00 0. -1.
         22    1    3    3    0    0 -0.90616588423E+01 -0.34246733506E+02  0.23174572767E+03  0.23443769900E+03  0.00000000000E+00 0.  1.
         22    1    3    3    0    0  0.93708083298E+02 -0.10349793295E+03  0.20848450517E+03  0.25091595385E+03  0.00000000000E+00 0.  1.
</event>
<event>
 7    1  0.6103724E-006  0.4137868E+02  0.7818608E-02  0.1498341E+00
          2   -1    0    0  502    0  0.00000000000E+00  0.00000000000E+00  0.16889304277E+04  0.16889304277E+04  0.00000000000E+00 0. -1.
          1   -1    0    0  501    0 -0.00000000000E+00 -0.00000000000E+00 -0.59910764936E+03  0.59910764936E+03  0.00000000000E+00 0. -1.
         25    2    1    2    0    0  0.40234408878E+02 -0.75478450601E+01 -0.10436244702E+03  0.16789885629E+03  0.12499091156E+03 0.  0.
          2    1    1    2  501    0 -0.26721490381E+02 -0.31593624445E+02 -0.46179310556E+03  0.46364325456E+03  0.00000000000E+00 0. -1.
          1    1    1    2  502    0 -0.13512918497E+02  0.39141469505E+02  0.16559783310E+04  0.16564959662E+04  0.00000000000E+00 0. -1.
         22    1    3    3    0    0 -0.43235230486E+02  0.10971982246E+02 -0.47818895563E+02  0.65393549548E+02  0.00000000000E+00 0.  1.
         22    1    3    3    0    0  0.83469639364E+02 -0.18519827306E+02 -0.56543551459E+02  0.10250530674E+03  0.00000000000E+00 0.  1.
</event>
<event>
 7    1  0.6103724E-006  0.1271276E+03  0.7818608E-02  0.1372807E+00
          2   -1    0    0  502    0  0.00000000000E+00  0.00000000000E+00  0.10988222594E+04  0.10988222594E+04  0.00000000000E+00 0. -1.
          1   -1    0    0  501    0 -0.00000000000E+00 -0.00000000000E+00 -0.19442601311E+04  0.19442601311E+04  0.00000000000E+00 0. -1.
         25    2    1    2    0    0 -0.10263520127E+03  0.11855740523E+03 -0.16411640687E+03  0.25913745585E+03  0.12501273194E+03 0.  0.
          2    1    1    2  501    0  0.92216691787E+02 -0.85485729621E+02 -0.17300648410E+04  0.17346285142E+04  0.00000000000E+00 0. -1.
          1    1    1    2  502    0  0.10418509483E+02 -0.33071675610E+02  0.10487433762E+04  0.10493164204E+04  0.00000000000E+00 0. -1.
         22    1    3    3    0    0 -0.70847002118E+02  0.78970882176E+02 -0.17735927021E+03  0.20666883817E+03  0.00000000000E+00 0.  1.
         22    1    3    3    0    0 -0.31788199152E+02  0.39586523055E+02  0.13242863333E+02  0.52468617688E+02  0.00000000000E+00 0.  1.
</event>
<event>
 7    1  0.6103724E-006  0.7967121E+02  0.7818608E-02  0.1384675E+00
          2   -1    0    0  502    0  0.00000000000E+00  0.00000000000E+00  0.61633469491E+02  0.61633469491E+02  0.00000000000E+00 0. -1.
          1   -1    0    0  501    0 -0.00000000000E+00 -0.00000000000E+00 -0.61441592373E+03  0.61441592373E+03  0.00000000000E+00 0. -1.
         25    2    1    2    0    0 -0.48862588581E+02 -0.72346840681E+01 -0.69707875492E+02  0.15140598170E+03  0.12499876068E+03 0.  0.
          2    1    1    2  501    0  0.61620043321E+02  0.55801616050E+02 -0.46326164714E+03  0.47066145349E+03  0.00000000000E+00 0. -1.
          1    1    1    2  502    0 -0.12757454739E+02 -0.48566931982E+02 -0.19812931604E+02  0.53981958026E+02  0.00000000000E+00 0. -1.
         22    1    3    3    0    0  0.26006412295E+02 -0.43872130928E+02 -0.24445373063E+02  0.56556817598E+02  0.00000000000E+00 0.  1.
         22    1    3    3    0    0 -0.74869000876E+02  0.36637446860E+02 -0.45262502429E+02  0.94849164102E+02  0.00000000000E+00 0.  1.
</event>
<event>
 7    1  0.6103724E-006  0.6445654E+02  0.7818608E-02  0.1473635E+00
          2   -1    0    0  502    0  0.00000000000E+00  0.00000000000E+00  0.90945072020E+03  0.90945072020E+03  0.00000000000E+00 0. -1.
          1   -1    0    0  501    0 -0.00000000000E+00 -0.00000000000E+00 -0.15625493538E+03  0.15625493538E+03  0.00000000000E+00 0. -1.
         25    2    1    2    0    0  0.57470664310E+02  0.56131218266E+01  0.34054501072E+03  0.36732855747E+03  0.12499992165E+03 0.  0.
          2    1    1    2  501    0 -0.59336720193E+02  0.25906775885E+02 -0.13504933473E+03  0.14976758732E+03  0.00000000000E+00 0. -1.
          1    1    1    2  502    0  0.18660558829E+01 -0.31519897711E+02  0.54770010883E+03  0.54860951079E+03  0.00000000000E+00 0. -1.
         22    1    3    3    0    0  0.64263513362E+02  0.49213178797E+02  0.28565290023E+03  0.29689950409E+03  0.00000000000E+00 0.  1.
         22    1    3    3    0    0 -0.67928490528E+01 -0.43600056970E+02  0.54892110490E+02  0.70429053381E+02  0.00000000000E+00 0.  1.
</event>
<event>
 7    1  0.6103724E-006  0.1244780E+03  0.7818608E-02  0.1274127E+00
          2   -1    0    0  502    0  0.00000000000E+00  0.00000000000E+00  0.28022500726E+03  0.28022500726E+03  0.00000000000E+00 0. -1.
          1   -1    0    0  501    0 -0.00000000000E+00 -0.00000000000E+00 -0.10879993352E+04  0.10879993352E+04  0.00000000000E+00 0. -1.
         25    2    1    2    0    0 -0.93023940333E+01  0.70274527236E+02 -0.31516321979E+03  0.34637871405E+03  0.12500125890E+03 0.  0.
          2    1    1    2  501    0  0.57762895066E+02 -0.14036820277E+03 -0.74248467296E+03  0.75784119311E+03  0.00000000000E+00 0. -1.
          1    1    1    2  502    0 -0.48460501033E+02  0.70093675538E+02  0.24987356476E+03  0.26400443534E+03  0.00000000000E+00 0. -1.
         22    1    3    3    0    0  0.38208648057E+02 -0.60879386867E+01 -0.17942657465E+03  0.18355070001E+03  0.00000000000E+00 0. -1.
         22    1    3    3    0    0 -0.47511042091E+02  0.76362465923E+02 -0.13573664515E+03  0.16282801405E+03  0.00000000000E+00 0. -1.
</event>
<event>
 7    1  0.6103724E-006  0.5370712E+02  0.7818608E-02  0.1489009E+00
          2   -1    0    0  502    0  0.00000000000E+00  0.00000000000E+00  0.34730066167E+02  0.34730066167E+02  0.00000000000E+00 0. -1.
          1   -1    0    0  501    0 -0.00000000000E+00 -0.00000000000E+00 -0.11022258736E+04  0.11022258736E+04  0.00000000000E+00 0. -1.
         25    2    1    2    0    0 -0.15937182112E+02 -0.59789948820E+02 -0.83419213903E+03  0.84577185520E+03  0.12499869788E+03 0.  0.
          2    1    1    2  501    0 -0.24133108342E+02  0.23952562375E+02 -0.23495296890E+03  0.23740056815E+03  0.00000000000E+00 0. -1.
          1    1    1    2  502    0  0.40070290454E+02  0.35837386445E+02  0.16493005146E+01  0.53783516401E+02  0.00000000000E+00 0. -1.
         22    1    3    3    0    0 -0.45371554138E+02  0.22341501229E+02 -0.37140415103E+03  0.37483164755E+03  0.00000000000E+00 0. -1.
         22    1    3    3    0    0  0.29434372026E+02 -0.82131450049E+02 -0.46278798801E+03  0.47094020765E+03  0.00000000000E+00 0. -1.
</event>
<event>
 7    1  0.6103724E-006  0.1659699E+03  0.7818608E-02  0.1368702E+00
          2   -1    0    0  502    0  0.00000000000E+00  0.00000000000E+00  0.42642275576E+03  0.42642275576E+03  0.00000000000E+00 0. -1.
          1   -1    0    0  501    0 -0.00000000000E+00 -0.00000000000E+00 -0.12060000146E+04  0.12060000146E+04  0.00000000000E+00 0. -1.
         25    2    1    2    0    0 -0.67817395487E+02 -0.12220201337E+03  0.23922413557E+03  0.30395064148E+03  0.12500109686E+03 0.  0.
          2    1    1    2  501    0  0.74902363971E+02  0.14874900038E+03 -0.11664547584E+04  0.11782840628E+04  0.00000000000E+00 0. -1.
          1    1    1    2  502    0 -0.70849684843E+01 -0.26546987012E+02  0.14765336399E+03  0.15018806609E+03  0.00000000000E+00 0. -1.
         22    1    3    3    0    0 -0.24559063274E+02 -0.10970280447E+03  0.78693032543E+02  0.13722407321E+03  0.00000000000E+00 0.  1.
         22    1    3    3    0    0 -0.43258332213E+02 -0.12499208903E+02  0.16053110303E+03  0.16672656827E+03  0.00000000000E+00 0.  1.
</event>
<event>
 7    1  0.6103724E-006  0.1488045E+03  0.7818608E-02  0.1280496E+00
          2   -1    0    0  502    0  0.00000000000E+00  0.00000000000E+00  0.98126359962E+03  0.98126359962E+03  0.00000000000E+00 0. -1.
          1   -1    0    0  501    0 -0.00000000000E+00 -0.00000000000E+00 -0.11838682521E+03  0.11838682521E+03  0.00000000000E+00 0. -1.
         25    2    1    2    0    0  0.57105922031E+02 -0.18175441951E+03  0.52436421878E+03  0.57173224544E+03  0.12499668473E+03 0.  0.
          2    1    1    2  501    0  0.69612242228E+01  0.66712304820E+02 -0.71049286820E+02  0.97708706954E+02  0.00000000000E+00 0. -1.
          1    1    1    2  502    0 -0.64067146254E+02  0.11504211469E+03  0.40956184245E+03  0.43020947244E+03  0.00000000000E+00 0. -1.
         22    1    3    3    0    0 -0.18635131742E+02 -0.14022972651E+03  0.32190260409E+03  0.35161474778E+03  0.00000000000E+00 0. -1.
         22    1    3    3    0    0  0.75741053773E+02 -0.41524693007E+02  0.20246161469E+03  0.22011749767E+03  0.00000000000E+00 0. -1.
</event>
<event>
 7    1  0.7820033E-006  0.8923481E+02  0.7818608E-02  0.1339681E+00
          2   -1    0    0  502    0  0.00000000000E+00  0.00000000000E+00  0.69712849578E+03  0.69712849578E+03  0.00000000000E+00 0. -1.
          1   -1    0    0  501    0 -0.00000000000E+00 -0.00000000000E+00 -0.31277159167E+04  0.31277159167E+04  0.00000000000E+00 0. -1.
         25    2    1    2    0    0 -0.57525708354E+02 -0.64891325232E+02 -0.89795889807E+03  0.91075446722E+03  0.12499370276E+03 0.  0.
          2    1    1    2  501    0 -0.16367758482E+01  0.92670188478E+02 -0.22208443239E+04  0.22227775313E+04  0.00000000000E+00 0. -1.
          1    1    1    2  502    0  0.59162484203E+02 -0.27778863245E+02  0.68821580106E+03  0.69131241390E+03  0.00000000000E+00 0. -1.
         22    1    3    3    0    0 -0.62273733228E+02 -0.20920486255E+02 -0.80642153351E+03  0.80909293304E+03  0.00000000000E+00 0.  1.
         22    1    3    3    0    0  0.47480248738E+01 -0.43970838977E+02 -0.91537364566E+02  0.10166153418E+03  0.00000000000E+00 0.  1.
</event>
<event>
 7    1  0.6103724E-006  0.7350481E+02  0.7818608E-02  0.1508104E+00
          2   -1    0    0  502    0  0.00000000000E+00  0.00000000000E+00  0.14765031277E+04  0.14765031277E+04  0.00000000000E+00 0. -1.
          1   -1    0    0  501    0 -0.00000000000E+00 -0.00000000000E+00 -0.10275810487E+02  0.10275810487E+02  0.00000000000E+00 0. -1.
         25    2    1    2    0    0  0.56953579595E+02  0.62929081980E+02  0.91402161826E+03  0.92642574137E+03  0.12500142414E+03 0.  0.
          2    1    1    2  501    0 -0.38896452690E+01 -0.21433147997E+02  0.23871378576E+03  0.23970561255E+03  0.00000000000E+00 0. -1.
          1    1    1    2  502    0 -0.53063934326E+02 -0.41495933984E+02  0.31349191322E+03  0.32064758430E+03  0.00000000000E+00 0. -1.
         22    1    3    3    0    0 -0.42705119031E+01  0.54381668505E+02  0.73519271780E+03  0.73721362945E+03  0.00000000000E+00 0. -1.
         22    1    3    3    0    0  0.61224091498E+02  0.85474134754E+01  0.17882890046E+03  0.18921211192E+03  0.00000000000E+00 0. -1.
</event>
<event>
 7    1  0.6103724E-006  0.1211756E+03  0.7818608E-02  0.1320965E+00
          2   -1    0    0  502    0  0.00000000000E+00  0.00000000000E+00  0.75027618905E+03  0.75027618905E+03  0.00000000000E+00 0. -1.
          1   -1    0    0  501    0 -0.00000000000E+00 -0.00000000000E+00 -0.40531973703E+03  0.40531973703E+03  0.00000000000E+00 0. -1.
         25    2    1    2    0    0  0.15019429077E+03  0.15063030523E+02  0.37023790874E+02  0.19945194112E+03  0.12500038343E+03 0.  0.
          2    1    1    2  501    0 -0.11540407824E+03  0.29761010258E+02 -0.31180947361E+03  0.33380977643E+03  0.00000000000E+00 0. -1.
          1    1    1    2  502    0 -0.34790212536E+02 -0.44824040781E+02  0.61974213476E+03  0.62233420854E+03  0.00000000000E+00 0. -1.
         22    1    3    3    0    0  0.33684805432E+02  0.13175829637E+02  0.69618875247E+02  0.78454167476E+02  0.00000000000E+00 0.  1.
         22    1    3    3    0    0  0.11650948534E+03  0.18872008863E+01 -0.32595084373E+02  0.12099777365E+03  0.00000000000E+00 0.  1.
</event>
<event>
 7    1  0.6103724E-006  0.8886112E+02  0.7818608E-02  0.1364403E+00
          2   -1    0    0  502    0  0.00000000000E+00  0.00000000000E+00  0.74677235245E+03  0.74677235245E+03  0.00000000000E+00 0. -1.
          1   -1    0    0  501    0 -0.00000000000E+00 -0.00000000000E+00 -0.45375174963E+02  0.45375174963E+02  0.00000000000E+00 0. -1.
         25    2    1    2    0    0 -0.69562592241E+00 -0.61474866273E+02  0.24707902264E+03  0.28364082077E+03  0.12499771479E+03 0.  0.
          2    1    1    2  501    0 -0.43111930786E+02  0.91637421312E+02  0.76384701850E+02  0.12684903720E+03  0.00000000000E+00 0. -1.
          1    1    1    2  502    0  0.43807556709E+02 -0.30162555039E+02  0.37793345300E+03  0.38165766944E+03  0.00000000000E+00 0. -1.
         22    1    3    3    0    0 -0.70477417048E+01  0.35005281866E+02  0.32498467507E+02  0.48282406858E+02  0.00000000000E+00 0. -1.
         22    1    3    3    0    0  0.63521157824E+01 -0.96480148139E+02  0.21458055513E+03  0.23535841392E+03  0.00000000000E+00 0. -1.
</event>
<event>
 7    1  0.6103724E-006  0.1276965E+03  0.7818608E-02  0.1306076E+00
          2   -1    0    0  502    0  0.00000000000E+00  0.00000000000E+00  0.49651657058E+04  0.49651657058E+04  0.00000000000E+00 0. -1.
          1   -1    0    0  501    0 -0.00000000000E+00 -0.00000000000E+00 -0.71832483777E+03  0.71832483777E+03  0.00000000000E+00 0. -1.
         25    2    1    2    0    0 -0.86404043602E+02  0.50173886920E+02  0.22743740107E+04  0.22799939714E+04  0.12494915655E+03 0.  0.
          2    1    1    2  501    0 -0.17204673787E+02  0.59134819905E+02 -0.71207496526E+03  0.71473329562E+03  0.00000000000E+00 0. -1.
          1    1    1    2  502    0  0.10360871739E+03 -0.10930870682E+03  0.26845418226E+04  0.26887632765E+04  0.00000000000E+00 0. -1.
         22    1    3    3    0    0 -0.11262587665E+03  0.63788052440E+02  0.17431051166E+04  0.17479041596E+04  0.00000000000E+00 0. -1.
         22    1    3    3    0    0  0.26221833045E+02 -0.13614165520E+02  0.53126889408E+03  0.53208981183E+03  0.00000000000E+00 0. -1.
</event>
<event>
 7    1  0.6103724E-006  0.5179242E+02  0.7818608E-02  0.1526248E+00
          2   -1    0    0  502    0  0.00000000000E+00  0.00000000000E+00  0.27243351413E+04  0.27243351413E+04  0.00000000000E+00 0. -1.
          1   -1    0    0  501    0 -0.00000000000E+00 -0.00000000000E+00 -0.94306845307E+01  0.94306845307E+01  0.00000000000E+00 0. -1.
         25    2    1    2    0    0  0.27537985203E+02 -0.80992030162E+01  0.96865990427E+03  0.97711405604E+03  0.12500372252E+03 0.  0.
          2    1    1    2  501    0  0.26653806208E+02  0.62215284167E+01  0.34453051286E+02  0.44001653879E+02  0.00000000000E+00 0. -1.
          1    1    1    2  502    0 -0.54191791411E+02  0.18776745994E+01  0.17117915012E+04  0.17126501159E+04  0.00000000000E+00 0. -1.
         22    1    3    3    0    0 -0.95310729664E+01  0.17256941223E+02  0.85016488168E+03  0.85039342037E+03  0.00000000000E+00 0. -1.
         22    1    3    3    0    0  0.37069058169E+02 -0.25356144239E+02  0.11849502260E+03  0.12672063567E+03  0.00000000000E+00 0. -1.
</event>
<event>
 7    1  0.6103724E-006  0.4490314E+02  0.7818608E-02  0.1583123E+00
          2   -1    0    0  502    0  0.00000000000E+00  0.00000000000E+00  0.74239259635E+03  0.74239259635E+03  0.00000000000E+00 0. -1.
          1   -1    0    0  501    0 -0.00000000000E+00 -0.00000000000E+00 -0.14416427141E+03  0.14416427141E+03  0.00000000000E+00 0. -1.
         25    2    1    2    0    0  0.63462925548E+02  0.17279840873E+02  0.19061888762E+03  0.23724845241E+03  0.12500052814E+03 0.  0.
          2    1    1    2  501    0 -0.41546508668E+02 -0.15966374139E+02 -0.11651369690E+03  0.12472561506E+03  0.00000000000E+00 0. -1.
          1    1    1    2  502    0 -0.21916416881E+02 -0.13134667336E+01  0.52412313422E+03  0.52458280028E+03  0.00000000000E+00 0. -1.
         22    1    3    3    0    0 -0.13681396888E+02 -0.41265456555E+02  0.72120140146E+02  0.84210053677E+02  0.00000000000E+00 0.  1.
         22    1    3    3    0    0  0.77144322437E+02  0.58545297428E+02  0.11849874747E+03  0.15303839874E+03  0.00000000000E+00 0.  1.
</event>
<event>
 7    1  0.6103724E-006  0.9614649E+02  0.7818608E-02  0.1323413E+00
          2   -1    0    0  502    0  0.00000000000E+00  0.00000000000E+00  0.15887517967E+04  0.15887517967E+04  0.00000000000E+00 0. -1.
          1   -1    0    0  501    0 -0.00000000000E+00 -0.00000000000E+00 -0.11554751244E+04  0.11554751244E+04  0.00000000000E+00 0. -1.
         25    2    1    2    0    0 -0.78841133413E+02  0.93849162413E+02  0.22777443366E+02  0.17655159433E+03  0.12501225513E+03 0.  0.
          2    1    1    2  501    0  0.92655699960E+02 -0.25256526708E+02 -0.10756255468E+04  0.10799042956E+04  0.00000000000E+00 0. -1.
          1    1    1    2  502    0 -0.13814566547E+02 -0.68592635706E+02  0.14861247757E+04  0.14877710311E+04  0.00000000000E+00 0. -1.
         22    1    3    3    0    0 -0.68237832109E+01  0.76808605659E+02 -0.33004481469E+02  0.83877420785E+02  0.00000000000E+00 0. -1.
         22    1    3    3    0    0 -0.72017350202E+02  0.17040556755E+02  0.55781924835E+02  0.92674173549E+02  0.00000000000E+00 0. -1.
</event>
<event>
 7    1  0.6103724E-006  0.7467516E+02  0.7818608E-02  0.1390217E+00
          2   -1    0    0  502    0  0.00000000000E+00  0.00000000000E+00  0.22257287493E+04  0.22257287493E+04  0.00000000000E+00 0. -1.
          1   -1    0    0  501    0 -0.00000000000E+00 -0.00000000000E+00 -0.25940454257E+03  0.25940454257E+03  0.00000000000E+00 0. -1.
         25    2    1    2    0    0  0.26520430421E+02 -0.14173632633E+02  0.44409797469E+02  0.13602043409E+03  0.12500041315E+03 0.  0.
          2    1    1    2  501    0 -0.77638133393E+02  0.10752778272E+02 -0.20609030034E+03  0.22049152794E+03  0.00000000000E+00 0. -1.
          1    1    1    2  502    0  0.51117702972E+02  0.34208543607E+01  0.21280047095E+04  0.21286213298E+04  0.00000000000E+00 0. -1.
         22    1    3    3    0    0  0.26347733827E+02 -0.39108411433E+02 -0.31108064086E+02  0.56492323141E+02  0.00000000000E+00 0.  1.
         22    1    3    3    0    0  0.17269659429E+00  0.24934778801E+02  0.75517861556E+02  0.79528110954E+02  0.00000000000E+00 0.  1.
</event>
<event>
 7    1  0.6103724E-006  0.6543837E+02  0.7818608E-02  0.1406583E+00
          2   -1    0    0  502    0  0.00000000000E+00  0.00000000000E+00  0.10429633895E+04  0.10429633895E+04  0.00000000000E+00 0. -1.
          1   -1    0    0  501    0 -0.00000000000E+00 -0.00000000000E+00 -0.80347052351E+02  0.80347052351E+02  0.00000000000E+00 0. -1.
         25    2    1    2    0    0 -0.27919118287E+02  0.52479442603E+01  0.10497283145E+03  0.16568447891E+03  0.12500013250E+03 0.  0.
          2    1    1    2  501    0  0.69343600378E+02  0.25084149387E+02 -0.21635322303E+02  0.76849441345E+02  0.00000000000E+00 0. -1.
          1    1    1    2  502    0 -0.41424482091E+02 -0.30332093647E+02  0.87927882804E+03  0.88077652163E+03  0.00000000000E+00 0. -1.
         22    1    3    3    0    0 -0.20713354131E+02 -0.32208886156E+02  0.11902586963E+03  0.12503444737E+03  0.00000000000E+00 0. -1.
         22    1    3    3    0    0 -0.72057641553E+01  0.37456830416E+02 -0.14053038187E+02  0.40650031539E+02  0.00000000000E+00 0. -1.
</event>
<event>
 7    1  0.6103724E-006  0.9350884E+02  0.7818608E-02  0.1298290E+00
          2   -1    0    0  502    0  0.00000000000E+00  0.00000000000E+00  0.80935333621E+03  0.80935333621E+03  0.00000000000E+00 0. -1.
          1   -1    0    0  501    0 -0.00000000000E+00 -0.00000000000E+00 -0.48294124101E+03  0.48294124101E+03  0.00000000000E+00 0. -1.
         25    2    1    2    0    0  0.22933149367E+02  0.10357889132E+02 -0.81223472710E+01  0.12776563802E+03  0.12499948210E+03 0.  0.
          2    1    1    2  501    0 -0.16653225828E+02 -0.10047895538E+03 -0.40596143487E+03  0.41854275410E+03  0.00000000000E+00 0. -1.
          1    1    1    2  502    0 -0.62799235383E+01  0.90121066251E+02  0.74049587733E+03  0.74598618511E+03  0.00000000000E+00 0. -1.
         22    1    3    3    0    0  0.75251193535E+00  0.63330240449E+02 -0.24717872039E+02  0.67987196057E+02  0.00000000000E+00 0.  1.
         22    1    3    3    0    0  0.22180637431E+02 -0.52972351317E+02  0.16595524768E+02  0.59778441960E+02  0.00000000000E+00 0.  1.
</event>
<event>
 7    1  0.6103724E-006  0.5685218E+02  0.7818608E-02  0.1476281E+00
          2   -1    0    0  502    0  0.00000000000E+00  0.00000000000E+00  0.79210097476E+02  0.79210097476E+02  0.00000000000E+00 0. -1.
          1   -1    0    0  501    0 -0.00000000000E+00 -0.00000000000E+00 -0.36493405441E+03  0.36493405441E+03  0.00000000000E+00 0. -1.
         25    2    1    2    0    0  0.40940720505E+02  0.35428740608E+02 -0.36184368832E+01  0.13627129622E+03  0.12500173932E+03 0.  0.
          2    1    1    2  501    0 -0.21596215751E+02  0.27708811577E+02 -0.19723281345E+03  0.20033710958E+03  0.00000000000E+00 0. -1.
          1    1    1    2  502    0 -0.19344504754E+02 -0.63137552185E+02 -0.84872706604E+02  0.10753574609E+03  0.00000000000E+00 0. -1.
         22    1    3    3    0    0  0.61342042655E+02 -0.12057257606E+02  0.35098521969E+02  0.71694699264E+02  0.00000000000E+00 0. -1.
         22    1    3    3    0    0 -0.20401322150E+02  0.47485998214E+02 -0.38716958852E+02  0.64576596957E+02  0.00000000000E+00 0. -1.
</event>
<event>
 7    1  0.6103724E-006  0.8323443E+02  0.7818608E-02  0.1424907E+00
          2   -1    0    0  502    0  0.00000000000E+00  0.00000000000E+00  0.31307196369E+03  0.31307196369E+03  0.00000000000E+00 0. -1.
          1   -1    0    0  501    0 -0.00000000000E+00 -0.00000000000E+00 -0.13423633236E+04  0.13423633236E+04  0.00000000000E+00 0. -1.
         25    2    1    2    0    0 -0.93573433301E+02 -0.24835903525E+02  0.21989193448E+03  0.27083367991E+03  0.12500243916E+03 0.  0.
          2    1    1    2  501    0  0.31334800860E+02 -0.15656466297E+02 -0.12962279871E+04  0.12967011951E+04  0.00000000000E+00 0. -1.
          1    1    1    2  502    0  0.62238632441E+02  0.40492369822E+02  0.47044692693E+02  0.87900412357E+02  0.00000000000E+00 0. -1.
         22    1    3    3    0    0 -0.11845638552E+03  0.53745898685E+01  0.15681057508E+03  0.19659694286E+03  0.00000000000E+00 0.  1.
         22    1    3    3    0    0  0.24882952219E+02 -0.30210493394E+02  0.63081359409E+02  0.74236737045E+02  0.00000000000E+00 0.  1.
</event>
<event>
 7    1  0.6103724E-006  0.7622965E+02  0.7818608E-02  0.1439132E+00
          2   -1    0    0  502    0  0.00000000000E+00  0.00000000000E+00  0.40590158069E+03  0.40590158069E+03  0.00000000000E+00 0. -1.
          1   -1    0    0  501    0 -0.00000000000E+00 -0.00000000000E+00 -0.11029969663E+03  0.11029969663E+03  0.00000000000E+00 0. -1.
         25    2    1    2    0    0  0.95379461837E+02 -0.27417537816E+02  0.86860658389E+02  0.18170746766E+03  0.12499546675E+03 0.  0.
          2    1    1    2  501    0 -0.21298997882E+02  0.26947257108E+02 -0.52618800181E+02  0.62837410106E+02  0.00000000000E+00 0. -1.
          1    1    1    2  502    0 -0.74080463955E+02  0.47028070808E+00  0.26136002586E+03  0.27165639955E+03  0.00000000000E+00 0. -1.
         22    1    3    3    0    0  0.80742038663E+02  0.79055455987E+01 -0.59331475482E+01  0.81344801299E+02  0.00000000000E+00 0. -1.
         22    1    3    3    0    0  0.14637423174E+02 -0.35323083415E+02  0.92793805938E+02  0.10036266636E+03  0.00000000000E+00 0. -1.
</event>
<event>
 7    1  0.6103724E-006  0.2837422E+02  0.7818608E-02  0.1629745E+00
          2   -1    0    0  502    0  0.00000000000E+00  0.00000000000E+00  0.19340394588E+04  0.19340394588E+04  0.00000000000E+00 0. -1.
          1   -1    0    0  501    0 -0.00000000000E+00 -0.00000000000E+00 -0.83587963123E+02  0.83587963123E+02  0.00000000000E+00 0. -1.
         25    2    1    2    0    0  0.53365234986E+02  0.31695360207E+01  0.16322446869E+03  0.21243693891E+03  0.12501732510E+03 0.  0.
          2    1    1    2  501    0 -0.26010420325E+02  0.39340324365E+01 -0.55928282760E+02  0.61806078902E+02  0.00000000000E+00 0. -1.
          1    1    1    2  502    0 -0.27354814661E+02 -0.71035684572E+01  0.17431553098E+04  0.17433844041E+04  0.00000000000E+00 0. -1.
         22    1    3    3    0    0  0.16564711443E+02 -0.39216889790E+02  0.30149798114E+01  0.42678381100E+02  0.00000000000E+00 0.  1.
         22    1    3    3    0    0  0.36800523543E+02  0.42386425811E+02  0.16020948887E+03  0.16975855782E+03  0.00000000000E+00 0.  1.
</event>
<event>
 7    1  0.6103724E-006  0.4121682E+02  0.7818608E-02  0.1577932E+00
          2   -1    0    0  502    0  0.00000000000E+00  0.00000000000E+00  0.34614381490E+03  0.34614381490E+03  0.00000000000E+00 0. -1.
          1   -1    0    0  501    0 -0.00000000000E+00 -0.00000000000E+00 -0.47843831133E+03  0.47843831133E+03  0.00000000000E+00 0. -1.
         25    2    1    2    0    0  0.26768697926E+02  0.49931027265E+01  0.24914571035E+02  0.13033473141E+03  0.12499964840E+03 0.  0.
          2    1    1    2  501    0 -0.29048801445E+02 -0.29585497419E+02 -0.42414729021E+03  0.42616904898E+03  0.00000000000E+00 0. -1.
          1    1    1    2  502    0  0.22801035191E+01  0.24592394693E+02  0.26693822274E+03  0.26807834584E+03  0.00000000000E+00 0. -1.
         22    1    3    3    0    0 -0.47841932066E+02  0.17727108493E+02  0.12640215216E+01  0.51036247802E+02  0.00000000000E+00 0. -1.
         22    1    3    3    0    0  0.74610629992E+02 -0.12734005766E+02  0.23650549514E+02  0.79298483611E+02  0.00000000000E+00 0. -1.
</event>
<event>
 7    1  0.6332392E-006  0.1073710E+03  0.7818608E-02  0.1366700E+00
          2   -1    0    0  502    0  0.00000000000E+00  0.00000000000E+00  0.92600904661E+03  0.92600904661E+03  0.00000000000E+00 0. -1.
          1   -1    0    0  501    0 -0.00000000000E+00 -0.00000000000E+00 -0.18996683316E+04  0.18996683316E+04  0.00000000000E+00 0. -1.
         25    2    1    2    0    0 -0.45541921532E+02 -0.94983058361E+02 -0.72871364180E+03  0.74682200427E+03  0.12499474517E+03 0.  0.
          2    1    1    2  501    0 -0.35541153612E+02  0.24528569257E+02 -0.11583509734E+04  0.11591556418E+04  0.00000000000E+00 0. -1.
          1    1    1    2  502    0  0.81083075143E+02  0.70454489104E+02  0.91340533019E+03  0.91969973216E+03  0.00000000000E+00 0. -1.
         22    1    3    3    0    0  0.33158519804E+02 -0.29423611333E+02 -0.94394353673E+02  0.10428581085E+03  0.00000000000E+00 0. -1.
         22    1    3    3    0    0 -0.78700441335E+02 -0.65559447027E+02 -0.63431928813E+03  0.64253619342E+03  0.00000000000E+00 0. -1.
</event>
<event>
 7    1  0.6103724E-006  0.1182541E+03  0.7818608E-02  0.1256096E+00
          2   -1    0    0  502    0  0.00000000000E+00  0.00000000000E+00  0.32886269580E+04  0.32886269580E+04  0.00000000000E+00 0. -1.
          1   -1    0    0  501    0 -0.00000000000E+00 -0.00000000000E+00 -0.30974690568E+03  0.30974690568E+03  0.00000000000E+00 0. -1.
         25    2    1    2    0    0 -0.89509784970E+02 -0.17211017124E+03  0.10253442653E+04  0.10509991069E+04  0.12503738533E+03 0.  0.
          2    1    1    2  501    0  0.88395059658E+02  0.60176834172E+02 -0.28584797560E+03  0.30519502469E+03  0.00000000000E+00 0. -1.
          1    1    1    2  502    0  0.11147253115E+01  0.11193333706E+03  0.22393837626E+04  0.22421797321E+04  0.00000000000E+00 0. -1.
         22    1    3    3    0    0 -0.38723633768E+02 -0.14307606418E+03  0.90648757559E+03  0.91852599564E+03  0.00000000000E+00 0.  1.
         22    1    3    3    0    0 -0.50786151202E+02 -0.29034107056E+02  0.11885668966E+03  0.13247311125E+03  0.00000000000E+00 0.  1.
</event>
<event>
 7    1  0.6103724E-006  0.1293812E+03  0.7818608E-02  0.1249313E+00
          2   -1    0    0  502    0  0.00000000000E+00  0.00000000000E+00  0.15961498951E+04  0.15961498951E+04  0.00000000000E+00 0. -1.
          1   -1    0    0  501    0 -0.00000000000E+00 -0.00000000000E+00 -0.20922522996E+03  0.20922522996E+03  0.00000000000E+00 0. -1.
         25    2    1    2    0    0 -0.39989310018E+02 -0.22471096226E+03  0.48951538731E+03  0.55438639390E+03  0.12499919144E+03 0.  0.
          2    1    1    2  501    0  0.34611120390E+02  0.12029110624E+03 -0.15170436745E+03  0.19667764235E+03  0.00000000000E+00 0. -1.
          1    1    1    2  502    0  0.53781896277E+01  0.10441985602E+03  0.10491136453E+04  0.10543110888E+04  0.00000000000E+00 0. -1.
         22    1    3    3    0    0  0.94478637297E+01 -0.60071720033E+02  0.26350531319E+03  0.27043099629E+03  0.00000000000E+00 0. -1.
         22    1    3    3    0    0 -0.49437173747E+02 -0.16463924223E+03  0.22601007411E+03  0.28395539761E+03  0.00000000000E+00 0. -1.
</event>
<event>
 7    1  0.6103724E-006  0.9471828E+02  0.7818608E-02  0.1363014E+00
          2   -1    0    0  502    0  0.00000000000E+00  0.00000000000E+00  0.17590939964E+04  0.17590939964E+04  0.00000000000E+00 0. -1.
          1   -1    0    0  501    0 -0.00000000000E+00 -0.00000000000E+00 -0.50481439671E+03  0.50481439671E+03  0.00000000000E+00 0. -1.
         25    2    1    2    0    0 -0.28926003044E+02 -0.13899101944E+03  0.24395444465E+02  0.19072510800E+03  0.12500284786E+03 0.  0.
          2    1    1    2  501    0  0.26760262760E+02  0.88556509158E+02 -0.41618362555E+03  0.42634162024E+03  0.00000000000E+00 0. -1.
          1    1    1    2  502    0  0.21657402832E+01  0.50434510280E+02  0.16460677808E+04  0.16468416649E+04  0.00000000000E+00 0. -1.
         22    1    3    3    0    0  0.16852486254E+02  0.78275512353E+01  0.31718808853E+02  0.36760844472E+02  0.00000000000E+00 0.  1.
         22    1    3    3    0    0 -0.45778489297E+02 -0.14681857067E+03 -0.73233643876E+01  0.15396426353E+03  0.00000000000E+00 0.  1.
</event>
<event>
 7    1  0.6103724E-006  0.1029239E+03  0.7818608E-02  0.1333707E+00
          2   -1    0    0  502    0  0.00000000000E+00  0.00000000000E+00  0.36409557851E+03  0.36409557851E+03  0.00000000000E+00 0. -1.
          1   -1    0    0  501    0 -0.00000000000E+00 -0.00000000000E+00 -0.19433511837E+04  0.19433511837E+04  0.00000000000E+00 0. -1.
         25    2    1    2    0    0 -0.38023016902E+02  0.27982309013E+02 -0.15828956548E+03  0.20715502855E+03  0.12501543858E+03 0.  0.
          2    1    1    2  501    0  0.80437490896E+02 -0.69983684228E+02 -0.17563772138E+04  0.17596104181E+04  0.00000000000E+00 0. -1.
          1    1    1    2  502    0 -0.42414473994E+02  0.42001375215E+02  0.33541117409E+03  0.34068131564E+03  0.00000000000E+00 0. -1.
         22    1    3    3    0    0  0.37009047812E+02 -0.12973348299E+02 -0.88507822866E+02  0.96807087006E+02  0.00000000000E+00 0. -1.
         22    1    3    3    0    0 -0.75032064714E+02  0.40955657313E+02 -0.69781742611E+02  0.11034794154E+03  0.00000000000E+00 0. -1.
</event>
<event>
 7    1  0.6103724E-006  0.9760951E+02  0.7818608E-02  0.1367045E+00
          2   -1    0    0  502    0  0.00000000000E+00  0.00000000000E+00  0.10141740682E+03  0.10141740682E+03  0.00000000000E+00 0. -1.
          1   -1    0    0  501    0 -0.00000000000E+00 -0.00000000000E+00 -0.10954823964E+04  0.10954823964E+04  0.00000000000E+00 0. -1.
         25    2    1    2    0    0  0.63905611977E+02  0.18947103822E+02 -0.20841002371E+03  0.25200033253E+03  0.12500603836E+03 0.  0.
          2    1    1    2  501    0  0.38434618432E+02 -0.27682861308E+02 -0.83119541832E+03  0.83254392325E+03  0.00000000000E+00 0. -1.
          1    1    1    2  502    0 -0.10234023041E+03  0.87357574858E+01  0.45540452493E+02  0.11235554740E+03  0.00000000000E+00 0. -1.
         22    1    3    3    0    0  0.45667697735E+02  0.39143778515E+02 -0.21561726987E+03  0.22384946075E+03  0.00000000000E+00 0.  1.
         22    1    3    3    0    0  0.18237914241E+02 -0.20196674693E+02  0.72072461596E+01  0.28150871776E+02  0.00000000000E+00 0.  1.
</event>
<event>
 7    1  0.6103724E-006  0.9572683E+02  0.7818608E-02  0.1391501E+00
          2   -1    0    0  502    0  0.00000000000E+00  0.00000000000E+00  0.52603688075E+03  0.52603688075E+03  0.00000000000E+00 0. -1.
          1   -1    0    0  501    0 -0.00000000000E+00 -0.00000000000E+00 -0.40793048730E+03  0.40793048730E+03  0.00000000000E+00 0. -1.
         25    2    1    2    0    0  0.37572145325E+02  0.91261610899E+02 -0.14860798087E+01  0.15926840177E+03  0.12499547048E+03 0.  0.
          2    1    1    2  501    0 -0.39269429721E+02  0.47498696016E+01 -0.32117034890E+03  0.32359703705E+03  0.00000000000E+00 0. -1.
          1    1    1    2  502    0  0.16972843957E+01 -0.96011480500E+02  0.44076282216E+03  0.45110192924E+03  0.00000000000E+00 0. -1.
         22    1    3    3    0    0  0.79004607782E+02  0.29230464715E+02  0.50300753438E+01  0.84388682749E+02  0.00000000000E+00 0.  1.
         22    1    3    3    0    0 -0.41432462456E+02  0.62031146184E+02 -0.65161551524E+01  0.74879719017E+02  0.00000000000E+00 0.  1.
</event>
<event>
 7    1  0.6103724E-006  0.4522511E+02  0.7818608E-02  0.1493865E+00
          2   -1    0    0  502    0  0.00000000000E+00  0.00000000000E+00  0.75457911407E+03  0.75457911407E+03  0.00000000000E+00 0. -1.
          1   -1    0    0  501    0 -0.00000000000E+00 -0.00000000000E+00 -0.25112306307E+03  0.25112306307E+03  0.00000000000E+00 0. -1.
         25    2    1    2    0    0  0.14075425873E+02 -0.19192066017E+02 -0.12185440752E+03  0.17618014427E+03  0.12499797435E+03 0.  0.
          2    1    1    2  501    0 -0.31858511595E+02 -0.22561687541E+02 -0.97636663355E+02  0.10515185465E+03  0.00000000000E+00 0. -1.
          1    1    1    2  502    0  0.17783085722E+02  0.41753753558E+02  0.72294712188E+03  0.72437017823E+03  0.00000000000E+00 0. -1.
         22    1    3    3    0    0  0.24829624488E+02 -0.62028679918E+02 -0.11278938783E+03  0.13109352918E+03  0.00000000000E+00 0. -1.
         22    1    3    3    0    0 -0.10754198615E+02  0.42836613901E+02 -0.90650196838E+01  0.45086615089E+02  0.00000000000E+00 0. -1.
</event>
<event>
 7    1  0.6103724E-006  0.9624554E+02  0.7818608E-02  0.1304854E+00
          2   -1    0    0  502    0  0.00000000000E+00  0.00000000000E+00  0.58451342530E+03  0.58451342530E+03  0.00000000000E+00 0. -1.
          1   -1    0    0  501    0 -0.00000000000E+00 -0.00000000000E+00 -0.40113494000E+03  0.40113494000E+03  0.00000000000E+00 0. -1.
         25    2    1    2    0    0 -0.96564688046E+01  0.68883388202E+02 -0.11436614445E+03  0.18314696580E+03  0.12500011011E+03 0.  0.
          2    1    1    2  501    0  0.94095746019E+02 -0.22696684513E+02 -0.23865419420E+03  0.25753635339E+03  0.00000000000E+00 0. -1.
          1    1    1    2  502    0 -0.84439277214E+02 -0.46186703689E+02  0.53639882395E+03  0.54496504610E+03  0.00000000000E+00 0. -1.
         22    1    3    3    0    0 -0.40109465493E+02 -0.19098652534E+02 -0.62168706456E+02  0.76409919599E+02  0.00000000000E+00 0. -1.
         22    1    3    3    0    0  0.30452996689E+02  0.87982040737E+02 -0.52197437990E+02  0.10673704620E+03  0.00000000000E+00 0. -1.
</event>
<event>
 7    1  0.9996542E-006  0.8730506E+02  0.7818608E-02  0.1309911E+00
          2   -1    0    0  502    0  0.00000000000E+00  0.00000000000E+00  0.95727053094E+03  0.95727053094E+03  0.00000000000E+00 0. -1.
          1   -1    0    0  501    0 -0.00000000000E+00 -0.00000000000E+00 -0.15513710823E+04  0.15513710823E+04  0.00000000000E+00 0. -1.
         25    2    1    2    0    0 -0.74436004877E+02  0.64019713193E+01 -0.63268666899E+03  0.64923067960E+03  0.12500540051E+03 0.  0.
          2    1    1    2  501    0  0.47776387443E+02 -0.89205945126E+02 -0.90559481218E+03  0.91123117137E+03  0.00000000000E+00 0. -1.
          1    1    1    2  502    0  0.26659617434E+02  0.82803973807E+02  0.94418092983E+03  0.94817976225E+03  0.00000000000E+00 0. -1.
         22    1    3    3    0    0  0.48655083817E+01 -0.24926547751E+02 -0.25159386615E+02  0.35749135506E+02  0.00000000000E+00 0. -1.
         22    1    3    3    0    0 -0.79301513258E+02  0.31328519070E+02 -0.60752728237E+03  0.61348154409E+03  0.00000000000E+00 0. -1.
</event>
<event>
 7    1  0.6103724E-006  0.5917703E+02  0.7818608E-02  0.1454810E+00
          2   -1    0    0  502    0  0.00000000000E+00  0.00000000000E+00  0.23975538764E+04  0.23975538764E+04  0.00000000000E+00 0. -1.
          1   -1    0    0  501    0 -0.00000000000E+00 -0.00000000000E+00 -0.85861739445E+02  0.85861739445E+02  0.00000000000E+00 0. -1.
         25    2    1    2    0    0 -0.21207579958E+02  0.15542072136E+02  0.28979991110E+00  0.12773619739E+03  0.12500053874E+03 0.  0.
          2    1    1    2  501    0 -0.14232445100E+01  0.39374120442E+02 -0.39208898554E+01  0.39594448635E+02  0.00000000000E+00 0. -1.
          1    1    1    2  502    0  0.22630824468E+02 -0.54916192578E+02  0.23153232269E+04  0.23160849698E+04  0.00000000000E+00 0. -1.
         22    1    3    3    0    0  0.12216668123E+02 -0.49257280702E+02 -0.15639040786E+02  0.53104672854E+02  0.00000000000E+00 0. -1.
         22    1    3    3    0    0 -0.33424248080E+02  0.64799352839E+02  0.15928840697E+02  0.74631524532E+02  0.00000000000E+00 0. -1.
</event>
<event>
 7    1  0.6103724E-006  0.5465141E+02  0.7818608E-02  0.1496697E+00
          2   -1    0    0  502    0  0.00000000000E+00  0.00000000000E+00  0.87079261087E+03  0.87079261087E+03  0.00000000000E+00 0. -1.
          1   -1    0    0  501    0 -0.00000000000E+00 -0.00000000000E+00 -0.97902339467E+03  0.97902339467E+03  0.00000000000E+00 0. -1.
         25    2    1    2    0    0  0.21827638372E+02 -0.62419642291E+02  0.60178275451E+02  0.15370984554E+03  0.12503053323E+03 0.  0.
          2    1    1    2  501    0  0.86918061116E+01  0.53928764060E+02 -0.93112836672E+03  0.93272927176E+03  0.00000000000E+00 0. -1.
          1    1    1    2  502    0 -0.30519444483E+02  0.84908782313E+01  0.76271930747E+03  0.76337688824E+03  0.00000000000E+00 0. -1.
         22    1    3    3    0    0  0.20599576978E+02 -0.17426112625E+02 -0.37477856692E+02  0.46180100857E+02  0.00000000000E+00 0.  1.
         22    1    3    3    0    0  0.12280613937E+01 -0.44993529666E+02  0.97656132143E+02  0.10752974468E+03  0.00000000000E+00 0.  1.
</event>
<event>
 7    1  0.6103724E-006  0.1313691E+03  0.7818608E-02  0.1328485E+00
          2   -1    0    0  502    0  0.00000000000E+00  0.00000000000E+00  0.88245379272E+02  0.88245379272E+02  0.00000000000E+00 0. -1.
          1   -1    0    0  501    0 -0.00000000000E+00 -0.00000000000E+00 -0.18606532049E+04  0.18606532049E+04  0.00000000000E+00 0. -1.
         25    2    1    2    0    0 -0.16644732730E+03 -0.47122770179E+02 -0.41296794749E+03  0.46485709103E+03  0.12499728471E+03 0.  0.
          2    1    1    2  501    0  0.48827043080E+02  0.36234473688E+01 -0.13577412540E+04  0.13586237604E+04  0.00000000000E+00 0. -1.
          1    1    1    2  502    0  0.11762028422E+03  0.43499322810E+02 -0.16986240627E+01  0.12541773268E+03  0.00000000000E+00 0. -1.
         22    1    3    3    0    0 -0.18278452743E+03 -0.34759405469E+02 -0.32458677247E+03  0.37413229291E+03  0.00000000000E+00 0. -1.
         22    1    3    3    0    0  0.16337200122E+02 -0.12363364710E+02 -0.88381175023E+02  0.90724798117E+02  0.00000000000E+00 0. -1.
</event>
<event>
 7    1  0.6103724E-006  0.1359133E+03  0.7818608E-02  0.1291880E+00
          2   -1    0    0  502    0  0.00000000000E+00  0.00000000000E+00  0.10492361492E+04  0.10492361492E+04  0.00000000000E+00 0. -1.
          1   -1    0    0  501    0 -0.00000000000E+00 -0.00000000000E+00 -0.17088309637E+03  0.17088309637E+03  0.00000000000E+00 0. -1.
         25    2    1    2    0    0  0.73982086440E+02 -0.31456440828E+02  0.11733769033E+03  0.18935774006E+03  0.12500145344E+03 0.  0.
          2    1    1    2  501    0  0.65293727138E+02 -0.94054381015E+01 -0.12050062076E+03  0.13737588097E+03  0.00000000000E+00 0. -1.
          1    1    1    2  502    0 -0.13927581358E+03  0.40861878929E+02  0.88151598326E+03  0.89338562454E+03  0.00000000000E+00 0. -1.
         22    1    3    3    0    0  0.58366882653E+02 -0.46864538557E+02  0.51331792174E+01  0.75028844411E+02  0.00000000000E+00 0. -1.
         22    1    3    3    0    0  0.15615203787E+02  0.15408097730E+02  0.11220451111E+03  0.11432889564E+03  0.00000000000E+00 0. -1.
</event>
<event>
 7    1  0.6103724E-006  0.3983920E+02  0.7818608E-02  0.1542131E+00
          2   -1    0    0  502    0  0.00000000000E+00  0.00000000000E+00  0.49770448028E+02  0.49770448028E+02  0.00000000000E+00 0. -1.
          1   -1    0    0  501    0 -0.00000000000E+00 -0.00000000000E+00 -0.16618237095E+04  0.16618237095E+04  0.00000000000E+00 0. -1.
         25    2    1    2    0    0 -0.56788862155E+02 -0.33571194724E+02 -0.46722982706E+03  0.48814034354E+03  0.12500113487E+03 0.  0.
          2    1    1    2  501    0  0.31916974359E+02  0.30414944957E+01 -0.11740040467E+04  0.11744417591E+04  0.00000000000E+00 0. -1.
          1    1    1    2  502    0  0.24871887796E+02  0.30529700228E+02  0.29180612213E+02  0.49012054922E+02  0.00000000000E+00 0. -1.
         22    1    3    3    0    0 -0.92898757858E+02 -0.28532172534E+02 -0.40026234595E+03  0.41189101674E+03  0.00000000000E+00 0. -1.
         22    1    3    3    0    0  0.36109895703E+02 -0.50390221897E+01 -0.66967481102E+02  0.76249326800E+02  0.00000000000E+00 0. -1.
</event>
<event>
 7    1  0.6103724E-006  0.1043134E+03  0.7818608E-02  0.1402495E+00
          2   -1    0    0  502    0  0.00000000000E+00  0.00000000000E+00  0.15525315801E+03  0.15525315801E+03  0.00000000000E+00 0. -1.
          1   -1    0    0  501    0 -0.00000000000E+00 -0.00000000000E+00 -0.88238950207E+03  0.88238950207E+03  0.00000000000E+00 0. -1.
         25    2    1    2    0    0 -0.94429776765E+02  0.49978753043E+00 -0.55630874871E+03  0.57794591242E+03  0.12499928506E+03 0.  0.
          2    1    1    2  501    0  0.11198793403E+03 -0.28748459402E+02 -0.30252408276E+03  0.32386508292E+03  0.00000000000E+00 0. -1.
          1    1    1    2  502    0 -0.17558157265E+02  0.28248671871E+02  0.13169648741E+03  0.13583166474E+03  0.00000000000E+00 0. -1.
         22    1    3    3    0    0 -0.53715168821E+01 -0.52253036133E+02 -0.16368776545E+03  0.17190962025E+03  0.00000000000E+00 0.  1.
         22    1    3    3    0    0 -0.89058259883E+02  0.52752823664E+02 -0.39262098327E+03  0.40603629217E+03  0.00000000000E+00 0.  1.
</event>
<event>
 7    1  0.6103724E-006  0.8392415E+02  0.7818608E-02  0.1399572E+00
          2   -1    0    0  502    0  0.00000000000E+00  0.00000000000E+00  0.17250780133E+04  0.17250780133E+04  0.00000000000E+00 0. -1.
          1   -1    0    0  501    0 -0.00000000000E+00 -0.00000000000E+00 -0.95363669504E+03  0.95363669504E+03  0.00000000000E+00 0. -1.
         25    2    1    2    0    0  0.26845052137E+02  0.38753832782E+02  0.30418273667E+03  0.33223767428E+03  0.12502887085E+03 0.  0.
          2    1    1    2  501    0 -0.67593228143E+02 -0.50134984316E+02 -0.93740569785E+03  0.94117575590E+03  0.00000000000E+00 0. -1.
          1    1    1    2  502    0  0.40748176006E+02  0.11381151534E+02  0.14046642794E+04  0.14053012781E+04  0.00000000000E+00 0. -1.
         22    1    3    3    0    0  0.55412766059E+02  0.66197539799E+02  0.15020847722E+03  0.17324917185E+03  0.00000000000E+00 0. -1.
         22    1    3    3    0    0 -0.28567713922E+02 -0.27443707018E+02  0.15397425945E+03  0.15898850244E+03  0.00000000000E+00 0. -1.
</event>
<event>
 7    1  0.6103724E-006  0.6052554E+02  0.7818608E-02  0.1486319E+00
          2   -1    0    0  502    0  0.00000000000E+00  0.00000000000E+00  0.87774860393E+03  0.87774860393E+03  0.00000000000E+00 0. -1.
          1   -1    0    0  501    0 -0.00000000000E+00 -0.00000000000E+00 -0.31290142492E+02  0.31290142492E+02  0.00000000000E+00 0. -1.
         25    2    1    2    0    0 -0.26106473639E+02 -0.22144232680E+02  0.33889802334E+03  0.36283460456E+03  0.12500066015E+03 0.  0.
          2    1    1    2  501    0  0.52748209057E+02  0.37487434119E+02  0.36806381015E+02  0.74447236074E+02  0.00000000000E+00 0. -1.
          1    1    1    2  502    0 -0.26641735418E+02 -0.15343201439E+02  0.47075405708E+03  0.47175690579E+03  0.00000000000E+00 0. -1.
         22    1    3    3    0    0  0.23470523607E+02  0.25207246714E+02  0.27770369316E+02  0.44243238774E+02  0.00000000000E+00 0. -1.
         22    1    3    3    0    0 -0.49576997246E+02 -0.47351479394E+02  0.31112765402E+03  0.31859136579E+03  0.00000000000E+00 0. -1.
</event>
<event>
 7    1  0.6103724E-006  0.1346427E+03  0.7818608E-02  0.1289000E+00
          2   -1    0    0  502    0  0.00000000000E+00  0.00000000000E+00  0.10522664622E+04  0.10522664622E+04  0.00000000000E+00 0. -1.
          1   -1    0    0  501    0 -0.00000000000E+00 -0.00000000000E+00 -0.77006001217E+02  0.77006001217E+02  0.00000000000E+00 0. -1.
         25    2    1    2    0    0  0.79489272297E+02 -0.84989094378E+02  0.38518047583E+03  0.42134369611E+03  0.12499928289E+03 0.  0.
          2    1    1    2  501    0 -0.34942201421E+02  0.13690628320E+03  0.30970099453E+02  0.14464935146E+03  0.00000000000E+00 0. -1.
          1    1    1    2  502    0 -0.44547070875E+02 -0.51917188818E+02  0.55910988568E+03  0.56327941582E+03  0.00000000000E+00 0. -1.
         22    1    3    3    0    0 -0.31779113968E+02 -0.33567622813E+01  0.57374079819E+02  0.65673167829E+02  0.00000000000E+00 0.  1.
         22    1    3    3    0    0  0.11126838627E+03 -0.81632332097E+02  0.32780639601E+03  0.35567052828E+03  0.00000000000E+00 0.  1.
</event>
<event>
 7    1  0.6103724E-006  0.5937492E+02  0.7818608E-02  0.1407017E+00
          2   -1    0    0  502    0  0.00000000000E+00  0.00000000000E+00  0.47274581019E+03  0.47274581019E+03  0.00000000000E+00 0. -1.
          1   -1    0    0  501    0 -0.00000000000E+00 -0.00000000000E+00 -0.38863693528E+03  0.38863693528E+03  0.00000000000E+00 0. -1.
         25    2    1    2    0    0 -0.38354142120E+02 -0.93444719665E+02 -0.34163128923E+02  0.16430148098E+03  0.12499960570E+03 0.  0.
          2    1    1    2  501    0 -0.68654694028E+01  0.55973616653E+02 -0.28450766548E+03  0.29004274194E+03  0.00000000000E+00 0. -1.
          1    1    1    2  502    0  0.45219611523E+02  0.37471103012E+02  0.40277966931E+03  0.40703852255E+03  0.00000000000E+00 0. -1.
         22    1    3    3    0    0 -0.11018971564E+01 -0.96519966204E+02 -0.64557322784E+02  0.11612478624E+03  0.00000000000E+00 0. -1.
         22    1    3    3    0    0 -0.37252244964E+02  0.30752465395E+01  0.30394193861E+02  0.48176694745E+02  0.00000000000E+00 0. -1.
</event>
<event>
 7    1  0.6103724E-006  0.5004892E+02  0.7818608E-02  0.1467708E+00
          2   -1    0    0  502    0  0.00000000000E+00  0.00000000000E+00  0.16022855691E+03  0.16022855691E+03  0.00000000000E+00 0. -1.
          1   -1    0    0  501    0 -0.00000000000E+00 -0.00000000000E+00 -0.17203235172E+03  0.17203235172E+03  0.00000000000E+00 0. -1.
         25    2    1    2    0    0 -0.21378317650E+02  0.36490423624E+02 -0.77147974466E+02  0.15285816358E+03  0.12500089891E+03 0.  0.
          2    1    1    2  501    0  0.56364753794E+02 -0.12491689774E+02 -0.37028613562E+02  0.68586777195E+02  0.00000000000E+00 0. -1.
          1    1    1    2  502    0 -0.34986436144E+02 -0.23998733850E+02  0.10237279321E+03  0.11081596785E+03  0.00000000000E+00 0. -1.
         22    1    3    3    0    0 -0.45773988999E+02  0.73918786069E+02 -0.56095172811E+02  0.10346938395E+03  0.00000000000E+00 0. -1.
         22    1    3    3    0    0  0.24395671349E+02 -0.37428362445E+02 -0.21052801655E+02  0.49388779631E+02  0.00000000000E+00 0. -1.
</event>
<event>
 7    1  0.6103724E-006  0.1095967E+03  0.7818608E-02  0.1280120E+00
          2   -1    0    0  502    0  0.00000000000E+00  0.00000000000E+00  0.15391038984E+04  0.15391038984E+04  0.00000000000E+00 0. -1.
          1   -1    0    0  501    0 -0.00000000000E+00 -0.00000000000E+00 -0.14210216124E+04  0.14210216124E+04  0.00000000000E+00 0. -1.
         25    2    1    2    0    0  0.76715477963E+02  0.16249495040E+03 -0.62259597395E+02  0.22757471041E+03  0.12499647148E+03 0.  0.
          2    1    1    2  501    0 -0.73951198443E+02 -0.53707503314E+02 -0.12724303273E+04  0.12757085144E+04  0.00000000000E+00 0. -1.
          1    1    1    2  502    0 -0.27642795191E+01 -0.10878744709E+03  0.14527722107E+04  0.14568422860E+04  0.00000000000E+00 0. -1.
         22    1    3    3    0    0  0.92545424625E+02  0.95080301516E+02 -0.81485038144E+02  0.15570719571E+03  0.00000000000E+00 0. -1.
         22    1    3    3    0    0 -0.15829946663E+02  0.67414648889E+02  0.19225440748E+02  0.71867514693E+02  0.00000000000E+00 0. -1.
</event>
<event>
 7    1  0.6103724E-006  0.9006258E+02  0.7818608E-02  0.1326534E+00
          2   -1    0    0  502    0  0.00000000000E+00  0.00000000000E+00  0.18143887834E+04  0.18143887834E+04  0.00000000000E+00 0. -1.
          1   -1    0    0  501    0 -0.00000000000E+00 -0.00000000000E+00 -0.12751362466E+03  0.12751362466E+03  0.00000000000E+00 0. -1.
         25    2    1    2    0    0  0.85239001288E+01 -0.21141699275E+02  0.28693957389E+03  0.31381438185E+03  0.12500207546E+03 0.  0.
          2    1    1    2  501    0 -0.55918259071E+02  0.76214614924E+02 -0.93457830178E+02  0.13292812060E+03  0.00000000000E+00 0. -1.
          1    1    1    2  502    0  0.47394358942E+02 -0.55072915649E+02  0.14933934150E+04  0.14951599056E+04  0.00000000000E+00 0. -1.
         22    1    3    3    0    0 -0.11208868916E+02 -0.80125909813E+01 -0.93032055552E+01  0.16624980909E+02  0.00000000000E+00 0. -1.
         22    1    3    3    0    0  0.19732769045E+02 -0.13129108293E+02  0.29624277945E+03  0.29718940094E+03  0.00000000000E+00 0. -1.
</event>
<event>
 7    1  0.6103724E-006  0.4889344E+02  0.7818608E-02  0.1570616E+00
          2   -1    0    0  502    0  0.00000000000E+00  0.00000000000E+00  0.11007584123E+04  0.11007584123E+04  0.00000000000E+00 0. -1.
          1   -1    0    0  501    0 -0.00000000000E+00 -0.00000000000E+00 -0.18603392736E+03  0.18603392736E+03  0.00000000000E+00 0. -1.
         25    2    1    2    0    0  0.60176671483E+02 -0.36945433049E+01  0.67044533413E+02  0.15412618121E+03  0.12500011533E+03 0.  0.
          2    1    1    2  501    0 -0.44705801863E+02  0.19038553116E+02 -0.13822678459E+03  0.14651866504E+03  0.00000000000E+00 0. -1.
          1    1    1    2  502    0 -0.15470869620E+02 -0.15344009811E+02  0.98590673611E+03  0.98614749340E+03  0.00000000000E+00 0. -1.
         22    1    3    3    0    0  0.20895274607E+02 -0.38301974077E+01  0.10038186503E+03  0.10260507658E+03  0.00000000000E+00 0. -1.
         22    1    3    3    0    0  0.39281396876E+02  0.13565410282E+00 -0.33337331618E+02  0.51521104627E+02  0.00000000000E+00 0. -1.
</event>
<event>
 7    1  0.6103724E-006  0.6239918E+02  0.7818608E-02  0.1392335E+00
          2   -1    0    0  502    0  0.00000000000E+00  0.00000000000E+00  0.86429251037E+03  0.86429251037E+03  0.00000000000E+00 0. -1.
          1   -1    0    0  501    0 -0.00000000000E+00 -0.00000000000E+00 -0.20212160456E+03  0.20212160456E+03  0.00000000000E+00 0. -1.
         25    2    1    2    0    0  0.44714852786E+02  0.79090534027E+02 -0.11970055352E+03  0.19547137839E+03  0.12500442642E+03 0.  0.
          2    1    1    2  501    0  0.14171232125E+02 -0.58589213920E+02 -0.22364121668E+02  0.64293652453E+02  0.00000000000E+00 0. -1.
          1    1    1    2  502    0 -0.58886084910E+02 -0.20501320107E+02  0.80423558099E+03  0.80664908409E+03  0.00000000000E+00 0. -1.
         22    1    3    3    0    0  0.29378942531E+02  0.82999449403E+02 -0.14262630666E+03  0.16761352636E+03  0.00000000000E+00 0.  1.
         22    1    3    3    0    0  0.15335910255E+02 -0.39089153756E+01  0.22925753141E+02  0.27857852032E+02  0.00000000000E+00 0.  1.
</event>
<event>
 7    1  0.6103724E-006  0.6541902E+02  0.7818608E-02  0.1390773E+00
          2   -1    0    0  502    0  0.00000000000E+00  0.00000000000E+00  0.33724108156E+04  0.33724108156E+04  0.00000000000E+00 0. -1.
          1   -1    0    0  501    0 -0.00000000000E+00 -0.00000000000E+00 -0.15907244248E+03  0.15907244248E+03  0.00000000000E+00 0. -1.
         25    2    1    2    0    0 -0.79312733739E+02 -0.81964330713E+02  0.72275688697E+02  0.18400913155E+03  0.12500769606E+03 0.  0.
          2    1    1    2  501    0  0.27232444217E+02  0.55940528791E+02 -0.93543123921E+02  0.11234440267E+03  0.00000000000E+00 0. -1.
          1    1    1    2  502    0  0.52080289522E+02  0.26023801922E+02  0.32346058083E+04  0.32351297239E+04  0.00000000000E+00 0. -1.
         22    1    3    3    0    0 -0.36260278942E+02 -0.58794626816E+02 -0.26348558578E+02  0.73931471719E+02  0.00000000000E+00 0. -1.
         22    1    3    3    0    0 -0.43052454796E+02 -0.23169703897E+02  0.98624247275E+02  0.11007765983E+03  0.00000000000E+00 0. -1.
</event>
<event>
 7    1  0.6103724E-006  0.6693053E+02  0.7818608E-02  0.1413491E+00
          2   -1    0    0  502    0  0.00000000000E+00  0.00000000000E+00  0.18483827138E+04  0.18483827138E+04  0.00000000000E+00 0. -1.
          1   -1    0    0  501    0 -0.00000000000E+00 -0.00000000000E+00 -0.80934400364E+03  0.80934400364E+03  0.00000000000E+00 0. -1.
         25    2    1    2    0    0 -0.97618221080E+02  0.23647439433E+01  0.85887496510E+03  0.87340112735E+03  0.12501365716E+03 0.  0.
          2    1    1    2  501    0  0.59428219486E+02 -0.30716044753E+02 -0.80010843993E+03  0.80290018328E+03  0.00000000000E+00 0. -1.
          1    1    1    2  502    0  0.38190001594E+02  0.28351300810E+02  0.98027218501E+03  0.98142540684E+03  0.00000000000E+00 0. -1.
         22    1    3    3    0    0 -0.88745251482E+02  0.15690196538E+01  0.85986842569E+03  0.86443732623E+03  0.00000000000E+00 0. -1.
         22    1    3    3    0    0 -0.88729695977E+01  0.79572428948E+00 -0.99346058416E+00  0.89638011222E+01  0.00000000000E+00 0. -1.
</event>
<event>
 7    1  0.6103724E-006  0.1391225E+03  0.7818608E-02  0.1393932E+00
          2   -1    0    0  502    0  0.00000000000E+00  0.00000000000E+00  0.67283749463E+03  0.67283749463E+03  0.00000000000E+00 0. -1.
          1   -1    0    0  501    0 -0.00000000000E+00 -0.00000000000E+00 -0.13792201460E+04  0.13792201460E+04  0.00000000000E+00 0. -1.
         25    2    1    2    0    0 -0.13847847825E+03  0.83547293048E+02  0.95693484104E+02  0.22569523988E+03  0.12499863715E+03 0.  0.
          2    1    1    2  501    0  0.11183595525E+03 -0.81907771104E+02 -0.13102125500E+04  0.13175253660E+04  0.00000000000E+00 0. -1.
          1    1    1    2  502    0  0.26642523004E+02 -0.16395219445E+01  0.50813641458E+03  0.50883703471E+03  0.00000000000E+00 0. -1.
         22    1    3    3    0    0 -0.50724519360E+02  0.10174166321E+03  0.65053039344E+02  0.13098183395E+03  0.00000000000E+00 0. -1.
         22    1    3    3    0    0 -0.87753958892E+02 -0.18194370164E+02  0.30640444760E+02  0.94713405925E+02  0.00000000000E+00 0. -1.
</event>
<event>
 7    1  0.6103724E-006  0.1492492E+03  0.7818608E-02  0.1246420E+00
          2   -1    0    0  502    0  0.00000000000E+00  0.00000000000E+00  0.22011685556E+04  0.22011685556E+04  0.00000000000E+00 0. -1.
          1   -1    0    0  501    0 -0.00000000000E+00 -0.00000000000E+00 -0.13476982219E+04  0.13476982219E+04  0.00000000000E+00 0. -1.
         25    2    1    2    0    0  0.39679564091E+02  0.13377383305E+03  0.33673515625E+03  0.38533828162E+03  0.12500047845E+03 0.  0.
          2    1    1    2  501    0 -0.92698012917E+02  0.10634880267E+02 -0.13185300313E+04  0.13218273207E+04  0.00000000000E+00 0. -1.
          1    1    1    2  502    0  0.53018448826E+02 -0.14440871332E+03  0.18352652087E+04  0.18417011752E+04  0.00000000000E+00 0. -1.
         22    1    3    3    0    0  0.70285385096E+02  0.41705498554E+02  0.97780485243E+02  0.12743785647E+03  0.00000000000E+00 0.  1.
         22    1    3    3    0    0 -0.30605821005E+02  0.92068334499E+02  0.23895467101E+03  0.25790042515E+03  0.00000000000E+00 0.  1.
</event>
<event>
 7    1  0.6103724E-006  0.9770682E+02  0.7818608E-02  0.1336643E+00
          2   -1    0    0  502    0  0.00000000000E+00  0.00000000000E+00  0.13508843732E+04  0.13508843732E+04  0.00000000000E+00 0. -1.
          1   -1    0    0  501    0 -0.00000000000E+00 -0.00000000000E+00 -0.14182300647E+04  0.14182300647E+04  0.00000000000E+00 0. -1.
         25    2    1    2    0    0 -0.46135324532E+02 -0.43192945594E+02  0.19272853734E+03  0.23824729449E+03  0.12499354185E+03 0.  0.
          2    1    1    2  501    0  0.16290016600E+02  0.96723936114E+02 -0.13929177209E+04  0.13963669509E+04  0.00000000000E+00 0. -1.
          1    1    1    2  502    0  0.29845307932E+02 -0.53530990520E+02  0.11328434921E+04  0.11345001925E+04  0.00000000000E+00 0. -1.
         22    1    3    3    0    0  0.41384156995E+02  0.20594805881E+01  0.61237708039E+02  0.73938804402E+02  0.00000000000E+00 0. -1.
         22    1    3    3    0    0 -0.87519481527E+02 -0.45252426182E+02  0.13149082931E+03  0.16430849008E+03  0.00000000000E+00 0. -1.
</event>
<event>
 7    1  0.6103724E-006  0.1312530E+03  0.7818608E-02  0.1268183E+00
          2   -1    0    0  502    0  0.00000000000E+00  0.00000000000E+00  0.32007536669E+03  0.32007536669E+03  0.00000000000E+00 0. -1.
          1   -1    0    0  501    0 -0.00000000000E+00 -0.00000000000E+00 -0.92648813274E+03  0.92648813274E+03  0.00000000000E+00 0. -1.
         25    2    1    2    0    0 -0.54669203296E+02  0.17520259023E+03  0.32272689839E+02  0.22439030174E+03  0.12499924638E+03 0.  0.
          2    1    1    2  501    0  0.87293458650E+02 -0.96076207979E+02 -0.81548207755E+03  0.82574923825E+03  0.00000000000E+00 0. -1.
          1    1    1    2  502    0 -0.32624255354E+02 -0.79126382250E+02  0.17679662167E+03  0.19642395943E+03  0.00000000000E+00 0. -1.
         22    1    3    3    0    0 -0.71651842672E+02  0.33257613776E+02  0.81700707917E+01  0.79415398312E+02  0.00000000000E+00 0.  1.
         22    1    3    3    0    0  0.16982639376E+02  0.14194497645E+03  0.24102619047E+02  0.14497490343E+03  0.00000000000E+00 0.  1.
</event>
<event>
 7    1  0.6103724E-006  0.8609105E+02  0.7818608E-02  0.1452208E+00
          2   -1    0    0  502    0  0.00000000000E+00  0.00000000000E+00  0.18189231499E+04  0.18189231499E+04  0.00000000000E+00 0. -1.
          1   -1    0    0  501    0 -0.00000000000E+00 -0.00000000000E+00 -0.31929487006E+03  0.31929487006E+03  0.00000000000E+00 0. -1.
         25    2    1    2    0    0 -0.24703308868E+02  0.92033881372E+02  0.55036143439E+02  0.16653472061E+03  0.12499738916E+03 0.  0.
          2    1    1    2  501    0  0.26927264442E+02 -0.60755703059E+01 -0.26173717414E+03  0.26318878861E+03  0.00000000000E+00 0. -1.
          1    1    1    2  502    0 -0.22239555740E+01 -0.85958311066E+02  0.17063293105E+04  0.17084945107E+04  0.00000000000E+00 0. -1.
         22    1    3    3    0    0  0.14068847611E+01 -0.16527077700E+02 -0.24400271267E+02  0.29504183770E+02  0.00000000000E+00 0.  1.
         22    1    3    3    0    0 -0.26110193629E+02  0.10856095907E+03  0.79436414707E+02  0.13703053684E+03  0.00000000000E+00 0.  1.
</event>
<event>
 7    1  0.6103724E-006  0.1532451E+03  0.7818608E-02  0.1294455E+00
          2   -1    0    0  502    0  0.00000000000E+00  0.00000000000E+00  0.93065089636E+02  0.93065089636E+02  0.00000000000E+00 0. -1.
          1   -1    0    0  501    0 -0.00000000000E+00 -0.00000000000E+00 -0.20687596200E+04  0.20687596200E+04  0.00000000000E+00 0. -1.
         25    2    1    2    0    0  0.13374768654E+03 -0.81055644083E+02 -0.12476871828E+04  0.12636479499E+04  0.12499749626E+03 0.  0.
          2    1    1    2  501    0 -0.40067881136E+02 -0.40708536273E+02 -0.74173757932E+03  0.74393363723E+03  0.00000000000E+00 0. -1.
          1    1    1    2  502    0 -0.93679805408E+02  0.12176418036E+03  0.13730231809E+02  0.15424312246E+03  0.00000000000E+00 0. -1.
         22    1    3    3    0    0  0.13893828752E+03 -0.82939829411E+02 -0.12476770485E+04  0.12581259398E+04  0.00000000000E+00 0. -1.
         22    1    3    3    0    0 -0.51906009720E+01  0.18841853278E+01 -0.10134294103E-01  0.55220100963E+01  0.00000000000E+00 0. -1.
</event>
<event>
 7    1  0.6103724E-006  0.4783113E+02  0.7818608E-02  0.1479213E+00
          2   -1    0    0  502    0  0.00000000000E+00  0.00000000000E+00  0.14628712387E+04  0.14628712387E+04  0.00000000000E+00 0. -1.
          1   -1    0    0  501    0 -0.00000000000E+00 -0.00000000000E+00 -0.16006044164E+02  0.16006044164E+02  0.00000000000E+00 0. -1.
         25    2    1    2    0    0 -0.37033087393E+02 -0.68178886997E+02  0.65405119738E+03  0.67039383493E+03  0.12500045972E+03 0.  0.
          2    1    1    2  501    0  0.23830748910E+00  0.40897444016E+02  0.51538981087E+02  0.65794561242E+02  0.00000000000E+00 0. -1.
          1    1    1    2  502    0  0.36794779904E+02  0.27281442982E+02  0.74127501608E+03  0.74268888670E+03  0.00000000000E+00 0. -1.
         22    1    3    3    0    0 -0.71144933071E+02 -0.25033008687E+02  0.21364998094E+03  0.22657132956E+03  0.00000000000E+00 0.  1.
         22    1    3    3    0    0  0.34111845678E+02 -0.43145878310E+02  0.44040121644E+03  0.44382250537E+03  0.00000000000E+00 0.  1.
</event>
<event>
 7    1  0.6103724E-006  0.5376220E+02  0.7818608E-02  0.1554678E+00
          2   -1    0    0  502    0  0.00000000000E+00  0.00000000000E+00  0.25844918897E+04  0.25844918897E+04  0.00000000000E+00 0. -1.
          1   -1    0    0  501    0 -0.00000000000E+00 -0.00000000000E+00 -0.94405878998E+02  0.94405878998E+02  0.00000000000E+00 0. -1.
         25    2    1    2    0    0 -0.55862087223E+02  0.49454732629E+02  0.54241731754E+03  0.56161250890E+03  0.12500288164E+03 0.  0.
          2    1    1    2  501    0  0.14145757013E+02 -0.16738173876E+02 -0.83040779352E+02  0.85883874747E+02  0.00000000000E+00 0. -1.
          1    1    1    2  502    0  0.41716330210E+02 -0.32716558753E+02  0.20307094725E+04  0.20314013850E+04  0.00000000000E+00 0. -1.
         22    1    3    3    0    0 -0.87519663277E+02  0.88160398218E+01  0.25840605540E+03  0.27296722053E+03  0.00000000000E+00 0.  1.
         22    1    3    3    0    0  0.31657576054E+02  0.40638692808E+02  0.28401126214E+03  0.28864528837E+03  0.00000000000E+00 0.  1.
</event>
<event>
 7    1  0.6103724E-006  0.9846581E+02  0.7818608E-02  0.1383967E+00
          2   -1    0    0  502    0  0.00000000000E+00  0.00000000000E+00  0.10486228913E+04  0.10486228913E+04  0.00000000000E+00 0. -1.
          1   -1    0    0  501    0 -0.00000000000E+00 -0.00000000000E+00 -0.21991726653E+04  0.21991726653E+04  0.00000000000E+00 0. -1.
         25    2    1    2    0    0 -0.91013755578E+02  0.99482159133E+02  0.50877967252E+02  0.19077228763E+03  0.12500117794E+03 0.  0.
          2    1    1    2  501    0  0.54149903835E+02 -0.81849622749E+02 -0.21276438892E+04  0.21299061228E+04  0.00000000000E+00 0. -1.
          1    1    1    2  502    0  0.36863851743E+02 -0.17632536383E+02  0.92621614792E+03  0.92711714609E+03  0.00000000000E+00 0. -1.
         22    1    3    3    0    0 -0.10336018548E+03  0.10827630495E+03  0.70922577892E+02  0.16564147491E+03  0.00000000000E+00 0.  1.
         22    1    3    3    0    0  0.12346429907E+02 -0.87941458166E+01 -0.20044610640E+02  0.25130812716E+02  0.00000000000E+00 0.  1.
</event>
<event>
 7    1  0.6103724E-006  0.7398360E+02  0.7818608E-02  0.1390061E+00
          2   -1    0    0  502    0  0.00000000000E+00  0.00000000000E+00  0.36079656419E+03  0.36079656419E+03  0.00000000000E+00 0. -1.
          1   -1    0    0  501    0 -0.00000000000E+00 -0.00000000000E+00 -0.18179019669E+03  0.18179019669E+03  0.00000000000E+00 0. -1.
         25    2    1    2    0    0 -0.83833649615E+02  0.63635432804E+02 -0.13859201224E+02  0.16399530544E+03  0.12499933453E+03 0.  0.
          2    1    1    2  501    0  0.12195445894E+02 -0.50318963091E+02 -0.80482523973E+02  0.95698294719E+02  0.00000000000E+00 0. -1.
          1    1    1    2  502    0  0.71638203721E+02 -0.13316469713E+02  0.27334809270E+03  0.28289316072E+03  0.00000000000E+00 0. -1.
         22    1    3    3    0    0 -0.23230576227E+02 -0.18285566985E+02 -0.48131053612E+02  0.56485572969E+02  0.00000000000E+00 0. -1.
         22    1    3    3    0    0 -0.60603073388E+02  0.81920999789E+02  0.34271852388E+02  0.10750973247E+03  0.00000000000E+00 0. -1.
</event>
<event>
 7    1  0.6103724E-006  0.1161113E+03  0.7818608E-02  0.1278664E+00
          2   -1    0    0  502    0  0.00000000000E+00  0.00000000000E+00  0.10208891890E+04  0.10208891890E+04  0.00000000000E+00 0. -1.
          1   -1    0    0  501    0 -0.00000000000E+00 -0.00000000000E+00 -0.12026442764E+04  0.12026442764E+04  0.00000000000E+00 0. -1.
         25    2    1    2    0    0 -0.15838366628E+03 -0.84415154185E+02  0.39100284032E+03  0.44801692155E+03  0.12499854743E+03 0.  0.
          2    1    1    2  501    0  0.11549466595E+03  0.81780208356E+01 -0.11680789782E+04  0.11738033895E+04  0.00000000000E+00 0. -1.
          1    1    1    2  502    0  0.42889000325E+02  0.76237133349E+02  0.59532105051E+03  0.60171315428E+03  0.00000000000E+00 0. -1.
         22    1    3    3    0    0 -0.15927657484E+03 -0.31521934655E+02  0.25750762057E+03  0.30442213176E+03  0.00000000000E+00 0. -1.
         22    1    3    3    0    0  0.89290856236E+00 -0.52893219530E+02  0.13349521975E+03  0.14359478979E+03  0.00000000000E+00 0. -1.
</event>
<event>
 7    1  0.6103724E-006  0.5486706E+02  0.7818608E-02  0.1555503E+00
          2   -1    0    0  502    0  0.00000000000E+00  0.00000000000E+00  0.10135615677E+03  0.10135615677E+03  0.00000000000E+00 0. -1.
          1   -1    0    0  501    0 -0.00000000000E+00 -0.00000000000E+00 -0.88252161021E+03  0.88252161021E+03  0.00000000000E+00 0. -1.
         25    2    1    2    0    0 -0.54258661432E+02  0.48703483799E+02 -0.75008874614E+03  0.76392021499E+03  0.12499974447E+03 0.  0.
          2    1    1    2  501    0  0.77723026345E+01 -0.19896888279E+02 -0.11654705082E+03  0.11848843786E+03  0.00000000000E+00 0. -1.
          1    1    1    2  502    0  0.46486358797E+02 -0.28806595520E+02  0.85470343519E+02  0.10146911412E+03  0.00000000000E+00 0. -1.
         22    1    3    3    0    0 -0.60809082867E+01  0.48904341062E+02 -0.65930832929E+03  0.66114755168E+03  0.00000000000E+00 0. -1.
         22    1    3    3    0    0 -0.48177753145E+02 -0.20085726291E+00 -0.90780416851E+02  0.10277266332E+03  0.00000000000E+00 0. -1.
</event>
<event>
 7    1  0.6103724E-006  0.2610141E+03  0.7818608E-02  0.1248620E+00
          2   -1    0    0  502    0  0.00000000000E+00  0.00000000000E+00  0.39938556042E+03  0.39938556042E+03  0.00000000000E+00 0. -1.
          1   -1    0    0  501    0 -0.00000000000E+00 -0.00000000000E+00 -0.14810136291E+04  0.14810136291E+04  0.00000000000E+00 0. -1.
         25    2    1    2    0    0 -0.17964362105E+03 -0.14757250320E+03  0.55470692978E+02  0.26972618990E+03  0.12500298178E+03 0.  0.
          2    1    1    2  501    0 -0.46209417701E+02 -0.24256163576E+02 -0.12881387505E+04  0.12891955291E+04  0.00000000000E+00 0. -1.
          1    1    1    2  502    0  0.22585303875E+03  0.17182866678E+03  0.15103998881E+03  0.32147747053E+03  0.00000000000E+00 0. -1.
         22    1    3    3    0    0 -0.14696437183E+03 -0.45054227684E+02  0.51281692978E+02  0.16204388929E+03  0.00000000000E+00 0.  1.
         22    1    3    3    0    0 -0.32679249215E+02 -0.10251827552E+03  0.41890000005E+01  0.10768230061E+03  0.00000000000E+00 0.  1.
</event>
<event>
 7    1  0.6103724E-006  0.9273115E+02  0.7818608E-02  0.1373471E+00
          2   -1    0    0  502    0  0.00000000000E+00  0.00000000000E+00  0.93287236221E+03  0.93287236221E+03  0.00000000000E+00 0. -1.
          1   -1    0    0  501    0 -0.00000000000E+00 -0.00000000000E+00 -0.85843830488E+03  0.85843830488E+03  0.00000000000E+00 0. -1.
         25    2    1    2    0    0 -0.13483011795E+03 -0.16553744462E+02 -0.38632787372E+02  0.18861588442E+03  0.12502108795E+03 0.  0.
          2    1    1    2  501    0  0.43046890516E+02  0.19544556889E+02 -0.74160158965E+03  0.74310695210E+03  0.00000000000E+00 0. -1.
          1    1    1    2  502    0  0.91783227435E+02 -0.29908124273E+01  0.85466843435E+03  0.85958783057E+03  0.00000000000E+00 0. -1.
         22    1    3    3    0    0 -0.86906104911E+02  0.40279944160E+02  0.14989549133E+02  0.96952728458E+02  0.00000000000E+00 0.  1.
         22    1    3    3    0    0 -0.47924013040E+02 -0.56833688622E+02 -0.53622336505E+02  0.91663155959E+02  0.00000000000E+00 0.  1.
</event>
<event>
 7    1  0.6103724E-006  0.6888352E+02  0.7818608E-02  0.1492077E+00
          2   -1    0    0  502    0  0.00000000000E+00  0.00000000000E+00  0.18734015401E+04  0.18734015401E+04  0.00000000000E+00 0. -1.
          1   -1    0    0  501    0 -0.00000000000E+00 -0.00000000000E+00 -0.52847270918E+02  0.52847270918E+02  0.00000000000E+00 0. -1.
         25    2    1    2    0    0  0.15524721462E+02 -0.53402574292E+02  0.11760294335E+03  0.18041051550E+03  0.12499859960E+03 0.  0.
          2    1    1    2  501    0 -0.18004131517E+01  0.75426883704E+02  0.45339691027E+02  0.88023541483E+02  0.00000000000E+00 0. -1.
          1    1    1    2  502    0 -0.13724308311E+02 -0.22024309412E+02  0.16576116348E+04  0.16578147540E+04  0.00000000000E+00 0. -1.
         22    1    3    3    0    0  0.38717366749E+02  0.28831512503E+02  0.61554125667E+02  0.78225321909E+02  0.00000000000E+00 0. -1.
         22    1    3    3    0    0 -0.23192645287E+02 -0.82234086794E+02  0.56048817682E+02  0.10218519359E+03  0.00000000000E+00 0. -1.
</event>
<event>
 7    1  0.6103724E-006  0.8123605E+02  0.7818608E-02  0.1377653E+00
          2   -1    0    0  502    0  0.00000000000E+00  0.00000000000E+00  0.92049183238E+03  0.92049183238E+03  0.00000000000E+00 0. -1.
          1   -1    0    0  501    0 -0.00000000000E+00 -0.00000000000E+00 -0.82342333301E+03  0.82342333301E+03  0.00000000000E+00 0. -1.
         25    2    1    2    0    0 -0.35072335283E+02  0.12616140500E+03  0.53367927603E+03  0.56354749879E+03  0.12500177965E+03 0.  0.
          2    1    1    2  501    0  0.10006374115E+02 -0.80436775454E+02 -0.80461498702E+03  0.80868750436E+03  0.00000000000E+00 0. -1.
          1    1    1    2  502    0  0.25065961167E+02 -0.45724629541E+02  0.36800421036E+03  0.37168016223E+03  0.00000000000E+00 0. -1.
         22    1    3    3    0    0 -0.59424577249E+02  0.76802106922E+02  0.17044272562E+03  0.19616464189E+03  0.00000000000E+00 0.  1.
         22    1    3    3    0    0  0.24352241967E+02  0.49359298074E+02  0.36323655041E+03  0.36738285690E+03  0.00000000000E+00 0.  1.
</event>
<event>
 7    1  0.6103724E-006  0.6506781E+02  0.7818608E-02  0.1415072E+00
          2   -1    0    0  502    0  0.00000000000E+00  0.00000000000E+00  0.14621670682E+03  0.14621670682E+03  0.00000000000E+00 0. -1.
          1   -1    0    0  501    0 -0.00000000000E+00 -0.00000000000E+00 -0.38799140014E+03  0.38799140014E+03  0.00000000000E+00 0. -1.
         25    2    1    2    0    0 -0.51658769908E+02 -0.56989008459E+02 -0.14896931139E+03  0.20913124584E+03  0.12501058617E+03 0.  0.
          2    1    1    2  501    0  0.64639968402E+02  0.10436178710E+02 -0.19841221448E+03  0.20893694311E+03  0.00000000000E+00 0. -1.
          1    1    1    2  502    0 -0.12981198494E+02  0.46552829749E+02  0.10560683256E+03  0.11613991801E+03  0.00000000000E+00 0. -1.
         22    1    3    3    0    0  0.18999983884E+02 -0.67800208495E+02 -0.10071354334E+03  0.12288647392E+03  0.00000000000E+00 0.  1.
         22    1    3    3    0    0 -0.70658753792E+02  0.10811200036E+02 -0.48255768057E+02  0.86244771925E+02  0.00000000000E+00 0.  1.
</event>
<event>
 7    1  0.6103724E-006  0.1913910E+03  0.7818608E-02  0.1268579E+00
          2   -1    0    0  502    0  0.00000000000E+00  0.00000000000E+00  0.23261152863E+03  0.23261152863E+03  0.00000000000E+00 0. -1.
          1   -1    0    0  501    0 -0.00000000000E+00 -0.00000000000E+00 -0.32029688696E+03  0.32029688696E+03  0.00000000000E+00 0. -1.
         25    2    1    2    0    0 -0.83312996778E+02 -0.19873401681E+03  0.85258080842E+02  0.26330646443E+03  0.12500035598E+03 0.  0.
          2    1    1    2  501    0  0.13844846755E+02  0.56807576207E+02 -0.99373655661E+02  0.11529919313E+03  0.00000000000E+00 0. -1.
          1    1    1    2  502    0  0.69468150023E+02  0.14192644060E+03 -0.73569783516E+02  0.17430275803E+03  0.00000000000E+00 0. -1.
         22    1    3    3    0    0  0.46559185480E+01  0.16173346021E+02  0.74204385726E+01  0.18393412072E+02  0.00000000000E+00 0.  1.
         22    1    3    3    0    0 -0.87968915326E+02 -0.21490736283E+03  0.77837642269E+02  0.24491305236E+03  0.00000000000E+00 0.  1.
</event>
<event>
 7    1  0.6103724E-006  0.4870095E+02  0.7818608E-02  0.1512596E+00
          2   -1    0    0  502    0  0.00000000000E+00  0.00000000000E+00  0.87944470496E+03  0.87944470496E+03  0.00000000000E+00 0. -1.
          1   -1    0    0  501    0 -0.00000000000E+00 -0.00000000000E+00 -0.84027859521E+02  0.84027859521E+02  0.00000000000E+00 0. -1.
         25    2    1    2    0    0 -0.37035305172E+02  0.71677018819E+01  0.89645859928E+02  0.15837872552E+03  0.12499780285E+03 0.  0.
          2    1    1    2  501    0 -0.57631512174E+01 -0.31367037157E+02 -0.43651282731E+02  0.54060516239E+02  0.00000000000E+00 0. -1.
          1    1    1    2  502    0  0.42798456390E+02  0.24199335275E+02  0.74942226825E+03  0.75103332272E+03  0.00000000000E+00 0. -1.
         22    1    3    3    0    0 -0.56123174508E+01  0.53879410231E+02  0.86412948500E+02  0.10198865928E+03  0.00000000000E+00 0.  1.
         22    1    3    3    0    0 -0.31422987721E+02 -0.46711708349E+02  0.32329114276E+01  0.56390066240E+02  0.00000000000E+00 0.  1.
</event>
<event>
 7    1  0.6103724E-006  0.9193596E+02  0.7818608E-02  0.1400272E+00
          2   -1    0    0  502    0  0.00000000000E+00  0.00000000000E+00  0.27512901988E+04  0.27512901988E+04  0.00000000000E+00 0. -1.
          1   -1    0    0  501    0 -0.00000000000E+00 -0.00000000000E+00 -0.67143322029E+03  0.67143322029E+03  0.00000000000E+00 0. -1.
         25    2    1    2    0    0 -0.65541041786E+02 -0.33921016723E+02 -0.84577650791E+02  0.16799901298E+03  0.12499610320E+03 0.  0.
          2    1    1    2  501    0 -0.26351178220E+02  0.27941552639E+02 -0.54368483867E+03  0.54503974053E+03  0.00000000000E+00 0. -1.
          1    1    1    2  502    0  0.91892220006E+02  0.59794640838E+01  0.27081194680E+04  0.27096846656E+04  0.00000000000E+00 0. -1.
         22    1    3    3    0    0  0.12211080270E+02 -0.44761760954E+02 -0.75978741520E+02  0.89025248599E+02  0.00000000000E+00 0. -1.
         22    1    3    3    0    0 -0.77752122056E+02  0.10840744231E+02 -0.85989092707E+01  0.78973764380E+02  0.00000000000E+00 0. -1.
</event>
<event>
 7    1  0.6103724E-006  0.1994451E+03  0.7818608E-02  0.1166130E+00
          2   -1    0    0  502    0  0.00000000000E+00  0.00000000000E+00  0.61570825755E+03  0.61570825755E+03  0.00000000000E+00 0. -1.
          1   -1    0    0  501    0 -0.00000000000E+00 -0.00000000000E+00 -0.92870449026E+03  0.92870449026E+03  0.00000000000E+00 0. -1.
         25    2    1    2    0    0 -0.74980233511E+02  0.20617233030E+03 -0.14679982540E+03  0.29206973559E+03  0.12500190601E+03 0.  0.
          2    1    1    2  501    0 -0.11050363407E+03 -0.12334639552E+03 -0.67998195254E+03  0.69985772998E+03  0.00000000000E+00 0. -1.
          1    1    1    2  502    0  0.18548386758E+03 -0.82825934783E+02  0.51378554523E+03  0.55248528224E+03  0.00000000000E+00 0. -1.
         22    1    3    3    0    0 -0.91716301185E+01  0.24415070746E+02  0.23004064783E+02  0.34776450007E+02  0.00000000000E+00 0. -1.
         22    1    3    3    0    0 -0.65808603393E+02  0.18175725956E+03 -0.16980389019E+03  0.25729328558E+03  0.00000000000E+00 0. -1.
</event>
<event>
 7    1  0.6103724E-006  0.1546166E+03  0.7818608E-02  0.1377253E+00
          2   -1    0    0  502    0  0.00000000000E+00  0.00000000000E+00  0.52350103610E+03  0.52350103610E+03  0.00000000000E+00 0. -1.
          1   -1    0    0  501    0 -0.00000000000E+00 -0.00000000000E+00 -0.75302671278E+03  0.75302671278E+03  0.00000000000E+00 0. -1.
         25    2    1    2    0    0 -0.12505812257E+03 -0.78883825743E+02  0.25430104349E+03  0.31961932426E+03  0.12500119892E+03 0.  0.
          2    1    1    2  501    0  0.37655023263E+01 -0.27227712014E+02 -0.69261396366E+03  0.69315916640E+03  0.00000000000E+00 0. -1.
          1    1    1    2  502    0  0.12129262024E+03  0.10611153776E+03  0.20878724348E+03  0.26374925822E+03  0.00000000000E+00 0. -1.
         22    1    3    3    0    0 -0.14741983759E+03 -0.84255079129E+02  0.23273110636E+03  0.28808903961E+03  0.00000000000E+00 0.  1.
         22    1    3    3    0    0  0.22361715029E+02  0.53712533852E+01  0.21569937135E+02  0.31530284648E+02  0.00000000000E+00 0.  1.
</event>
<event>
 7    1  0.6103724E-006  0.6970434E+02  0.7818608E-02  0.1426921E+00
          2   -1    0    0  502    0  0.00000000000E+00  0.00000000000E+00  0.17477749975E+04  0.17477749975E+04  0.00000000000E+00 0. -1.
          1   -1    0    0  501    0 -0.00000000000E+00 -0.00000000000E+00 -0.23829116104E+03  0.23829116104E+03  0.00000000000E+00 0. -1.
         25    2    1    2    0    0 -0.53491157106E+02 -0.16428905829E+01  0.21199363252E+02  0.13761601494E+03  0.12499900635E+03 0.  0.
          2    1    1    2  501    0 -0.19562295380E+01 -0.41143692734E+02 -0.17698176249E+03  0.18171178976E+03  0.00000000000E+00 0. -1.
          1    1    1    2  502    0  0.55447386644E+02  0.42786583317E+02  0.16652662357E+04  0.16667383538E+04  0.00000000000E+00 0. -1.
         22    1    3    3    0    0 -0.50702368432E+02 -0.58691927800E+02  0.21550392119E+02  0.80497776081E+02  0.00000000000E+00 0.  1.
         22    1    3    3    0    0 -0.27887886738E+01  0.57049037217E+02 -0.35102886669E+00  0.57118238864E+02  0.00000000000E+00 0.  1.
</event>
<event>
 7    1  0.6103724E-006  0.1643735E+03  0.7818608E-02  0.1349448E+00
          2   -1    0    0  502    0  0.00000000000E+00  0.00000000000E+00  0.77501919939E+03  0.77501919939E+03  0.00000000000E+00 0. -1.
          1   -1    0    0  501    0 -0.00000000000E+00 -0.00000000000E+00 -0.79623025227E+03  0.79623025227E+03  0.00000000000E+00 0. -1.
         25    2    1    2    0    0 -0.12034080921E+03  0.13826491108E+03 -0.57359145106E+03  0.61501023697E+03  0.12502536886E+03 0.  0.
          2    1    1    2  501    0  0.32619775398E+02  0.44489342950E+00 -0.19160723812E+03  0.19436455793E+03  0.00000000000E+00 0. -1.
          1    1    1    2  502    0  0.87721033816E+02 -0.13870980451E+03  0.74398763630E+03  0.76187465676E+03  0.00000000000E+00 0. -1.
         22    1    3    3    0    0 -0.11074634372E+03  0.11339855831E+03 -0.29274436697E+03  0.33290126174E+03  0.00000000000E+00 0. -1.
         22    1    3    3    0    0 -0.95944654915E+01  0.24866352768E+02 -0.28084708409E+03  0.28210897523E+03  0.00000000000E+00 0. -1.
</event>
<event>
 7    1  0.6103724E-006  0.8222957E+02  0.7818608E-02  0.1352973E+00
          2   -1    0    0  502    0  0.00000000000E+00  0.00000000000E+00  0.10031186614E+04  0.10031186614E+04  0.00000000000E+00 0. -1.
          1   -1    0    0  501    0 -0.00000000000E+00 -0.00000000000E+00 -0.16268143653E+03  0.16268143653E+03  0.00000000000E+00 0. -1.
         25    2    1    2    0    0  0.52578370154E+00  0.83695256477E+02  0.39178741496E+01  0.15046004982E+03  0.12497081439E+03 0.  0.
          2    1    1    2  501    0  0.59443741700E+02 -0.63485056637E+02 -0.66888921043E+02  0.10971799580E+03  0.00000000000E+00 0. -1.
          1    1    1    2  502    0 -0.59969525402E+02 -0.20210199840E+02  0.90340827171E+03  0.90562205227E+03  0.00000000000E+00 0. -1.
         22    1    3    3    0    0 -0.32686972383E+02  0.95422558586E+02  0.31558045604E+02  0.10568733648E+03  0.00000000000E+00 0. -1.
         22    1    3    3    0    0  0.33212756085E+02 -0.11727302109E+02 -0.27640171454E+02  0.44772713337E+02  0.00000000000E+00 0. -1.
</event>
<event>
 7    1  0.6103724E-006  0.1324095E+03  0.7818608E-02  0.1370348E+00
          2   -1    0    0  502    0  0.00000000000E+00  0.00000000000E+00  0.10796146123E+04  0.10796146123E+04  0.00000000000E+00 0. -1.
          1   -1    0    0  501    0 -0.00000000000E+00 -0.00000000000E+00 -0.52798598745E+03  0.52798598745E+03  0.00000000000E+00 0. -1.
         25    2    1    2    0    0  0.11454883414E+03 -0.10929143443E+03 -0.63324355975E+01  0.20181597943E+03  0.12499414694E+03 0.  0.
          2    1    1    2  501    0 -0.10479062869E+03  0.76749201571E+02 -0.41365801572E+03  0.43357175850E+03  0.00000000000E+00 0. -1.
          1    1    1    2  502    0 -0.97582054491E+01  0.32542232859E+02  0.97161907620E+03  0.97221286184E+03  0.00000000000E+00 0. -1.
         22    1    3    3    0    0  0.13572333038E+03 -0.69031671148E+02 -0.21685067419E+02  0.15380648939E+03  0.00000000000E+00 0. -1.
         22    1    3    3    0    0 -0.21174496233E+02 -0.40259763282E+02  0.15352631822E+02  0.48009490042E+02  0.00000000000E+00 0. -1.
</event>
<event>
 7    1  0.6103724E-006  0.3933835E+03  0.7818608E-02  0.1255368E+00
          2   -1    0    0  502    0  0.00000000000E+00  0.00000000000E+00  0.21311975147E+04  0.21311975147E+04  0.00000000000E+00 0. -1.
          1   -1    0    0  501    0 -0.00000000000E+00 -0.00000000000E+00 -0.55839107334E+03  0.55839107334E+03  0.00000000000E+00 0. -1.
         25    2    1    2    0    0 -0.28114435850E+03 -0.23348360687E+03  0.14390713683E+03  0.41217869112E+03  0.12500105758E+03 0.  0.
          2    1    1    2  501    0 -0.25072547487E+02 -0.20485874334E+02 -0.40224598547E+03  0.40354694462E+03  0.00000000000E+00 0. -1.
          1    1    1    2  502    0  0.30621690598E+03  0.25396948120E+03  0.18311452900E+04  0.18738629523E+04  0.00000000000E+00 0. -1.
         22    1    3    3    0    0 -0.14750537743E+03 -0.10589108105E+03  0.13667679698E+03  0.22726923296E+03  0.00000000000E+00 0. -1.
         22    1    3    3    0    0 -0.13363898107E+03 -0.12759252582E+03  0.72303398543E+01  0.18490945817E+03  0.00000000000E+00 0. -1.
</event>
<event>
 7    1  0.6103724E-006  0.6400913E+02  0.7818608E-02  0.1429408E+00
          2   -1    0    0  502    0  0.00000000000E+00  0.00000000000E+00  0.27438932426E+04  0.27438932426E+04  0.00000000000E+00 0. -1.
          1   -1    0    0  501    0 -0.00000000000E+00 -0.00000000000E+00 -0.42819568843E+02  0.42819568843E+02  0.00000000000E+00 0. -1.
         25    2    1    2    0    0  0.36492638696E+02  0.10032374088E+03  0.44713370130E+03  0.47639344014E+03  0.12500238923E+03 0.  0.
          2    1    1    2  501    0 -0.15024876071E+02 -0.41371351255E+02 -0.10304952614E+02  0.45205394081E+02  0.00000000000E+00 0. -1.
          1    1    1    2  502    0 -0.21467762626E+02 -0.58952389622E+02  0.22642449250E+04  0.22651139772E+04  0.00000000000E+00 0. -1.
         22    1    3    3    0    0  0.19348576609E+02  0.10977489340E+03  0.44243551330E+03  0.45626097583E+03  0.00000000000E+00 0.  1.
         22    1    3    3    0    0  0.17144062087E+02 -0.94511525197E+01  0.46981879971E+01  0.20132464311E+02  0.00000000000E+00 0.  1.
</event>
<event>
 7    1  0.6103724E-006  0.7645223E+02  0.7818608E-02  0.1342749E+00
          2   -1    0    0  502    0  0.00000000000E+00  0.00000000000E+00  0.87936771670E+03  0.87936771670E+03  0.00000000000E+00 0. -1.
          1   -1    0    0  501    0 -0.00000000000E+00 -0.00000000000E+00 -0.44119952373E+03  0.44119952373E+03  0.00000000000E+00 0. -1.
         25    2    1    2    0    0  0.90141594074E+02  0.82758519547E+02 -0.11867256947E+03  0.21138655157E+03  0.12500646344E+03 0.  0.
          2    1    1    2  501    0 -0.73821561290E+02 -0.83298244789E+01 -0.26938897365E+03  0.27944485684E+03  0.00000000000E+00 0. -1.
          1    1    1    2  502    0 -0.16320032784E+02 -0.74428695068E+02  0.82622973609E+03  0.82973583201E+03  0.00000000000E+00 0. -1.
         22    1    3    3    0    0  0.88480430099E+02  0.92136674536E+02 -0.42507818299E+02  0.13462862965E+03  0.00000000000E+00 0. -1.
         22    1    3    3    0    0  0.16611639748E+01 -0.93781549890E+01 -0.76164751171E+02  0.76757921921E+02  0.00000000000E+00 0. -1.
</event>
<event>
 7    1  0.6103724E-006  0.1486442E+03  0.7818608E-02  0.1345278E+00
          2   -1    0    0  502    0  0.00000000000E+00  0.00000000000E+00  0.10668341500E+04  0.10668341500E+04  0.00000000000E+00 0. -1.
          1   -1    0    0  501    0 -0.00000000000E+00 -0.00000000000E+00 -0.69024674415E+03  0.69024674415E+03  0.00000000000E+00 0. -1.
         25    2    1    2    0    0 -0.68748766489E+02  0.14501689532E+03 -0.30930332183E+03  0.37020534384E+03  0.12500863527E+03 0.  0.
          2    1    1    2  501    0 -0.23787510520E+02 -0.28843237393E+02 -0.34415359493E+03  0.34617838596E+03  0.00000000000E+00 0. -1.
          1    1    1    2  502    0  0.92536277009E+02 -0.11617365793E+03  0.10300443226E+04  0.10406971644E+04  0.00000000000E+00 0. -1.
         22    1    3    3    0    0 -0.54421217473E+02  0.15619489190E+02 -0.34967860752E+02  0.66546139177E+02  0.00000000000E+00 0. -1.
         22    1    3    3    0    0 -0.14327549016E+02  0.12939740613E+03 -0.27433546107E+03  0.30365920466E+03  0.00000000000E+00 0. -1.
</event>
<event>
 7    1  0.6103724E-006  0.7288556E+02  0.7818608E-02  0.1444762E+00
          2   -1    0    0  502    0  0.00000000000E+00  0.00000000000E+00  0.17051963094E+04  0.17051963094E+04  0.00000000000E+00 0. -1.
          1   -1    0    0  501    0 -0.00000000000E+00 -0.00000000000E+00 -0.76418675721E+03  0.76418675721E+03  0.00000000000E+00 0. -1.
         25    2    1    2    0    0 -0.45214443344E+02 -0.44817715830E+02 -0.49237305956E+03  0.51196588129E+03  0.12499944114E+03 0.  0.
          2    1    1    2  501    0  0.75798001007E+02  0.28964635336E+02 -0.25555513499E+03  0.26812816726E+03  0.00000000000E+00 0. -1.
          1    1    1    2  502    0 -0.30583557663E+02  0.15853080494E+02  0.16889377468E+04  0.16892890181E+04  0.00000000000E+00 0. -1.
         22    1    3    3    0    0  0.16488782933E+01 -0.12178052879E+02  0.35292730262E+01  0.12785911764E+02  0.00000000000E+00 0. -1.
         22    1    3    3    0    0 -0.46863321638E+02 -0.32639662951E+02 -0.49590233259E+03  0.49917996953E+03  0.00000000000E+00 0. -1.
</event>
<event>
 7    1  0.6103724E-006  0.1734241E+03  0.7818608E-02  0.1181433E+00
          2   -1    0    0  502    0  0.00000000000E+00  0.00000000000E+00  0.59984643938E+03  0.59984643938E+03  0.00000000000E+00 0. -1.
          1   -1    0    0  501    0 -0.00000000000E+00 -0.00000000000E+00 -0.29080743038E+03  0.29080743038E+03  0.00000000000E+00 0. -1.
         25    2    1    2    0    0 -0.26996679770E+02 -0.21443029917E+03  0.10098733295E+03  0.26931945234E+03  0.12500140828E+03 0.  0.
          2    1    1    2  501    0  0.14248525794E+03  0.10360974910E+03 -0.14856008544E+03  0.23044983798E+03  0.00000000000E+00 0. -1.
          1    1    1    2  502    0 -0.11548857817E+03  0.11082055007E+03  0.35661176150E+03  0.39088457944E+03  0.00000000000E+00 0. -1.
         22    1    3    3    0    0 -0.78515010351E+01 -0.19950483400E+03  0.39929581273E+02  0.20361285892E+03  0.00000000000E+00 0.  1.
         22    1    3    3    0    0 -0.19145178735E+02 -0.14925465171E+02  0.61057751675E+02  0.65706593421E+02  0.00000000000E+00 0.  1.
</event>
<event>
 7    1  0.6103724E-006  0.9681244E+02  0.7818608E-02  0.1326480E+00
          2   -1    0    0  502    0  0.00000000000E+00  0.00000000000E+00  0.13451536157E+04  0.13451536157E+04  0.00000000000E+00 0. -1.
          1   -1    0    0  501    0 -0.00000000000E+00 -0.00000000000E+00 -0.33355958417E+03  0.33355958417E+03  0.00000000000E+00 0. -1.
         25    2    1    2    0    0  0.81098720207E+02 -0.13476038848E+03  0.22992931426E+03  0.30531656863E+03  0.12495340251E+03 0.  0.
          2    1    1    2  501    0 -0.18546051336E+02  0.65031763950E+02 -0.28993166739E+03  0.29771371836E+03  0.00000000000E+00 0. -1.
          1    1    1    2  502    0 -0.62552668871E+02  0.69728624526E+02  0.10715963846E+04  0.10756829128E+04  0.00000000000E+00 0. -1.
         22    1    3    3    0    0  0.21075738830E+02 -0.67574697606E+02  0.15123496202E+02  0.72382640606E+02  0.00000000000E+00 0.  1.
         22    1    3    3    0    0  0.60022981377E+02 -0.67185690870E+02  0.21480581806E+03  0.23293392802E+03  0.00000000000E+00 0.  1.
</event>
<event>
 7    1  0.6103724E-006  0.1023117E+03  0.7818608E-02  0.1329755E+00
          2   -1    0    0  502    0  0.00000000000E+00  0.00000000000E+00  0.82981341230E+02  0.82981341230E+02  0.00000000000E+00 0. -1.
          1   -1    0    0  501    0 -0.00000000000E+00 -0.00000000000E+00 -0.13497179637E+04  0.13497179637E+04  0.00000000000E+00 0. -1.
         25    2    1    2    0    0  0.34960096552E+02 -0.49146937930E+02 -0.47588752745E+03  0.49571322823E+03  0.12500014398E+03 0.  0.
          2    1    1    2  501    0  0.61939339071E+02  0.53228371961E+01 -0.82341843755E+03  0.82576191340E+03  0.00000000000E+00 0. -1.
          1    1    1    2  502    0 -0.96899435622E+02  0.43824100733E+02  0.32569342538E+02  0.11122416330E+03  0.00000000000E+00 0. -1.
         22    1    3    3    0    0  0.48485264777E+02 -0.90127336132E+01 -0.59961631204E+02  0.77636637513E+02  0.00000000000E+00 0.  1.
         22    1    3    3    0    0 -0.13525168225E+02 -0.40134204316E+02 -0.41592589625E+03  0.41807659071E+03  0.00000000000E+00 0.  1.
</event>
<event>
 7    1  0.6103724E-006  0.7956619E+02  0.7818608E-02  0.1355897E+00
          2   -1    0    0  502    0  0.00000000000E+00  0.00000000000E+00  0.43179170689E+04  0.43179170689E+04  0.00000000000E+00 0. -1.
          1   -1    0    0  501    0 -0.00000000000E+00 -0.00000000000E+00 -0.26018936809E+02  0.26018936809E+02  0.00000000000E+00 0. -1.
         25    2    1    2    0    0 -0.80472997071E+02  0.11390376814E+03  0.11375491167E+04  0.11528629410E+04  0.12499998425E+03 0.  0.
          2    1    1    2  501    0  0.33020215528E+02 -0.54591772779E+02  0.38955679575E+02  0.74753871203E+02  0.00000000000E+00 0. -1.
          1    1    1    2  502    0  0.47452781543E+02 -0.59311995360E+02  0.31153933358E+04  0.31163191936E+04  0.00000000000E+00 0. -1.
         22    1    3    3    0    0  0.10213875098E+01  0.67211027850E+02  0.20825320135E+03  0.21883272464E+03  0.00000000000E+00 0.  1.
         22    1    3    3    0    0 -0.81494384581E+02  0.46692740289E+02  0.92929591536E+03  0.93403021633E+03  0.00000000000E+00 0.  1.
</event>
<event>
 7    1  0.6103724E-006  0.1037845E+03  0.7818608E-02  0.1332765E+00
          2   -1    0    0  502    0  0.00000000000E+00  0.00000000000E+00  0.13941730678E+04  0.13941730678E+04  0.00000000000E+00 0. -1.
          1   -1    0    0  501    0 -0.00000000000E+00 -0.00000000000E+00 -0.26694143634E+02  0.26694143634E+02  0.00000000000E+00 0. -1.
         25    2    1    2    0    0 -0.48070748104E+02 -0.33090817133E+02  0.38027885206E+03  0.40452831884E+03  0.12500142568E+03 0.  0.
          2    1    1    2  501    0 -0.51370598410E+02 -0.30390846822E+02  0.71806052093E+02  0.93373717227E+02  0.00000000000E+00 0. -1.
          1    1    1    2  502    0  0.99441346514E+02  0.63481663955E+02  0.91539401998E+03  0.92296517533E+03  0.00000000000E+00 0. -1.
         22    1    3    3    0    0 -0.29511285377E+02 -0.72343682821E+02  0.13971508520E+03  0.16007757320E+03  0.00000000000E+00 0.  1.
         22    1    3    3    0    0 -0.18559462726E+02  0.39252865688E+02  0.24056376685E+03  0.24445074564E+03  0.00000000000E+00 0.  1.
</event>
<event>
 7    1  0.6103724E-006  0.1449007E+03  0.7818608E-02  0.1335509E+00
          2   -1    0    0  502    0  0.00000000000E+00  0.00000000000E+00  0.14021480922E+03  0.14021480922E+03  0.00000000000E+00 0. -1.
          1   -1    0    0  501    0 -0.00000000000E+00 -0.00000000000E+00 -0.13459826985E+04  0.13459826985E+04  0.00000000000E+00 0. -1.
         25    2    1    2    0    0 -0.10331763517E+03  0.83988135261E+02 -0.28624991540E+03  0.33954690430E+03  0.12499818219E+03 0.  0.
          2    1    1    2  501    0  0.84844505995E+02 -0.12141482968E+03 -0.10237305074E+04  0.10343907883E+04  0.00000000000E+00 0. -1.
          1    1    1    2  502    0  0.18473129171E+02  0.37426694422E+02  0.10421253352E+03  0.11225981516E+03  0.00000000000E+00 0. -1.
         22    1    3    3    0    0  0.24185498003E+02  0.37440873926E+02 -0.49210095871E+02  0.66395714392E+02  0.00000000000E+00 0.  1.
         22    1    3    3    0    0 -0.12750313317E+03  0.46547261335E+02 -0.23703981953E+03  0.27315118990E+03  0.00000000000E+00 0.  1.
</event>
<event>
 7    1  0.6103724E-006  0.8350876E+02  0.7818608E-02  0.1389186E+00
          2   -1    0    0  502    0  0.00000000000E+00  0.00000000000E+00  0.14434844277E+04  0.14434844277E+04  0.00000000000E+00 0. -1.
          1   -1    0    0  501    0 -0.00000000000E+00 -0.00000000000E+00 -0.40103897697E+02  0.40103897697E+02  0.00000000000E+00 0. -1.
         25    2    1    2    0    0 -0.11076211048E+03 -0.55667662422E+02  0.29349570381E+03  0.34224499785E+03  0.12499910656E+03 0.  0.
          2    1    1    2  501    0  0.33130159845E+02  0.32191058834E+02  0.23302891027E+02  0.51738732980E+02  0.00000000000E+00 0. -1.
          1    1    1    2  502    0  0.77631950633E+02  0.23476603589E+02  0.10865819352E+04  0.10896045946E+04  0.00000000000E+00 0. -1.
         22    1    3    3    0    0 -0.13479292780E+03 -0.37165560246E+02  0.26934694388E+03  0.30347683343E+03  0.00000000000E+00 0. -1.
         22    1    3    3    0    0  0.24030817320E+02 -0.18502102177E+02  0.24148759932E+02  0.38768164417E+02  0.00000000000E+00 0. -1.
</event>
<event>
 7    1  0.6103724E-006  0.7585962E+02  0.7818608E-02  0.1357760E+00
          2   -1    0    0  502    0  0.00000000000E+00  0.00000000000E+00  0.52036492178E+03  0.52036492178E+03  0.00000000000E+00 0. -1.
          1   -1    0    0  501    0 -0.00000000000E+00 -0.00000000000E+00 -0.23381920354E+03  0.23381920354E+03  0.00000000000E+00 0. -1.
         25    2    1    2    0    0 -0.21711092153E+02 -0.10201256137E+02 -0.75527879329E+02  0.14800550537E+03  0.12500292763E+03 0.  0.
          2    1    1    2  501    0 -0.47112415607E+02  0.46041257473E+02 -0.10975820019E+03  0.12800874815E+03  0.00000000000E+00 0. -1.
          1    1    1    2  502    0  0.68823507760E+02 -0.35840001336E+02  0.47183179776E+03  0.47816987180E+03  0.00000000000E+00 0. -1.
         22    1    3    3    0    0 -0.23485236540E+02  0.15330915428E+02  0.29027489373E+02  0.40363206544E+02  0.00000000000E+00 0.  1.
         22    1    3    3    0    0  0.17741443869E+01 -0.25532171565E+02 -0.10455536870E+03  0.10764229883E+03  0.00000000000E+00 0.  1.
</event>
<event>
 7    1  0.6103724E-006  0.7233265E+02  0.7818608E-02  0.1437141E+00
          2   -1    0    0  502    0  0.00000000000E+00  0.00000000000E+00  0.85730776286E+01  0.85730776286E+01  0.00000000000E+00 0. -1.
          1   -1    0    0  501    0 -0.00000000000E+00 -0.00000000000E+00 -0.23816845635E+04  0.23816845635E+04  0.00000000000E+00 0. -1.
         25    2    1    2    0    0 -0.53760047472E+02  0.44354183596E+02 -0.17297095180E+04  0.17356195132E+04  0.12499056587E+03 0.  0.
          2    1    1    2  501    0  0.27115416213E+02  0.24795037152E+02 -0.35389575084E+03  0.35579803558E+03  0.00000000000E+00 0. -1.
          1    1    1    2  502    0  0.26644631259E+02 -0.69149220748E+02 -0.28950621700E+03  0.29884009234E+03  0.00000000000E+00 0. -1.
         22    1    3    3    0    0 -0.25198355969E+02  0.49108378345E+02 -0.16481298124E+04  0.16490538101E+04  0.00000000000E+00 0. -1.
         22    1    3    3    0    0 -0.28561691503E+02 -0.47541947489E+01 -0.81579705563E+02  0.86565703076E+02  0.00000000000E+00 0. -1.
</event>
<event>
 7    1  0.6103724E-006  0.3386203E+02  0.7818608E-02  0.1559810E+00
          2   -1    0    0  502    0  0.00000000000E+00  0.00000000000E+00  0.89646127462E+03  0.89646127462E+03  0.00000000000E+00 0. -1.
          1   -1    0    0  501    0 -0.00000000000E+00 -0.00000000000E+00 -0.94755719441E+02  0.94755719441E+02  0.00000000000E+00 0. -1.
         25    2    1    2    0    0  0.36044850420E+02 -0.39110894972E+02  0.39554610359E+03  0.41822222846E+03  0.12499687584E+03 0.  0.
          2    1    1    2  501    0 -0.28098275961E+01  0.33675187107E+02 -0.79388048807E+02  0.86280795379E+02  0.00000000000E+00 0. -1.
          1    1    1    2  502    0 -0.33235022824E+02  0.54357078652E+01  0.48554750040E+03  0.48671397022E+03  0.00000000000E+00 0. -1.
         22    1    3    3    0    0 -0.26980978155E+02 -0.62899495283E+02  0.20404050517E+03  0.21521349269E+03  0.00000000000E+00 0.  1.
         22    1    3    3    0    0  0.63025828575E+02  0.23788600311E+02  0.19150559842E+03  0.20300873577E+03  0.00000000000E+00 0.  1.
</event>
<event>
 7    1  0.6103724E-006  0.6478329E+02  0.7818608E-02  0.1423502E+00
          2   -1    0    0  502    0  0.00000000000E+00  0.00000000000E+00  0.36718821343E+03  0.36718821343E+03  0.00000000000E+00 0. -1.
          1   -1    0    0  501    0 -0.00000000000E+00 -0.00000000000E+00 -0.18471150235E+03  0.18471150235E+03  0.00000000000E+00 0. -1.
         25    2    1    2    0    0  0.38895148128E+02 -0.99952490447E+02 -0.77007607517E+02  0.18182096308E+03  0.12500143241E+03 0.  0.
          2    1    1    2  501    0 -0.66188321580E+01  0.45006999548E+02 -0.42011240236E+02  0.61922397028E+02  0.00000000000E+00 0. -1.
          1    1    1    2  502    0 -0.32276315970E+02  0.54945490899E+02  0.30149555884E+03  0.30815635568E+03  0.00000000000E+00 0. -1.
         22    1    3    3    0    0 -0.41462692232E+02 -0.60670782301E+02 -0.48069942626E+02  0.87811263834E+02  0.00000000000E+00 0. -1.
         22    1    3    3    0    0  0.80357840360E+02 -0.39281708146E+02 -0.28937664891E+02  0.94009699242E+02  0.00000000000E+00 0. -1.
</event>
<event>
 7    1  0.6103724E-006  0.6012967E+02  0.7818608E-02  0.1400256E+00
          2   -1    0    0  502    0  0.00000000000E+00  0.00000000000E+00  0.22549091421E+03  0.22549091421E+03  0.00000000000E+00 0. -1.
          1   -1    0    0  501    0 -0.00000000000E+00 -0.00000000000E+00 -0.57598114896E+03  0.57598114896E+03  0.00000000000E+00 0. -1.
         25    2    1    2    0    0 -0.64561548536E+02  0.12367006182E+02  0.48187513380E+02  0.14922416144E+03  0.12499871007E+03 0.  0.
          2    1    1    2  501    0  0.37988322196E+02  0.44790645582E+02 -0.51585784614E+03  0.51919036199E+03  0.00000000000E+00 0. -1.
          1    1    1    2  502    0  0.26573226340E+02 -0.57157651764E+02  0.11718009801E+03  0.13305753974E+03  0.00000000000E+00 0. -1.
         22    1    3    3    0    0 -0.18808145195E+02 -0.49478126797E+02 -0.85716626700E+01  0.53621868281E+02  0.00000000000E+00 0.  1.
         22    1    3    3    0    0 -0.45753403341E+02  0.61845132979E+02  0.56759176050E+02  0.95602293154E+02  0.00000000000E+00 0.  1.
</event>
<event>
 7    1  0.6103724E-006  0.1244046E+03  0.7818608E-02  0.1430455E+00
          2   -1    0    0  502    0  0.00000000000E+00  0.00000000000E+00  0.95824062119E+03  0.95824062119E+03  0.00000000000E+00 0. -1.
          1   -1    0    0  501    0 -0.00000000000E+00 -0.00000000000E+00 -0.13012290388E+03  0.13012290388E+03  0.00000000000E+00 0. -1.
         25    2    1    2    0    0  0.11943685751E+03  0.55872159524E+02  0.74370217868E+03  0.76557477519E+03  0.12499977882E+03 0.  0.
          2    1    1    2  501    0 -0.10228163706E+03 -0.70380907709E+02 -0.85913729838E+02  0.15098402043E+03  0.00000000000E+00 0. -1.
          1    1    1    2  502    0 -0.17155220446E+02  0.14508748186E+02  0.17032926847E+03  0.17180472945E+03  0.00000000000E+00 0. -1.
         22    1    3    3    0    0  0.67444640654E+02 -0.99568036863E+01  0.55367165722E+03  0.55785322577E+03  0.00000000000E+00 0.  1.
         22    1    3    3    0    0  0.51992216856E+02  0.65828963210E+02  0.19003052146E+03  0.20772154943E+03  0.00000000000E+00 0.  1.
</event>
<event>
 7    1  0.6103724E-006  0.3581477E+02  0.7818608E-02  0.1564575E+00
          2   -1    0    0  502    0  0.00000000000E+00  0.00000000000E+00  0.72679333982E+03  0.72679333982E+03  0.00000000000E+00 0. -1.
          1   -1    0    0  501    0 -0.00000000000E+00 -0.00000000000E+00 -0.54224154009E+03  0.54224154009E+03  0.00000000000E+00 0. -1.
         25    2    1    2    0    0 -0.29225198284E+02 -0.29639811464E+02 -0.16596447678E+03  0.21190141000E+03  0.12500147748E+03 0.  0.
          2    1    1    2  501    0  0.30272137000E+02 -0.61765972162E+01 -0.35217579812E+03  0.35352842235E+03  0.00000000000E+00 0. -1.
          1    1    1    2  502    0 -0.10469387159E+01  0.35816408681E+02  0.70269207462E+03  0.70360504756E+03  0.00000000000E+00 0. -1.
         22    1    3    3    0    0 -0.57935501373E+02 -0.44917487559E+02 -0.43611388000E+02  0.85299801707E+02  0.00000000000E+00 0. -1.
         22    1    3    3    0    0  0.28710303089E+02  0.15277676095E+02 -0.12235308878E+03  0.12660160830E+03  0.00000000000E+00 0. -1.
</event>
<event>
 7    1  0.6103724E-006  0.1485645E+03  0.7818608E-02  0.1213831E+00
          2   -1    0    0  502    0  0.00000000000E+00  0.00000000000E+00  0.23720658262E+03  0.23720658262E+03  0.00000000000E+00 0. -1.
          1   -1    0    0  501    0 -0.00000000000E+00 -0.00000000000E+00 -0.55679551315E+03  0.55679551315E+03  0.00000000000E+00 0. -1.
         25    2    1    2    0    0 -0.11584745252E+03 -0.48990250448E+02 -0.21657544458E+03  0.27991214416E+03  0.12500083345E+03 0.  0.
          2    1    1    2  501    0  0.79322742103E+02 -0.10454075084E+03 -0.26015649828E+03  0.29137994028E+03  0.00000000000E+00 0. -1.
          1    1    1    2  502    0  0.36524710413E+02  0.15353100129E+03  0.15714301231E+03  0.22271001133E+03  0.00000000000E+00 0. -1.
         22    1    3    3    0    0  0.16106381825E+02 -0.14548333508E+02 -0.94240868092E+02  0.96707862980E+02  0.00000000000E+00 0. -1.
         22    1    3    3    0    0 -0.13195383434E+03 -0.34441916941E+02 -0.12233457648E+03  0.18320428118E+03  0.00000000000E+00 0. -1.
</event>
<event>
 7    1  0.6103724E-006  0.3494201E+02  0.7818608E-02  0.1602162E+00
          2   -1    0    0  502    0  0.00000000000E+00  0.00000000000E+00  0.12931709679E+04  0.12931709679E+04  0.00000000000E+00 0. -1.
          1   -1    0    0  501    0 -0.00000000000E+00 -0.00000000000E+00 -0.28821068576E+02  0.28821068576E+02  0.00000000000E+00 0. -1.
         25    2    1    2    0    0 -0.58529663839E+02 -0.49056470580E+00  0.41503086877E+03  0.43737905974E+03  0.12499543057E+03 0.  0.
          2    1    1    2  501    0  0.24605987066E+02  0.51222873888E+01 -0.81796525879E+01  0.26431026163E+02  0.00000000000E+00 0. -1.
          1    1    1    2  502    0  0.33923676773E+02 -0.46317226830E+01  0.85749868318E+03  0.85818195062E+03  0.00000000000E+00 0. -1.
         22    1    3    3    0    0 -0.66145841175E+02  0.51366514517E+02  0.21915225297E+03  0.23460925195E+03  0.00000000000E+00 0.  1.
         22    1    3    3    0    0  0.76161773364E+01 -0.51857079223E+02  0.19587861580E+03  0.20276980779E+03  0.00000000000E+00 0.  1.
</event>
<event>
 7    1  0.6103724E-006  0.5747476E+02  0.7818608E-02  0.1432894E+00
          2   -1    0    0  502    0  0.00000000000E+00  0.00000000000E+00  0.38757496753E+03  0.38757496753E+03  0.00000000000E+00 0. -1.
          1   -1    0    0  501    0 -0.00000000000E+00 -0.00000000000E+00 -0.56359121909E+03  0.56359121909E+03  0.00000000000E+00 0. -1.
         25    2    1    2    0    0 -0.80940536482E+01 -0.66871888216E+01 -0.19529567626E+03  0.23209641812E+03  0.12497245272E+03 0.  0.
          2    1    1    2  501    0 -0.28239601735E+02 -0.38495920396E+02 -0.34596920400E+03  0.34924790781E+03  0.00000000000E+00 0. -1.
          1    1    1    2  502    0  0.36333655383E+02  0.45183109218E+02  0.36524862870E+03  0.36982186068E+03  0.00000000000E+00 0. -1.
         22    1    3    3    0    0 -0.61357824227E+01 -0.60446720586E+02 -0.55434284583E+02  0.82246056214E+02  0.00000000000E+00 0. -1.
         22    1    3    3    0    0 -0.19582712255E+01  0.53759531765E+02 -0.13986139168E+03  0.14985036191E+03  0.00000000000E+00 0. -1.
</event>
<event>
 7    1  0.6103724E-006  0.9149579E+02  0.7818608E-02  0.1415686E+00
          2   -1    0    0  502    0  0.00000000000E+00  0.00000000000E+00  0.13862390329E+04  0.13862390329E+04  0.00000000000E+00 0. -1.
          1   -1    0    0  501    0 -0.00000000000E+00 -0.00000000000E+00 -0.11331537151E+04  0.11331537151E+04  0.00000000000E+00 0. -1.
         25    2    1    2    0    0  0.72027400655E+02 -0.47963220711E+02 -0.78996516259E+02  0.17132652170E+03  0.12499564181E+03 0.  0.
          2    1    1    2  501    0 -0.90033809589E+02  0.18879692483E+02 -0.10056742535E+04  0.10098728800E+04  0.00000000000E+00 0. -1.
          1    1    1    2  502    0  0.18006408934E+02  0.29083528228E+02  0.13377560875E+04  0.13381933463E+04  0.00000000000E+00 0. -1.
         22    1    3    3    0    0  0.41322956080E+02 -0.70950407493E+02  0.15415558856E+01  0.82121394394E+02  0.00000000000E+00 0. -1.
         22    1    3    3    0    0  0.30704444574E+02  0.22987186783E+02 -0.80538072145E+02  0.89205127306E+02  0.00000000000E+00 0. -1.
</event>
<event>
 7    1  0.6103724E-006  0.5994431E+02  0.7818608E-02  0.1481065E+00
          2   -1    0    0  502    0  0.00000000000E+00  0.00000000000E+00  0.66700269228E+03  0.66700269228E+03  0.00000000000E+00 0. -1.
          1   -1    0    0  501    0 -0.00000000000E+00 -0.00000000000E+00 -0.24603171895E+03  0.24603171895E+03  0.00000000000E+00 0. -1.
         25    2    1    2    0    0  0.13916521677E+02  0.25194948317E+02 -0.64798443747E+02  0.14370601699E+03  0.12499650399E+03 0.  0.
          2    1    1    2  501    0  0.22831031095E+02  0.22720319068E+02 -0.13847425577E+03  0.14217098294E+03  0.00000000000E+00 0. -1.
          1    1    1    2  502    0 -0.36747552773E+02 -0.47915267385E+02  0.62424367284E+03  0.62715741132E+03  0.00000000000E+00 0. -1.
         22    1    3    3    0    0  0.36891315291E+02  0.78924740894E+01  0.27723202445E+02  0.46817050793E+02  0.00000000000E+00 0. -1.
         22    1    3    3    0    0 -0.22974793614E+02  0.17302474228E+02 -0.92521646192E+02  0.96888966193E+02  0.00000000000E+00 0. -1.
</event>
<event>
 7    1  0.6103724E-006  0.9734342E+02  0.7818608E-02  0.1473774E+00
          2   -1    0    0  502    0  0.00000000000E+00  0.00000000000E+00  0.12300799212E+04  0.12300799212E+04  0.00000000000E+00 0. -1.
          1   -1    0    0  501    0 -0.00000000000E+00 -0.00000000000E+00 -0.31732394422E+03  0.31732394422E+03  0.00000000000E+00 0. -1.
         25    2    1    2    0    0  0.88799596366E+02  0.65965313635E+01  0.16185690597E+02  0.15431367765E+03  0.12498740732E+03 0.  0.
          2    1    1    2  501    0  0.80206298971E+01 -0.19285580849E+02 -0.24573388218E+03  0.24661996064E+03  0.00000000000E+00 0. -1.
          1    1    1    2  502    0 -0.96820226263E+02  0.12689049485E+02  0.11423041686E+04  0.11464702271E+04  0.00000000000E+00 0. -1.
         22    1    3    3    0    0  0.39618626730E+02  0.61242723330E+02  0.31106335368E+02  0.79296348244E+02  0.00000000000E+00 0.  1.
         22    1    3    3    0    0  0.49180969635E+02 -0.54646191966E+02 -0.14920644771E+02  0.75017329405E+02  0.00000000000E+00 0.  1.
</event>
<event>
 7    1  0.6103724E-006  0.5618075E+02  0.7818608E-02  0.1549584E+00
          2   -1    0    0  502    0  0.00000000000E+00  0.00000000000E+00  0.31282220159E+04  0.31282220159E+04  0.00000000000E+00 0. -1.
          1   -1    0    0  501    0 -0.00000000000E+00 -0.00000000000E+00 -0.37172601296E+03  0.37172601296E+03  0.00000000000E+00 0. -1.
         25    2    1    2    0    0  0.76379919981E+02  0.12518716404E+02  0.16576633250E+04  0.16641704550E+04  0.12499997622E+03 0.  0.
          2    1    1    2  501    0 -0.54713126171E+02 -0.12637376219E+02 -0.36625248548E+03  0.37053220180E+03  0.00000000000E+00 0. -1.
          1    1    1    2  502    0 -0.21666793809E+02  0.11865981455E+00  0.14650851634E+04  0.14652453720E+04  0.00000000000E+00 0. -1.
         22    1    3    3    0    0  0.75207674667E+02 -0.41295568379E+02  0.12543618882E+04  0.12572928318E+04  0.00000000000E+00 0. -1.
         22    1    3    3    0    0  0.11722453139E+01  0.53814284783E+02  0.40330143672E+03  0.40687762320E+03  0.00000000000E+00 0. -1.
</event>
<event>
 7    1  0.6103724E-006  0.7194442E+02  0.7818608E-02  0.1521607E+00
          2   -1    0    0  502    0  0.00000000000E+00  0.00000000000E+00  0.55775656388E+02  0.55775656388E+02  0.00000000000E+00 0. -1.
          1   -1    0    0  501    0 -0.00000000000E+00 -0.00000000000E+00 -0.12770998976E+04  0.12770998976E+04  0.00000000000E+00 0. -1.
         25    2    1    2    0    0  0.42036228281E+02 -0.34943503326E+02 -0.43118410857E+03  0.45225294500E+03  0.12499959148E+03 0.  0.
          2    1    1    2  501    0  0.74513858455E+01 -0.18905923947E+02 -0.80561227343E+03  0.80586853284E+03  0.00000000000E+00 0. -1.
          1    1    1    2  502    0 -0.49487614126E+02  0.53849427272E+02  0.15472140737E+02  0.74754076200E+02  0.00000000000E+00 0. -1.
         22    1    3    3    0    0 -0.19784419717E+02 -0.22799437865E+02 -0.19864699632E+02  0.36136462499E+02  0.00000000000E+00 0. -1.
         22    1    3    3    0    0  0.61820647998E+02 -0.12144065461E+02 -0.41131940894E+03  0.41611648250E+03  0.00000000000E+00 0. -1.
</event>
<event>
 7    1  0.6103724E-006  0.9312451E+02  0.7818608E-02  0.1343914E+00
          2   -1    0    0  502    0  0.00000000000E+00  0.00000000000E+00  0.11223055657E+04  0.11223055657E+04  0.00000000000E+00 0. -1.
          1   -1    0    0  501    0 -0.00000000000E+00 -0.00000000000E+00 -0.20868515007E+04  0.20868515007E+04  0.00000000000E+00 0. -1.
         25    2    1    2    0    0  0.13752385796E+02 -0.33795148751E+02  0.11431286320E+02  0.13070994687E+03  0.12499270263E+03 0.  0.
          2    1    1    2  501    0  0.41985193634E+02 -0.43394235876E+02 -0.20246053896E+04  0.20255055664E+04  0.00000000000E+00 0. -1.
          1    1    1    2  502    0 -0.55737579429E+02  0.77189384626E+02  0.10486281683E+04  0.10529415531E+04  0.00000000000E+00 0. -1.
         22    1    3    3    0    0  0.40344993784E+02 -0.46542306777E+02 -0.38559814679E+02  0.72668866454E+02  0.00000000000E+00 0.  1.
         22    1    3    3    0    0 -0.26592607988E+02  0.12747158026E+02  0.49991100999E+02  0.58041080421E+02  0.00000000000E+00 0.  1.
</event>
<event>
 7    1  0.8886028E-006  0.7085153E+02  0.7818608E-02  0.1432955E+00
          2   -1    0    0  502    0  0.00000000000E+00  0.00000000000E+00  0.12452175623E+04  0.12452175623E+04  0.00000000000E+00 0. -1.
          1   -1    0    0  501    0 -0.00000000000E+00 -0.00000000000E+00 -0.99401213460E+03  0.99401213460E+03  0.00000000000E+00 0. -1.
         25    2    1    2    0    0 -0.87556969331E+02 -0.15809273574E+02 -0.10608816608E+03  0.18652167336E+03  0.12497791662E+03 0.  0.
          2    1    1    2  501    0  0.19071229115E+02  0.33687589672E+02 -0.84622493962E+03  0.84710991844E+03  0.00000000000E+00 0. -1.
          1    1    1    2  502    0  0.68485740216E+02 -0.17878316097E+02  0.12035185334E+04  0.12055981051E+04  0.00000000000E+00 0. -1.
         22    1    3    3    0    0 -0.57828853304E+02 -0.69371311721E+02 -0.48826547048E+02  0.10266736025E+03  0.00000000000E+00 0. -1.
         22    1    3    3    0    0 -0.29728116027E+02  0.53562038147E+02 -0.57261619029E+02  0.83854313108E+02  0.00000000000E+00 0. -1.
</event>
<event>
 7    1  0.6103724E-006  0.9878712E+02  0.7818608E-02  0.1324089E+00
          2   -1    0    0  502    0  0.00000000000E+00  0.00000000000E+00  0.28831920668E+04  0.28831920668E+04  0.00000000000E+00 0. -1.
          1   -1    0    0  501    0 -0.00000000000E+00 -0.00000000000E+00 -0.35052675761E+02  0.35052675761E+02  0.00000000000E+00 0. -1.
         25    2    1    2    0    0  0.52723469934E+02  0.37826968766E+02  0.12220663624E+04  0.12301552907E+04  0.12500080542E+03 0.  0.
          2    1    1    2  501    0 -0.10185400266E+03  0.87393968941E+01  0.56007284503E+02  0.11656513558E+03  0.00000000000E+00 0. -1.
          1    1    1    2  502    0  0.49130532723E+02 -0.46566365660E+02  0.15700657442E+04  0.15715243163E+04  0.00000000000E+00 0. -1.
         22    1    3    3    0    0  0.31416277951E+02  0.60734766725E+02  0.30566376381E+03  0.31321882274E+03  0.00000000000E+00 0. -1.
         22    1    3    3    0    0  0.21307191983E+02 -0.22907797959E+02  0.91640259855E+03  0.91693646795E+03  0.00000000000E+00 0. -1.
</event>
<event>
 7    1  0.6103724E-006  0.6456889E+02  0.7818608E-02  0.1527862E+00
          2   -1    0    0  502    0  0.00000000000E+00  0.00000000000E+00  0.54886386188E+02  0.54886386188E+02  0.00000000000E+00 0. -1.
          1   -1    0    0  501    0 -0.00000000000E+00 -0.00000000000E+00 -0.13785376419E+04  0.13785376419E+04  0.00000000000E+00 0. -1.
         25    2    1    2    0    0 -0.36037669619E+01 -0.50735049426E+02 -0.53276726715E+03  0.54959521205E+03  0.12500761491E+03 0.  0.
          2    1    1    2  501    0  0.17380506354E+02 -0.13027656683E+02 -0.81424748925E+03  0.81453715421E+03  0.00000000000E+00 0. -1.
          1    1    1    2  502    0 -0.13776739392E+02  0.63762706110E+02  0.23363500665E+02  0.69291661850E+02  0.00000000000E+00 0. -1.
         22    1    3    3    0    0 -0.63337707712E+02 -0.31886623006E+02 -0.32209645740E+03  0.32980986918E+03  0.00000000000E+00 0. -1.
         22    1    3    3    0    0  0.59733940750E+02 -0.18848426421E+02 -0.21067080975E+03  0.21978534286E+03  0.00000000000E+00 0. -1.
</event>
<event>
 7    1  0.6103724E-006  0.7806468E+02  0.7818608E-02  0.1494144E+00
          2   -1    0    0  502    0  0.00000000000E+00  0.00000000000E+00  0.27136422900E+03  0.27136422900E+03  0.00000000000E+00 0. -1.
          1   -1    0    0  501    0 -0.00000000000E+00 -0.00000000000E+00 -0.21771071628E+03  0.21771071628E+03  0.00000000000E+00 0. -1.
         25    2    1    2    0    0  0.86826790041E+02  0.11865570271E+02 -0.90157337577E+02  0.17729578019E+03  0.12500305967E+03 0.  0.
          2    1    1    2  501    0 -0.95886241813E+01 -0.20434638293E+02 -0.75660337105E+02  0.78955701293E+02  0.00000000000E+00 0. -1.
          1    1    1    2  502    0 -0.77238165860E+02  0.85690680225E+01  0.21947118740E+03  0.23282346379E+03  0.00000000000E+00 0. -1.
         22    1    3    3    0    0 -0.20885969565E+02 -0.20494361085E+02 -0.49885673780E+02  0.57834444836E+02  0.00000000000E+00 0. -1.
         22    1    3    3    0    0  0.10771275961E+03  0.32359931356E+02 -0.40271663797E+02  0.11946133535E+03  0.00000000000E+00 0. -1.
</event>
<event>
 7    1  0.6103724E-006  0.1502571E+03  0.7818608E-02  0.1342170E+00
          2   -1    0    0  502    0  0.00000000000E+00  0.00000000000E+00  0.37117010959E+03  0.37117010959E+03  0.00000000000E+00 0. -1.
          1   -1    0    0  501    0 -0.00000000000E+00 -0.00000000000E+00 -0.18938584077E+04  0.18938584077E+04  0.00000000000E+00 0. -1.
         25    2    1    2    0    0  0.13302144634E+03 -0.50398753862E+02 -0.31727899237E+02  0.19201254049E+03  0.12500966579E+03 0.  0.
          2    1    1    2  501    0 -0.82754752961E+01 -0.37076526694E+02 -0.17618284418E+04  0.17622379552E+04  0.00000000000E+00 0. -1.
          1    1    1    2  502    0 -0.12474597104E+03  0.87475280556E+02  0.27086804297E+03  0.31077802158E+03  0.00000000000E+00 0. -1.
         22    1    3    3    0    0  0.19588950695E+02 -0.24017816023E+01 -0.62094402135E+02  0.65155278533E+02  0.00000000000E+00 0.  1.
         22    1    3    3    0    0  0.11343249564E+03 -0.47996972259E+02  0.30366502898E+02  0.12685726196E+03  0.00000000000E+00 0.  1.
</event>
<event>
 7    1  0.6103724E-006  0.6766619E+02  0.7818608E-02  0.1442867E+00
          2   -1    0    0  502    0  0.00000000000E+00  0.00000000000E+00  0.85071845476E+03  0.85071845476E+03  0.00000000000E+00 0. -1.
          1   -1    0    0  501    0 -0.00000000000E+00 -0.00000000000E+00 -0.66115882436E+03  0.66115882436E+03  0.00000000000E+00 0. -1.
         25    2    1    2    0    0 -0.81755683543E+02  0.59842300870E+02  0.21645200986E+03  0.26970659681E+03  0.12500033209E+03 0.  0.
          2    1    1    2  501    0  0.34896461723E+02 -0.14084352959E+02 -0.63220554927E+03  0.63332455231E+03  0.00000000000E+00 0. -1.
          1    1    1    2  502    0  0.46859221820E+02 -0.45757947911E+02  0.60531316981E+03  0.60884613000E+03  0.00000000000E+00 0. -1.
         22    1    3    3    0    0  0.12378317523E+02  0.65436227841E+02  0.90872699120E+02  0.11266308226E+03  0.00000000000E+00 0. -1.
         22    1    3    3    0    0 -0.94134001066E+02 -0.55939269712E+01  0.12557931074E+03  0.15704351455E+03  0.00000000000E+00 0. -1.
</event>
<event>
 7    1  0.6103724E-006  0.6841053E+02  0.7818608E-02  0.1404303E+00
          2   -1    0    0  502    0  0.00000000000E+00  0.00000000000E+00  0.94354281518E+03  0.94354281518E+03  0.00000000000E+00 0. -1.
          1   -1    0    0  501    0 -0.00000000000E+00 -0.00000000000E+00 -0.28994769209E+02  0.28994769209E+02  0.00000000000E+00 0. -1.
         25    2    1    2    0    0 -0.45305325442E+02  0.19504406009E+02  0.40183858855E+03  0.42371214166E+03  0.12499893350E+03 0.  0.
          2    1    1    2  501    0  0.11124219175E+02  0.48745773289E+02  0.26359323550E+02  0.56521788753E+02  0.00000000000E+00 0. -1.
          1    1    1    2  502    0  0.34181106267E+02 -0.68250179299E+02  0.48635013387E+03  0.49230365398E+03  0.00000000000E+00 0. -1.
         22    1    3    3    0    0  0.11666374304E+01  0.59104457812E+02  0.29312533819E+03  0.29902702531E+03  0.00000000000E+00 0. -1.
         22    1    3    3    0    0 -0.46471962872E+02 -0.39600051803E+02  0.10871325036E+03  0.12468511635E+03  0.00000000000E+00 0. -1.
</event>
<event>
 7    1  0.6103724E-006  0.6902891E+02  0.7818608E-02  0.1389409E+00
          2   -1    0    0  502    0  0.00000000000E+00  0.00000000000E+00  0.74520137823E+03  0.74520137823E+03  0.00000000000E+00 0. -1.
          1   -1    0    0  501    0 -0.00000000000E+00 -0.00000000000E+00 -0.22639077105E+03  0.22639077105E+03  0.00000000000E+00 0. -1.
         25    2    1    2    0    0  0.37791599101E+02  0.52538578717E+02 -0.33740910089E+02  0.14475406391E+03  0.12500713095E+03 0.  0.
          2    1    1    2  501    0  0.31454476984E+02 -0.46070174206E+02 -0.12962859139E+03  0.14112199255E+03  0.00000000000E+00 0. -1.
          1    1    1    2  502    0 -0.69246076085E+02 -0.64684045114E+01  0.68218010866E+03  0.68571609283E+03  0.00000000000E+00 0. -1.
         22    1    3    3    0    0  0.56211845169E+02  0.59543971510E+01  0.29752915586E+02  0.63878496919E+02  0.00000000000E+00 0.  1.
         22    1    3    3    0    0 -0.18420246068E+02  0.46584181566E+02 -0.63493825675E+02  0.80875566992E+02  0.00000000000E+00 0.  1.
</event>
<event>
 7    1  0.6103724E-006  0.7382075E+02  0.7818608E-02  0.1353408E+00
          2   -1    0    0  502    0  0.00000000000E+00  0.00000000000E+00  0.16332895691E+04  0.16332895691E+04  0.00000000000E+00 0. -1.
          1   -1    0    0  501    0 -0.00000000000E+00 -0.00000000000E+00 -0.22176694529E+04  0.22176694529E+04  0.00000000000E+00 0. -1.
         25    2    1    2    0    0 -0.80796865997E+02  0.47839786382E+02 -0.30264274469E+01  0.15636783671E+03  0.12499984951E+03 0.  0.
          2    1    1    2  501    0  0.70662432432E+02  0.21657056196E+02 -0.21365408605E+04  0.21378187613E+04  0.00000000000E+00 0. -1.
          1    1    1    2  502    0  0.10134433565E+02 -0.69496842578E+02  0.15551874042E+04  0.15567724240E+04  0.00000000000E+00 0. -1.
         22    1    3    3    0    0  0.97611945058E+01  0.57620419846E+02  0.21113841948E+02  0.62138458488E+02  0.00000000000E+00 0. -1.
         22    1    3    3    0    0 -0.90558060503E+02 -0.97806334646E+01 -0.24140269395E+02  0.94229378218E+02  0.00000000000E+00 0. -1.
</event>
<event>
 7    1  0.6103724E-006  0.8660727E+02  0.7818608E-02  0.1350207E+00
          2   -1    0    0  502    0  0.00000000000E+00  0.00000000000E+00  0.13318448114E+04  0.13318448114E+04  0.00000000000E+00 0. -1.
          1   -1    0    0  501    0 -0.00000000000E+00 -0.00000000000E+00 -0.71561912069E+03  0.71561912069E+03  0.00000000000E+00 0. -1.
         25    2    1    2    0    0 -0.73173727646E+00 -0.36557072590E+02  0.24856021061E+03  0.28061303582E+03  0.12499817031E+03 0.  0.
          2    1    1    2  501    0  0.52710102969E+02  0.69457524727E+02 -0.69598372759E+03  0.70142430224E+03  0.00000000000E+00 0. -1.
          1    1    1    2  502    0 -0.51978365692E+02 -0.32900452137E+02  0.10636492077E+04  0.10654265940E+04  0.00000000000E+00 0. -1.
         22    1    3    3    0    0  0.18773416549E+02 -0.53942215857E+02  0.24798589624E+03  0.25447830665E+03  0.00000000000E+00 0.  1.
         22    1    3    3    0    0 -0.19505153825E+02  0.17385143267E+02  0.57431437129E+00  0.26134729177E+02  0.00000000000E+00 0.  1.
</event>
<event>
 7    1  0.6103724E-006  0.1570403E+03  0.7818608E-02  0.1229699E+00
          2   -1    0    0  502    0  0.00000000000E+00  0.00000000000E+00  0.12466615222E+04  0.12466615222E+04  0.00000000000E+00 0. -1.
          1   -1    0    0  501    0 -0.00000000000E+00 -0.00000000000E+00 -0.88530133589E+03  0.88530133589E+03  0.00000000000E+00 0. -1.
         25    2    1    2    0    0 -0.24715514833E+02 -0.10148166448E+03 -0.10596396544E+03  0.19432897036E+03  0.12500400734E+03 0.  0.
          2    1    1    2  501    0  0.12895675429E+03  0.11524896331E+03 -0.72263241654E+03  0.74304089891E+03  0.00000000000E+00 0. -1.
          1    1    1    2  502    0 -0.10424123946E+03 -0.13767298834E+02  0.11899565683E+04  0.11945929889E+04  0.00000000000E+00 0. -1.
         22    1    3    3    0    0 -0.45487095883E+02 -0.33268948441E+02  0.10928147961E+02  0.57404906062E+02  0.00000000000E+00 0.  1.
         22    1    3    3    0    0  0.20771581050E+02 -0.68212716036E+02 -0.11689211340E+03  0.13692406429E+03  0.00000000000E+00 0.  1.
</event>
<event>
 7    1  0.6103724E-006  0.6320162E+02  0.7818608E-02  0.1439290E+00
          2   -1    0    0  502    0  0.00000000000E+00  0.00000000000E+00  0.77441591821E+03  0.77441591821E+03  0.00000000000E+00 0. -1.
          1   -1    0    0  501    0 -0.00000000000E+00 -0.00000000000E+00 -0.48271665663E+03  0.48271665663E+03  0.00000000000E+00 0. -1.
         25    2    1    2    0    0 -0.75929070202E+02 -0.14981379551E+02  0.22758446906E+03  0.27094285429E+03  0.12500269716E+03 0.  0.
          2    1    1    2  501    0  0.58942675474E+02 -0.22751171139E+02 -0.45805049358E+03  0.46238740192E+03  0.00000000000E+00 0. -1.
          1    1    1    2  502    0  0.16986394728E+02  0.37732550689E+02  0.52216528610E+03  0.52380231862E+03  0.00000000000E+00 0. -1.
         22    1    3    3    0    0 -0.23353081883E+02 -0.43239286180E+02  0.16901601314E+02  0.51967936555E+02  0.00000000000E+00 0.  1.
         22    1    3    3    0    0 -0.52575988319E+02  0.28257906630E+02  0.21068286775E+03  0.21897491774E+03  0.00000000000E+00 0.  1.
</event>
<event>
 7    1  0.6103724E-006  0.4709476E+02  0.7818608E-02  0.1497358E+00
          2   -1    0    0  502    0  0.00000000000E+00  0.00000000000E+00  0.87677535636E+03  0.87677535636E+03  0.00000000000E+00 0. -1.
          1   -1    0    0  501    0 -0.00000000000E+00 -0.00000000000E+00 -0.49344255888E+02  0.49344255888E+02  0.00000000000E+00 0. -1.
         25    2    1    2    0    0  0.83249479617E+01  0.50553796956E+02  0.19717937542E+03  0.23901738206E+03  0.12499844676E+03 0.  0.
          2    1    1    2  501    0  0.29425824181E+02 -0.21754393318E+02 -0.15403158380E+02  0.39703778730E+02  0.00000000000E+00 0. -1.
          1    1    1    2  502    0 -0.37750772143E+02 -0.28799403638E+02  0.64565488343E+03  0.64739845145E+03  0.00000000000E+00 0. -1.
         22    1    3    3    0    0 -0.21403164415E+02 -0.25077835815E+02  0.92072290411E+01  0.34231073059E+02  0.00000000000E+00 0.  1.
         22    1    3    3    0    0  0.29728112377E+02  0.75631632770E+02  0.18797214638E+03  0.20478630900E+03  0.00000000000E+00 0.  1.
</event>
<event>
 7    1  0.6103724E-006  0.4501984E+02  0.7818608E-02  0.1568026E+00
          2   -1    0    0  502    0  0.00000000000E+00  0.00000000000E+00  0.16070077672E+04  0.16070077672E+04  0.00000000000E+00 0. -1.
          1   -1    0    0  501    0 -0.00000000000E+00 -0.00000000000E+00 -0.10377319906E+04  0.10377319906E+04  0.00000000000E+00 0. -1.
         25    2    1    2    0    0  0.13555564238E+02  0.28969496537E+02 -0.42968213277E+03  0.44863616059E+03  0.12499873726E+03 0.  0.
          2    1    1    2  501    0 -0.37568148830E+02 -0.27607279501E+02 -0.59757433523E+03  0.59939020163E+03  0.00000000000E+00 0. -1.
          1    1    1    2  502    0  0.24012584592E+02 -0.13622170365E+01  0.15965322445E+04  0.15967133956E+04  0.00000000000E+00 0. -1.
         22    1    3    3    0    0 -0.40886087125E+02  0.54535184245E+02 -0.20448528803E+03  0.21554579899E+03  0.00000000000E+00 0. -1.
         22    1    3    3    0    0  0.54441651363E+02 -0.25565687708E+02 -0.22519684474E+03  0.23309036160E+03  0.00000000000E+00 0. -1.
</event>
<event>
 7    1  0.6103724E-006  0.4983024E+02  0.7818608E-02  0.1497676E+00
          2   -1    0    0  502    0  0.00000000000E+00  0.00000000000E+00  0.62648724276E+03  0.62648724276E+03  0.00000000000E+00 0. -1.
          1   -1    0    0  501    0 -0.00000000000E+00 -0.00000000000E+00 -0.96693687995E+03  0.96693687995E+03  0.00000000000E+00 0. -1.
         25    2    1    2    0    0 -0.19424920086E+02 -0.31659387146E+01 -0.41582369508E+03  0.43464789046E+03  0.12498836989E+03 0.  0.
          2    1    1    2  501    0 -0.26994293605E+02  0.21499216306E+02 -0.54014040756E+03  0.54124169100E+03  0.00000000000E+00 0. -1.
          1    1    1    2  502    0  0.46419213691E+02 -0.18333277591E+02  0.61551446544E+03  0.61753454125E+03  0.00000000000E+00 0. -1.
         22    1    3    3    0    0  0.28971973468E+02  0.47275365239E+02 -0.15498873270E+03  0.16460814885E+03  0.00000000000E+00 0.  1.
         22    1    3    3    0    0 -0.48396893554E+02 -0.50441303953E+02 -0.26083496238E+03  0.27003974161E+03  0.00000000000E+00 0.  1.
</event>
<event>
 7    1  0.6103724E-006  0.2600001E+03  0.7818608E-02  0.1326793E+00
          2   -1    0    0  502    0  0.00000000000E+00  0.00000000000E+00  0.25718445876E+04  0.25718445876E+04  0.00000000000E+00 0. -1.
          1   -1    0    0  501    0 -0.00000000000E+00 -0.00000000000E+00 -0.44757373232E+03  0.44757373232E+03  0.00000000000E+00 0. -1.
         25    2    1    2    0    0  0.17465576611E+03 -0.16381483465E+03  0.14970608961E+04  0.15212352188E+04  0.12500130953E+03 0.  0.
          2    1    1    2  501    0 -0.19948017470E+03  0.16759654683E+03 -0.39635035289E+03  0.47431481617E+03  0.00000000000E+00 0. -1.
          1    1    1    2  502    0  0.24824408590E+02 -0.37817121760E+01  0.10235603121E+04  0.10238682850E+04  0.00000000000E+00 0. -1.
         22    1    3    3    0    0  0.19243400713E+02 -0.81372835419E-01  0.43605491869E+03  0.43647933193E+03  0.00000000000E+00 0.  1.
         22    1    3    3    0    0  0.15541236540E+03 -0.16373346182E+03  0.10610059774E+04  0.10847558868E+04  0.00000000000E+00 0.  1.
</event>
<event>
 7    1  0.6103724E-006  0.1100588E+03  0.7818608E-02  0.1356476E+00
          2   -1    0    0  502    0  0.00000000000E+00  0.00000000000E+00  0.21000637718E+03  0.21000637718E+03  0.00000000000E+00 0. -1.
          1   -1    0    0  501    0 -0.00000000000E+00 -0.00000000000E+00 -0.18248041953E+04  0.18248041953E+04  0.00000000000E+00 0. -1.
         25    2    1    2    0    0 -0.71981251476E+02 -0.34766176815E+01 -0.59899337140E+03  0.61612633328E+03  0.12500084860E+03 0.  0.
          2    1    1    2  501    0 -0.36358760186E+02  0.28014119645E+02 -0.12014584379E+04  0.12023348653E+04  0.00000000000E+00 0. -1.
          1    1    1    2  502    0  0.10834001166E+03 -0.24537501964E+02  0.18565399119E+03  0.21634937387E+03  0.00000000000E+00 0. -1.
         22    1    3    3    0    0 -0.71266133281E+02  0.97459578548E+01 -0.14423891894E+03  0.16117912764E+03  0.00000000000E+00 0. -1.
         22    1    3    3    0    0 -0.71511819446E+00 -0.13222575536E+02 -0.45475445246E+03  0.45494720565E+03  0.00000000000E+00 0. -1.
</event>
<event>
 7    1  0.6103724E-006  0.4291116E+02  0.7818608E-02  0.1541802E+00
          2   -1    0    0  502    0  0.00000000000E+00  0.00000000000E+00  0.72365807084E+03  0.72365807084E+03  0.00000000000E+00 0. -1.
          1   -1    0    0  501    0 -0.00000000000E+00 -0.00000000000E+00 -0.59509370546E+03  0.59509370546E+03  0.00000000000E+00 0. -1.
         25    2    1    2    0    0 -0.32523976383E+02  0.45979816982E+02 -0.74947734912E+00  0.13710376305E+03  0.12499971006E+03 0.  0.
          2    1    1    2  501    0 -0.68416936461E+01 -0.29034680863E+02 -0.52504273195E+03  0.52588942929E+03  0.00000000000E+00 0. -1.
          1    1    1    2  502    0  0.39365670029E+02 -0.16945136119E+02  0.65435657468E+03  0.65575858396E+03  0.00000000000E+00 0. -1.
         22    1    3    3    0    0  0.48215295119E+02  0.16366919163E+02  0.31686255907E+01  0.51015986851E+02  0.00000000000E+00 0. -1.
         22    1    3    3    0    0 -0.80739271501E+02  0.29612897819E+02 -0.39181029398E+01  0.86087776196E+02  0.00000000000E+00 0. -1.
</event>
<event>
 7    1  0.6103724E-006  0.9221291E+02  0.7818608E-02  0.1427291E+00
          2   -1    0    0  502    0  0.00000000000E+00  0.00000000000E+00  0.12664113662E+04  0.12664113662E+04  0.00000000000E+00 0. -1.
          1   -1    0    0  501    0 -0.00000000000E+00 -0.00000000000E+00 -0.83991287339E+03  0.83991287339E+03  0.00000000000E+00 0. -1.
         25    2    1    2    0    0  0.73551034425E+02  0.16004900547E+02 -0.18786259625E+03  0.23787185438E+03  0.12499901012E+03 0.  0.
          2    1    1    2  501    0  0.18387061309E+02 -0.25018519880E+02 -0.62494112521E+03  0.62571193079E+03  0.00000000000E+00 0. -1.
          1    1    1    2  502    0 -0.91938095735E+02  0.90136193333E+01  0.12393022142E+04  0.12427404544E+04  0.00000000000E+00 0. -1.
         22    1    3    3    0    0  0.57921052565E+02  0.52937384374E+02 -0.18087722262E+03  0.19716435950E+03  0.00000000000E+00 0. -1.
         22    1    3    3    0    0  0.15629981860E+02 -0.36932483827E+02 -0.69853736226E+01  0.40707494878E+02  0.00000000000E+00 0. -1.
</event>
<event>
 7    1  0.6103724E-006  0.8803921E+02  0.7818608E-02  0.1324212E+00
          2   -1    0    0  502    0  0.00000000000E+00  0.00000000000E+00  0.12458870762E+04  0.12458870762E+04  0.00000000000E+00 0. -1.
          1   -1    0    0  501    0 -0.00000000000E+00 -0.00000000000E+00 -0.37063163416E+03  0.37063163416E+03  0.00000000000E+00 0. -1.
         25    2    1    2    0    0 -0.93229233965E+01 -0.61813947493E+02  0.93104661207E+02  0.16793065815E+03  0.12499738798E+03 0.  0.
          2    1    1    2  501    0 -0.72406399396E+02  0.22673724853E+02 -0.32702771761E+03  0.33571403390E+03  0.00000000000E+00 0. -1.
          1    1    1    2  502    0  0.81729322793E+02  0.39140222640E+02  0.11091784984E+04  0.11128740183E+04  0.00000000000E+00 0. -1.
         22    1    3    3    0    0 -0.41300002618E+02 -0.75324406861E+02  0.10073328658E+03  0.13238826047E+03  0.00000000000E+00 0.  1.
         22    1    3    3    0    0  0.31977079221E+02  0.13510459367E+02 -0.76286253710E+01  0.35542397681E+02  0.00000000000E+00 0.  1.
</event>
<event>
 7    1  0.6103724E-006  0.1496030E+03  0.7818608E-02  0.1235341E+00
          2   -1    0    0  502    0  0.00000000000E+00  0.00000000000E+00  0.25614556902E+03  0.25614556902E+03  0.00000000000E+00 0. -1.
          1   -1    0    0  501    0 -0.00000000000E+00 -0.00000000000E+00 -0.82708126888E+03  0.82708126888E+03  0.00000000000E+00 0. -1.
         25    2    1    2    0    0  0.50942878902E+02 -0.19157003534E+03 -0.11279451276E+03  0.26008057077E+03  0.12500018333E+03 0.  0.
          2    1    1    2  501    0 -0.90511121294E+02  0.51533356493E+02 -0.60647360557E+03  0.61535208147E+03  0.00000000000E+00 0. -1.
          1    1    1    2  502    0  0.39568242392E+02  0.14003667885E+03  0.14833241847E+03  0.20779418567E+03  0.00000000000E+00 0. -1.
         22    1    3    3    0    0  0.33097799751E+02 -0.36214247393E+02 -0.89380849216E+02  0.10196015040E+03  0.00000000000E+00 0.  1.
         22    1    3    3    0    0  0.17845079151E+02 -0.15535578795E+03 -0.23413663540E+02  0.15812042037E+03  0.00000000000E+00 0.  1.
</event>
<event>
 7    1  0.6103724E-006  0.6758166E+02  0.7818608E-02  0.1388883E+00
          2   -1    0    0  502    0  0.00000000000E+00  0.00000000000E+00  0.29439840045E+04  0.29439840045E+04  0.00000000000E+00 0. -1.
          1   -1    0    0  501    0 -0.00000000000E+00 -0.00000000000E+00 -0.19329376870E+03  0.19329376870E+03  0.00000000000E+00 0. -1.
         25    2    1    2    0    0 -0.38288271163E+01 -0.48240514650E+02  0.35067532693E+03  0.37541977293E+03  0.12500005527E+03 0.  0.
          2    1    1    2  501    0  0.57061559081E+02  0.42538846258E+01 -0.17592300892E+03  0.18499465432E+03  0.00000000000E+00 0. -1.
          1    1    1    2  502    0 -0.53232731965E+02  0.43986630024E+02  0.25759379178E+04  0.25768633460E+04  0.00000000000E+00 0. -1.
         22    1    3    3    0    0 -0.91913846292E+01 -0.34942743914E+02  0.14489672582E+02  0.38928492331E+02  0.00000000000E+00 0.  1.
         22    1    3    3    0    0  0.53625575130E+01 -0.13297770735E+02  0.33618565435E+03  0.33649128060E+03  0.00000000000E+00 0.  1.
</event>
<event>
 7    1  0.6103724E-006  0.8079850E+02  0.7818608E-02  0.1388445E+00
          2   -1    0    0  502    0  0.00000000000E+00  0.00000000000E+00  0.23018277103E+04  0.23018277103E+04  0.00000000000E+00 0. -1.
          1   -1    0    0  501    0 -0.00000000000E+00 -0.00000000000E+00 -0.42614662686E+02  0.42614662686E+02  0.00000000000E+00 0. -1.
         25    2    1    2    0    0 -0.70724866292E+02  0.51937996862E+02  0.16081946767E+04  0.16154300278E+04  0.12499797724E+03 0.  0.
          2    1    1    2  501    0 -0.10750952126E+02 -0.46810230565E+02 -0.20737070347E+02  0.52314498409E+02  0.00000000000E+00 0. -1.
          1    1    1    2  502    0  0.81475818418E+02 -0.51277662968E+01  0.67175544130E+03  0.67669784682E+03  0.00000000000E+00 0. -1.
         22    1    3    3    0    0 -0.13466299736E+02 -0.67848970196E+01  0.11404033371E+04  0.11405030238E+04  0.00000000000E+00 0. -1.
         22    1    3    3    0    0 -0.57258566556E+02  0.58722893882E+02  0.46779133959E+03  0.47492700398E+03  0.00000000000E+00 0. -1.
</event>
<event>
 7    1  0.6103724E-006  0.1577153E+03  0.7818608E-02  0.1224427E+00
          2   -1    0    0  502    0  0.00000000000E+00  0.00000000000E+00  0.28458766789E+04  0.28458766789E+04  0.00000000000E+00 0. -1.
          1   -1    0    0  501    0 -0.00000000000E+00 -0.00000000000E+00 -0.32252260424E+03  0.32252260424E+03  0.00000000000E+00 0. -1.
         25    2    1    2    0    0 -0.10574493581E+02 -0.14208930958E+02  0.60884751082E+03  0.62179927124E+03  0.12500131459E+03 0.  0.
          2    1    1    2  501    0 -0.12296086340E+03  0.98766123497E+02 -0.29336819458E+03  0.33307509465E+03  0.00000000000E+00 0. -1.
          1    1    1    2  502    0  0.13353535698E+03 -0.84557192540E+02  0.22078747584E+04  0.22135249172E+04  0.00000000000E+00 0. -1.
         22    1    3    3    0    0  0.55654838427E+02  0.75683175216E+01  0.29533217429E+03  0.30062573682E+03  0.00000000000E+00 0. -1.
         22    1    3    3    0    0 -0.66229332008E+02 -0.21777248479E+02  0.31351533653E+03  0.32117353441E+03  0.00000000000E+00 0. -1.
</event>
<event>
 7    1  0.6103724E-006  0.9071527E+02  0.7818608E-02  0.1438373E+00
          2   -1    0    0  502    0  0.00000000000E+00  0.00000000000E+00  0.11403178355E+04  0.11403178355E+04  0.00000000000E+00 0. -1.
          1   -1    0    0  501    0 -0.00000000000E+00 -0.00000000000E+00 -0.70584121376E+03  0.70584121376E+03  0.00000000000E+00 0. -1.
         25    2    1    2    0    0 -0.84974545237E+02 -0.66695123341E+02 -0.35226403309E+03  0.38907878318E+03  0.12499375063E+03 0.  0.
          2    1    1    2  501    0  0.55982338835E+02  0.65257911246E+02 -0.32946392503E+03  0.34049830416E+03  0.00000000000E+00 0. -1.
          1    1    1    2  502    0  0.28992206402E+02  0.14372120945E+01  0.11162045798E+04  0.11165819619E+04  0.00000000000E+00 0. -1.
         22    1    3    3    0    0 -0.73391655507E+02 -0.99065720403E+02 -0.31554945531E+03  0.33877988548E+03  0.00000000000E+00 0.  1.
         22    1    3    3    0    0 -0.11582889731E+02  0.32370597062E+02 -0.36714577776E+02  0.50298897701E+02  0.00000000000E+00 0.  1.
</event>
<event>
 7    1  0.6103724E-006  0.1100102E+03  0.7818608E-02  0.1340300E+00
          2   -1    0    0  502    0  0.00000000000E+00  0.00000000000E+00  0.17518807145E+04  0.17518807145E+04  0.00000000000E+00 0. -1.
          1   -1    0    0  501    0 -0.00000000000E+00 -0.00000000000E+00 -0.79941489018E+03  0.79941489018E+03  0.00000000000E+00 0. -1.
         25    2    1    2    0    0  0.45202441637E+02 -0.65895067574E+02  0.27541090965E+03  0.31284347877E+03  0.12503780387E+03 0.  0.
          2    1    1    2  501    0  0.52369458498E+02  0.61809113858E+01 -0.77755997210E+03  0.77934605540E+03  0.00000000000E+00 0. -1.
          1    1    1    2  502    0 -0.97571900135E+02  0.59714156188E+02  0.14546148868E+04  0.14591060705E+04  0.00000000000E+00 0. -1.
         22    1    3    3    0    0  0.35765180961E+02 -0.99414643735E+02  0.24422214359E+03  0.26609561248E+03  0.00000000000E+00 0. -1.
         22    1    3    3    0    0  0.94372606763E+01  0.33519576161E+02  0.31188766055E+02  0.46747866295E+02  0.00000000000E+00 0. -1.
</event>
<event>
 7    1  0.6103724E-006  0.7740752E+02  0.7818608E-02  0.1392432E+00
          2   -1    0    0  502    0  0.00000000000E+00  0.00000000000E+00  0.17049323300E+03  0.17049323300E+03  0.00000000000E+00 0. -1.
          1   -1    0    0  501    0 -0.00000000000E+00 -0.00000000000E+00 -0.14215342279E+04  0.14215342279E+04  0.00000000000E+00 0. -1.
         25    2    1    2    0    0  0.63590542081E+02 -0.19304231312E+02 -0.93323713197E+03  0.94391354113E+03  0.12499927298E+03 0.  0.
          2    1    1    2  501    0 -0.61126932332E+02  0.67795324686E+02 -0.47494754521E+03  0.48364023676E+03  0.00000000000E+00 0. -1.
          1    1    1    2  502    0 -0.24636097496E+01 -0.48491093373E+02  0.15714368231E+03  0.16447368300E+03  0.00000000000E+00 0. -1.
         22    1    3    3    0    0  0.65652224565E+02  0.43430333685E+02 -0.53505235810E+03  0.54081182900E+03  0.00000000000E+00 0. -1.
         22    1    3    3    0    0 -0.20616824840E+01 -0.62734564997E+02 -0.39818477387E+03  0.40310171213E+03  0.00000000000E+00 0. -1.
</event>
<event>
 7    1  0.6103724E-006  0.2224626E+03  0.7818608E-02  0.1279790E+00
          2   -1    0    0  502    0  0.00000000000E+00  0.00000000000E+00  0.17779045755E+04  0.17779045755E+04  0.00000000000E+00 0. -1.
          1   -1    0    0  501    0 -0.00000000000E+00 -0.00000000000E+00 -0.45990760351E+03  0.45990760351E+03  0.00000000000E+00 0. -1.
         25    2    1    2    0    0 -0.98151736589E+02 -0.17666608945E+03  0.46222555206E+03  0.51973338207E+03  0.12500262760E+03 0.  0.
          2    1    1    2  501    0  0.14309506213E+03  0.17216176167E+03 -0.40166166997E+03  0.45983471607E+03  0.00000000000E+00 0. -1.
          1    1    1    2  502    0 -0.44943325540E+02  0.45043277746E+01  0.12574330898E+04  0.12582440808E+04  0.00000000000E+00 0. -1.
         22    1    3    3    0    0 -0.28664641323E+01 -0.64160090328E+02  0.48372477520E+02  0.80402925251E+02  0.00000000000E+00 0. -1.
         22    1    3    3    0    0 -0.95285272457E+02 -0.11250599912E+03  0.41385307454E+03  0.43933045682E+03  0.00000000000E+00 0. -1.
</event>
<event>
 7    1  0.6103724E-006  0.9493392E+02  0.7818608E-02  0.1413434E+00
          2   -1    0    0  502    0  0.00000000000E+00  0.00000000000E+00  0.84052886095E+02  0.84052886095E+02  0.00000000000E+00 0. -1.
          1   -1    0    0  501    0 -0.00000000000E+00 -0.00000000000E+00 -0.10238160957E+04  0.10238160957E+04  0.00000000000E+00 0. -1.
         25    2    1    2    0    0  0.55546682209E+02 -0.34477670968E+02 -0.30155978749E+02  0.14425076626E+03  0.12499902724E+03 0.  0.
          2    1    1    2  501    0 -0.72338588081E+02  0.63521095364E+02 -0.92262416541E+03  0.92763309098E+03  0.00000000000E+00 0. -1.
          1    1    1    2  502    0  0.16791905872E+02 -0.29043424396E+02  0.13016934564E+02  0.35985124550E+02  0.00000000000E+00 0. -1.
         22    1    3    3    0    0  0.71867392415E+02  0.24993911295E+02 -0.11466566636E+01  0.76098176823E+02  0.00000000000E+00 0. -1.
         22    1    3    3    0    0 -0.16320710206E+02 -0.59471582262E+02 -0.29009322086E+02  0.68152589432E+02  0.00000000000E+00 0. -1.
</event>
<event>
 7    1  0.6103724E-006  0.3381021E+02  0.7818608E-02  0.1617269E+00
          2   -1    0    0  502    0  0.00000000000E+00  0.00000000000E+00  0.28985622940E+04  0.28985622940E+04  0.00000000000E+00 0. -1.
          1   -1    0    0  501    0 -0.00000000000E+00 -0.00000000000E+00 -0.28569255069E+02  0.28569255069E+02  0.00000000000E+00 0. -1.
         25    2    1    2    0    0  0.53633921500E+01  0.26846570871E+02  0.17348733350E+04  0.17395856614E+04  0.12499312200E+03 0.  0.
          2    1    1    2  501    0  0.23012650396E+02 -0.58508399966E+01 -0.20510522489E+02  0.31376678277E+02  0.00000000000E+00 0. -1.
          1    1    1    2  502    0 -0.28376042546E+02 -0.20995730875E+02  0.11556302265E+04  0.11561692095E+04  0.00000000000E+00 0. -1.
         22    1    3    3    0    0 -0.22335499312E+02  0.19558675686E+02  0.96538490857E+02  0.10100047793E+03  0.00000000000E+00 0.  1.
         22    1    3    3    0    0  0.27698891462E+02  0.72878951855E+01  0.16383348441E+04  0.16385851834E+04  0.00000000000E+00 0.  1.
</event>
<event>
 7    1  0.6103724E-006  0.5576458E+02  0.7818608E-02  0.1484167E+00
          2   -1    0    0  502    0  0.00000000000E+00  0.00000000000E+00  0.63304277096E+02  0.63304277096E+02  0.00000000000E+00 0. -1.
          1   -1    0    0  501    0 -0.00000000000E+00 -0.00000000000E+00 -0.66808580381E+03  0.66808580381E+03  0.00000000000E+00 0. -1.
         25    2    1    2    0    0  0.37792050001E+01 -0.42941978405E+02 -0.90161118153E+02  0.16001605011E+03  0.12497124937E+03 0.  0.
          2    1    1    2  501    0  0.33518902968E+02 -0.49070463693E+01 -0.50935181803E+03  0.51047710085E+03  0.00000000000E+00 0. -1.
          1    1    1    2  502    0 -0.37298107968E+02  0.47849024774E+02 -0.52685905282E+01  0.60896929939E+02  0.00000000000E+00 0. -1.
         22    1    3    3    0    0 -0.21937793102E+02  0.16681209108E+02 -0.90995854107E+02  0.95077731190E+02  0.00000000000E+00 0.  1.
         22    1    3    3    0    0  0.25716998103E+02 -0.59623187514E+02  0.83473595478E+00  0.64938318925E+02  0.00000000000E+00 0.  1.
</event>
<event>
 7    1  0.6103724E-006  0.5200443E+02  0.7818608E-02  0.1447677E+00
          2   -1    0    0  502    0  0.00000000000E+00  0.00000000000E+00  0.51958551964E+03  0.51958551964E+03  0.00000000000E+00 0. -1.
          1   -1    0    0  501    0 -0.00000000000E+00 -0.00000000000E+00 -0.51461783803E+03  0.51461783803E+03  0.00000000000E+00 0. -1.
         25    2    1    2    0    0  0.66422606226E+02  0.22393123510E+02 -0.72400948127E+02  0.16056101109E+03  0.12499810556E+03 0.  0.
          2    1    1    2  501    0 -0.47579940510E+02  0.20935926076E+02 -0.39525712613E+03  0.39866070724E+03  0.00000000000E+00 0. -1.
          1    1    1    2  502    0 -0.18842665716E+02 -0.43329049586E+02  0.47262575587E+03  0.47498163933E+03  0.00000000000E+00 0. -1.
         22    1    3    3    0    0 -0.15493357426E+02  0.10488642866E+02 -0.75443287192E+02  0.77728664828E+02  0.00000000000E+00 0.  1.
         22    1    3    3    0    0  0.81915963652E+02  0.11904480644E+02  0.30423390655E+01  0.82832346263E+02  0.00000000000E+00 0.  1.
</event>
<event>
 7    1  0.6103724E-006  0.3912930E+02  0.7818608E-02  0.1532186E+00
          2   -1    0    0  502    0  0.00000000000E+00  0.00000000000E+00  0.16688070131E+04  0.16688070131E+04  0.00000000000E+00 0. -1.
          1   -1    0    0  501    0 -0.00000000000E+00 -0.00000000000E+00 -0.65912380309E+03  0.65912380309E+03  0.00000000000E+00 0. -1.
         25    2    1    2    0    0 -0.18367955083E+02  0.64419654272E+01 -0.35381297602E+03  0.37574873879E+03  0.12499844803E+03 0.  0.
          2    1    1    2  501    0  0.12965502825E+02  0.32331932227E+02 -0.29308022716E+03  0.29514314774E+03  0.00000000000E+00 0. -1.
          1    1    1    2  502    0  0.54024522579E+01 -0.38773897654E+02  0.16565764132E+04  0.16570389296E+04  0.00000000000E+00 0. -1.
         22    1    3    3    0    0 -0.58663944828E+02  0.24054304070E+02 -0.29811220392E+03  0.30478017339E+03  0.00000000000E+00 0. -1.
         22    1    3    3    0    0  0.40295989745E+02 -0.17612338643E+02 -0.55700772100E+02  0.70968565398E+02  0.00000000000E+00 0. -1.
</event>
<event>
 7    1  0.6103724E-006  0.2964590E+02  0.7818608E-02  0.1617234E+00
          2   -1    0    0  502    0  0.00000000000E+00  0.00000000000E+00  0.54377039606E+02  0.54377039606E+02  0.00000000000E+00 0. -1.
          1   -1    0    0  501    0 -0.00000000000E+00 -0.00000000000E+00 -0.73435245671E+03  0.73435245671E+03  0.00000000000E+00 0. -1.
         25    2    1    2    0    0 -0.12188238795E+02 -0.24484288336E+02 -0.44776920580E+02  0.13556392344E+03  0.12499828471E+03 0.  0.
          2    1    1    2  501    0  0.29640584989E+02 -0.56143050945E+00 -0.61682315899E+03  0.61753517223E+03  0.00000000000E+00 0. -1.
          1    1    1    2  502    0 -0.17452346194E+02  0.25045718845E+02 -0.18375337533E+02  0.35630400638E+02  0.00000000000E+00 0. -1.
         22    1    3    3    0    0 -0.52753030824E+02 -0.36265398359E+02  0.11660474754E+02  0.65069409485E+02  0.00000000000E+00 0. -1.
         22    1    3    3    0    0  0.40564792029E+02  0.11781110023E+02 -0.56437395335E+02  0.70494513956E+02  0.00000000000E+00 0. -1.
</event>
<event>
 7    1  0.6103724E-006  0.1263278E+03  0.7818608E-02  0.1407051E+00
          2   -1    0    0  502    0  0.00000000000E+00  0.00000000000E+00  0.89020979293E+03  0.89020979293E+03  0.00000000000E+00 0. -1.
          1   -1    0    0  501    0 -0.00000000000E+00 -0.00000000000E+00 -0.96433318480E+03  0.96433318480E+03  0.00000000000E+00 0. -1.
         25    2    1    2    0    0 -0.12489569287E+03  0.25374585152E+01  0.20542324060E+02  0.17791565699E+03  0.12500648435E+03 0.  0.
          2    1    1    2  501    0  0.59702495404E+00 -0.26491281653E+02 -0.88038131961E+03  0.88078000225E+03  0.00000000000E+00 0. -1.
          1    1    1    2  502    0  0.12429866792E+03  0.23953823138E+02  0.78571560368E+03  0.79584731849E+03  0.00000000000E+00 0. -1.
         22    1    3    3    0    0 -0.87246506882E+02  0.35033685465E+02 -0.37729657654E+02  0.10130567184E+03  0.00000000000E+00 0. -1.
         22    1    3    3    0    0 -0.37649185990E+02 -0.32496226949E+02  0.58271981713E+02  0.76609985149E+02  0.00000000000E+00 0. -1.
</event>
<event>
 7    1  0.6103724E-006  0.1040404E+03  0.7818608E-02  0.1368937E+00
          2   -1    0    0  502    0  0.00000000000E+00  0.00000000000E+00  0.23349521203E+03  0.23349521203E+03  0.00000000000E+00 0. -1.
          1   -1    0    0  501    0 -0.00000000000E+00 -0.00000000000E+00 -0.19939388402E+04  0.19939388402E+04  0.00000000000E+00 0. -1.
         25    2    1    2    0    0 -0.10108119139E+03  0.16080171219E+02 -0.22357935820E+02  0.16311458776E+03  0.12502204721E+03 0.  0.
          2    1    1    2  501    0  0.86974965089E+02 -0.57489176080E+02 -0.18968120634E+04  0.18996751443E+04  0.00000000000E+00 0. -1.
          1    1    1    2  502    0  0.14106226301E+02  0.41409004862E+02  0.15872637105E+03  0.16464432019E+03  0.00000000000E+00 0. -1.
         22    1    3    3    0    0  0.13103058283E+01  0.14404561969E+02 -0.54022770404E+02  0.55925557923E+02  0.00000000000E+00 0. -1.
         22    1    3    3    0    0 -0.10239149722E+03  0.16756092503E+01  0.31664834584E+02  0.10718902984E+03  0.00000000000E+00 0. -1.
</event>
<event>
 7    1  0.6103724E-006  0.6002131E+02  0.7818608E-02  0.1423596E+00
          2   -1    0    0  502    0  0.00000000000E+00  0.00000000000E+00  0.10676657936E+03  0.10676657936E+03  0.00000000000E+00 0. -1.
          1   -1    0    0  501    0 -0.00000000000E+00 -0.00000000000E+00 -0.69607432238E+03  0.69607432238E+03  0.00000000000E+00 0. -1.
         25    2    1    2    0    0  0.31474727825E+02  0.81823288123E+02 -0.74385216638E+02  0.16983657548E+03  0.12500237177E+03 0.  0.
          2    1    1    2  501    0  0.14826163426E+02 -0.46771119995E+02 -0.55834251516E+03  0.56049417216E+03  0.00000000000E+00 0. -1.
          1    1    1    2  502    0 -0.46300891251E+02 -0.35052168128E+02  0.43419988786E+02  0.72510154098E+02  0.00000000000E+00 0. -1.
         22    1    3    3    0    0  0.35836023990E+02 -0.17086580447E+02 -0.56771403739E+02  0.69275999663E+02  0.00000000000E+00 0.  1.
         22    1    3    3    0    0 -0.43612961650E+01  0.98909868570E+02 -0.17613812900E+02  0.10056057582E+03  0.00000000000E+00 0.  1.
</event>
<event>
 7    1  0.6103724E-006  0.1988871E+03  0.7818608E-02  0.1218358E+00
          2   -1    0    0  502    0  0.00000000000E+00  0.00000000000E+00  0.35520970170E+04  0.35520970170E+04  0.00000000000E+00 0. -1.
          1   -1    0    0  501    0 -0.00000000000E+00 -0.00000000000E+00 -0.21581976854E+03  0.21581976854E+03  0.00000000000E+00 0. -1.
         25    2    1    2    0    0 -0.20705203849E+03 -0.76022078508E+02  0.79995393259E+03  0.83916679252E+03  0.12499883339E+03 0.  0.
          2    1    1    2  501    0  0.19802510126E+03 -0.16986776531E+02 -0.14485867312E+03  0.24594008719E+03  0.00000000000E+00 0. -1.
          1    1    1    2  502    0  0.90269372270E+01  0.93008855039E+02  0.26811819890E+04  0.26828099058E+04  0.00000000000E+00 0. -1.
         22    1    3    3    0    0 -0.19964562783E+03 -0.10361011108E+03  0.70568196503E+03  0.74066218183E+03  0.00000000000E+00 0. -1.
         22    1    3    3    0    0 -0.74064106615E+01  0.27588032572E+02  0.94271967561E+02  0.98504610693E+02  0.00000000000E+00 0. -1.
</event>
<event>
 7    1  0.6103724E-006  0.5618074E+02  0.7818608E-02  0.1525036E+00
          2   -1    0    0  502    0  0.00000000000E+00  0.00000000000E+00  0.56138473303E+03  0.56138473303E+03  0.00000000000E+00 0. -1.
          1   -1    0    0  501    0 -0.00000000000E+00 -0.00000000000E+00 -0.14807841496E+03  0.14807841496E+03  0.00000000000E+00 0. -1.
         25    2    1    2    0    0  0.24887170178E+01 -0.37637919696E+02  0.19782175373E+03  0.23702837257E+03  0.12500478569E+03 0.  0.
          2    1    1    2  501    0  0.18805270595E+02 -0.17127503462E+02 -0.12467203198E+03  0.12724034397E+03  0.00000000000E+00 0. -1.
          1    1    1    2  502    0 -0.21293987613E+02  0.54765423158E+02  0.34015659632E+03  0.34519443145E+03  0.00000000000E+00 0. -1.
         22    1    3    3    0    0  0.15087811218E+02 -0.29530528184E+02 -0.51024086287E+01  0.33551880961E+02  0.00000000000E+00 0. -1.
         22    1    3    3    0    0 -0.12599094200E+02 -0.81073915115E+01  0.20292416236E+03  0.20347649161E+03  0.00000000000E+00 0. -1.
</event>
<event>
 7    1  0.6103724E-006  0.6358168E+02  0.7818608E-02  0.1444395E+00
          2   -1    0    0  502    0  0.00000000000E+00  0.00000000000E+00  0.35908868933E+04  0.35908868933E+04  0.00000000000E+00 0. -1.
          1   -1    0    0  501    0 -0.00000000000E+00 -0.00000000000E+00 -0.22842754681E+02  0.22842754681E+02  0.00000000000E+00 0. -1.
         25    2    1    2    0    0  0.38602946852E+01 -0.45070981611E+02  0.11529389003E+04  0.11605771121E+04  0.12499931958E+03 0.  0.
          2    1    1    2  501    0 -0.43324139759E+02  0.48313297819E+02  0.36965872281E+02  0.74683542668E+02  0.00000000000E+00 0. -1.
          1    1    1    2  502    0  0.39463845074E+02 -0.32423162086E+01  0.23781393660E+04  0.23784689932E+04  0.00000000000E+00 0. -1.
         22    1    3    3    0    0 -0.11526025573E+02 -0.76151639215E+02  0.43251582918E+03  0.43931977410E+03  0.00000000000E+00 0.  1.
         22    1    3    3    0    0  0.15386320259E+02  0.31080657604E+02  0.72042307115E+03  0.72125733797E+03  0.00000000000E+00 0.  1.
</event>
<event>
 7    1  0.6103724E-006  0.9346783E+02  0.7818608E-02  0.1397060E+00
          2   -1    0    0  502    0  0.00000000000E+00  0.00000000000E+00  0.10031895176E+04  0.10031895176E+04  0.00000000000E+00 0. -1.
          1   -1    0    0  501    0 -0.00000000000E+00 -0.00000000000E+00 -0.32232164739E+03  0.32232164739E+03  0.00000000000E+00 0. -1.
         25    2    1    2    0    0  0.12483157684E+03 -0.36892066663E+02  0.55468459473E+03  0.58330441988E+03  0.12500039785E+03 0.  0.
          2    1    1    2  501    0 -0.91399909619E+02  0.17293175594E+02 -0.30008940854E+03  0.31417614569E+03  0.00000000000E+00 0. -1.
          1    1    1    2  502    0 -0.33431667224E+02  0.19598891070E+02  0.42627268400E+03  0.42803059941E+03  0.00000000000E+00 0. -1.
         22    1    3    3    0    0 -0.22912116822E+02  0.89466410959E+01  0.10180837746E+03  0.10473754439E+03  0.00000000000E+00 0.  1.
         22    1    3    3    0    0  0.14774369367E+03 -0.45838707759E+02  0.45287621727E+03  0.47856687549E+03  0.00000000000E+00 0.  1.
</event>
<event>
 7    1  0.6103724E-006  0.3622768E+02  0.7818608E-02  0.1613318E+00
          2   -1    0    0  502    0  0.00000000000E+00  0.00000000000E+00  0.53150377032E+03  0.53150377032E+03  0.00000000000E+00 0. -1.
          1   -1    0    0  501    0 -0.00000000000E+00 -0.00000000000E+00 -0.11931358534E+04  0.11931358534E+04  0.00000000000E+00 0. -1.
         25    2    1    2    0    0  0.10474817422E+02 -0.90376193728E+01 -0.26684880947E+02  0.12856140842E+03  0.12499820998E+03 0.  0.
          2    1    1    2  501    0 -0.30167269678E+02  0.20294775584E+02 -0.11149485472E+04  0.11155412162E+04  0.00000000000E+00 0. -1.
          1    1    1    2  502    0  0.19692452256E+02 -0.11257156211E+02  0.48000134508E+03  0.48053699912E+03  0.00000000000E+00 0. -1.
         22    1    3    3    0    0  0.12278154775E+02 -0.63977200993E+02  0.46108443510E+01  0.65307696462E+02  0.00000000000E+00 0. -1.
         22    1    3    3    0    0 -0.18033373527E+01  0.54939581620E+02 -0.31295725298E+02  0.63253711955E+02  0.00000000000E+00 0. -1.
</event>
<event>
 7    1  0.6103724E-006  0.8865201E+02  0.7818608E-02  0.1389798E+00
          2   -1    0    0  502    0  0.00000000000E+00  0.00000000000E+00  0.22533183485E+04  0.22533183485E+04  0.00000000000E+00 0. -1.
          1   -1    0    0  501    0 -0.00000000000E+00 -0.00000000000E+00 -0.31266589379E+03  0.31266589379E+03  0.00000000000E+00 0. -1.
         25    2    1    2    0    0 -0.12176849360E+03 -0.48987073869E+02  0.52095592999E+03  0.55158566522E+03  0.12499746258E+03 0.  0.
          2    1    1    2  501    0  0.82920771014E+02  0.29861584846E+02 -0.29054033275E+03  0.30361365823E+03  0.00000000000E+00 0. -1.
          1    1    1    2  502    0  0.38847722590E+02  0.19125489023E+02  0.17102368575E+04  0.17107849189E+04  0.00000000000E+00 0. -1.
         22    1    3    3    0    0 -0.12825725648E+03 -0.70944920859E+02  0.35515314486E+03  0.38420939856E+03  0.00000000000E+00 0. -1.
         22    1    3    3    0    0  0.64887628719E+01  0.21957846990E+02  0.16580278512E+03  0.16737626666E+03  0.00000000000E+00 0. -1.
</event>
<event>
 7    1  0.6103724E-006  0.1281658E+03  0.7818608E-02  0.1378897E+00
          2   -1    0    0  502    0  0.00000000000E+00  0.00000000000E+00  0.27687085430E+04  0.27687085430E+04  0.00000000000E+00 0. -1.
          1   -1    0    0  501    0 -0.00000000000E+00 -0.00000000000E+00 -0.13981082485E+04  0.13981082485E+04  0.00000000000E+00 0. -1.
         25    2    1    2    0    0  0.64002389462E+02 -0.81782810614E+02  0.21344139609E+03  0.26826597496E+03  0.12499867914E+03 0.  0.
          2    1    1    2  501    0  0.32312001573E+02 -0.51302546553E+01 -0.13688358777E+04  0.13692268056E+04  0.00000000000E+00 0. -1.
          1    1    1    2  502    0 -0.96314391035E+02  0.86913065270E+02  0.25259947762E+04  0.25293240109E+04  0.00000000000E+00 0. -1.
         22    1    3    3    0    0  0.12373331239E+01 -0.77529771414E+02  0.18222819579E+03  0.19803916731E+03  0.00000000000E+00 0.  1.
         22    1    3    3    0    0  0.62765056338E+02 -0.42530392004E+01  0.31213200303E+02  0.70226807650E+02  0.00000000000E+00 0.  1.
</event>
<event>
 7    1  0.6103724E-006  0.1145231E+03  0.7818608E-02  0.1345119E+00
          2   -1    0    0  502    0  0.00000000000E+00  0.00000000000E+00  0.48020461389E+03  0.48020461389E+03  0.00000000000E+00 0. -1.
          1   -1    0    0  501    0 -0.00000000000E+00 -0.00000000000E+00 -0.19670844985E+03  0.19670844985E+03  0.00000000000E+00 0. -1.
         25    2    1    2    0    0  0.39902005587E+02 -0.10396543845E+03  0.39511979668E+02  0.17200931654E+03  0.12500010399E+03 0.  0.
          2    1    1    2  501    0 -0.83485982657E+02  0.82479180550E+02 -0.10202140267E+03  0.15550270456E+03  0.00000000000E+00 0. -1.
          1    1    1    2  502    0  0.43583977070E+02  0.21486257900E+02  0.34600558704E+03  0.34940104264E+03  0.00000000000E+00 0. -1.
         22    1    3    3    0    0  0.22456205065E+02 -0.92077009780E+00 -0.36440741471E+02  0.42814210286E+02  0.00000000000E+00 0.  1.
         22    1    3    3    0    0  0.17445800522E+02 -0.10304466835E+03  0.75952721139E+02  0.12919510625E+03  0.00000000000E+00 0.  1.
</event>
<event>
 7    1  0.6103724E-006  0.1224860E+03  0.7818608E-02  0.1292582E+00
          2   -1    0    0  502    0  0.00000000000E+00  0.00000000000E+00  0.79604792069E+03  0.79604792069E+03  0.00000000000E+00 0. -1.
          1   -1    0    0  501    0 -0.00000000000E+00 -0.00000000000E+00 -0.11232515297E+03  0.11232515297E+03  0.00000000000E+00 0. -1.
         25    2    1    2    0    0 -0.73886278826E+02  0.11985233349E+03  0.14843813693E+03  0.23976474156E+03  0.12501794575E+03 0.  0.
          2    1    1    2  501    0  0.11856528589E+01 -0.12157933722E+03 -0.66973040121E+01  0.12176943333E+03  0.00000000000E+00 0. -1.
          1    1    1    2  502    0  0.72700625967E+02  0.17270037286E+01  0.54198193480E+03  0.54683889877E+03  0.00000000000E+00 0. -1.
         22    1    3    3    0    0 -0.44650081328E+02  0.48428304016E+02 -0.69803420290E+01  0.66239380789E+02  0.00000000000E+00 0. -1.
         22    1    3    3    0    0 -0.29236197498E+02  0.71424029476E+02  0.15541847896E+03  0.17352536077E+03  0.00000000000E+00 0. -1.
</event>
<event>
 7    1  0.6103724E-006  0.2282378E+03  0.7818608E-02  0.1277418E+00
          2   -1    0    0  502    0  0.00000000000E+00  0.00000000000E+00  0.33410221591E+04  0.33410221591E+04  0.00000000000E+00 0. -1.
          1   -1    0    0  501    0 -0.00000000000E+00 -0.00000000000E+00 -0.35136813901E+03  0.35136813901E+03  0.00000000000E+00 0. -1.
         25    2    1    2    0    0  0.17941515917E+03  0.20482879472E+03  0.17407766330E+04  0.17663705891E+04  0.12496854586E+03 0.  0.
          2    1    1    2  501    0 -0.15058521347E+03 -0.17023413478E+03 -0.30006468851E+03  0.37642314548E+03  0.00000000000E+00 0. -1.
          1    1    1    2  502    0 -0.28829945703E+02 -0.34594659934E+02  0.15489420756E+04  0.15495965635E+04  0.00000000000E+00 0. -1.
         22    1    3    3    0    0  0.20970344546E+02  0.14690586108E+02  0.38764367240E+02  0.46456913782E+02  0.00000000000E+00 0.  1.
         22    1    3    3    0    0  0.15844481463E+03  0.19013820861E+03  0.17020122658E+04  0.17199136753E+04  0.00000000000E+00 0.  1.
</event>
<event>
 7    1  0.6103724E-006  0.1926754E+03  0.7818608E-02  0.1238444E+00
          2   -1    0    0  502    0  0.00000000000E+00  0.00000000000E+00  0.18178362071E+04  0.18178362071E+04  0.00000000000E+00 0. -1.
          1   -1    0    0  501    0 -0.00000000000E+00 -0.00000000000E+00 -0.89988654904E+03  0.89988654904E+03  0.00000000000E+00 0. -1.
         25    2    1    2    0    0  0.37635206586E+02  0.12581797033E+03  0.15478444467E+02  0.18196386000E+03  0.12499877467E+03 0.  0.
          2    1    1    2  501    0 -0.13293659951E+02 -0.20028940908E+03 -0.80339629829E+03  0.82809309917E+03  0.00000000000E+00 0. -1.
          1    1    1    2  502    0 -0.24341546636E+02  0.74471438751E+02  0.17058675118E+04  0.17076657969E+04  0.00000000000E+00 0. -1.
         22    1    3    3    0    0  0.74730388575E+02  0.12307026363E+03  0.95626612708E+01  0.14429956776E+03  0.00000000000E+00 0.  1.
         22    1    3    3    0    0 -0.37095181989E+02  0.27477067039E+01  0.59157831958E+01  0.37664292237E+02  0.00000000000E+00 0.  1.
</event>
<event>
 7    1  0.6103724E-006  0.1333882E+03  0.7818608E-02  0.1242998E+00
          2   -1    0    0  502    0  0.00000000000E+00  0.00000000000E+00  0.13623969016E+04  0.13623969016E+04  0.00000000000E+00 0. -1.
          1   -1    0    0  501    0 -0.00000000000E+00 -0.00000000000E+00 -0.13613172016E+04  0.13613172016E+04  0.00000000000E+00 0. -1.
         25    2    1    2    0    0  0.13968507916E+03 -0.31301100101E+02  0.46077326353E+03  0.49842650233E+03  0.12500119051E+03 0.  0.
          2    1    1    2  501    0 -0.64239720459E+02 -0.86896649426E+02 -0.13347247489E+04  0.13390922017E+04  0.00000000000E+00 0. -1.
          1    1    1    2  502    0 -0.75445358697E+02  0.11819774953E+03  0.87503118537E+03  0.88619539918E+03  0.00000000000E+00 0. -1.
         22    1    3    3    0    0 -0.99505828163E+01  0.17631796659E+02  0.13609218580E+03  0.13758988839E+03  0.00000000000E+00 0. -1.
         22    1    3    3    0    0  0.14963566197E+03 -0.48932896761E+02  0.32468107773E+03  0.36083661394E+03  0.00000000000E+00 0. -1.
</event>
<event>
 7    1  0.6103724E-006  0.8753963E+02  0.7818608E-02  0.1386287E+00
          2   -1    0    0  502    0  0.00000000000E+00  0.00000000000E+00  0.13952974250E+04  0.13952974250E+04  0.00000000000E+00 0. -1.
          1   -1    0    0  501    0 -0.00000000000E+00 -0.00000000000E+00 -0.12561614619E+03  0.12561614619E+03  0.00000000000E+00 0. -1.
         25    2    1    2    0    0  0.11004054714E+03  0.71133280721E+02  0.66858866703E+03  0.69267912526E+03  0.12499879697E+03 0.  0.
          2    1    1    2  501    0 -0.69329297508E+02 -0.51706457924E+02 -0.96270158811E+02  0.12941426800E+03  0.00000000000E+00 0. -1.
          1    1    1    2  502    0 -0.40711249632E+02 -0.19426822797E+02  0.69736277063E+03  0.69882017798E+03  0.00000000000E+00 0. -1.
         22    1    3    3    0    0  0.12720903153E+03  0.22670409898E+02  0.45520728919E+03  0.47319104104E+03  0.00000000000E+00 0.  1.
         22    1    3    3    0    0 -0.17168484390E+02  0.48462870823E+02  0.21338137784E+03  0.21948808422E+03  0.00000000000E+00 0.  1.
</event>
<event>
 7    1  0.6103724E-006  0.3204675E+02  0.7818608E-02  0.1629098E+00
          2   -1    0    0  502    0  0.00000000000E+00  0.00000000000E+00  0.11501941569E+04  0.11501941569E+04  0.00000000000E+00 0. -1.
          1   -1    0    0  501    0 -0.00000000000E+00 -0.00000000000E+00 -0.12379569368E+03  0.12379569368E+03  0.00000000000E+00 0. -1.
         25    2    1    2    0    0  0.98622937069E+01  0.15643820541E+02  0.93369210919E+02  0.15711805090E+03  0.12500511355E+03 0.  0.
          2    1    1    2  501    0  0.21620944977E+02 -0.88946940054E+01 -0.90177375652E+02  0.93158681413E+02  0.00000000000E+00 0. -1.
          1    1    1    2  502    0 -0.31483238684E+02 -0.67491265353E+01  0.10232066280E+04  0.10237131183E+04  0.00000000000E+00 0. -1.
         22    1    3    3    0    0 -0.56565229824E+01 -0.48396295150E+02  0.73700906542E+02  0.88351690768E+02  0.00000000000E+00 0.  1.
         22    1    3    3    0    0  0.15518816689E+02  0.64040115691E+02  0.19668304377E+02  0.68766360135E+02  0.00000000000E+00 0.  1.
</event>
<event>
 7    1  0.6103724E-006  0.1050470E+03  0.7818608E-02  0.1350933E+00
          2   -1    0    0  502    0  0.00000000000E+00  0.00000000000E+00  0.22626990410E+04  0.22626990410E+04  0.00000000000E+00 0. -1.
          1   -1    0    0  501    0 -0.00000000000E+00 -0.00000000000E+00 -0.26062716234E+03  0.26062716234E+03  0.00000000000E+00 0. -1.
         25    2    1    2    0    0 -0.83679583588E+02  0.21128313670E+02  0.13211503748E+03  0.20131519981E+03  0.12499899278E+03 0.  0.
          2    1    1    2  501    0 -0.19396225244E+02 -0.46523221872E+02 -0.22185416306E+03  0.22750800732E+03  0.00000000000E+00 0. -1.
          1    1    1    2  502    0  0.10307580883E+03  0.25394908202E+02  0.20918110043E+04  0.20945029963E+04  0.00000000000E+00 0. -1.
         22    1    3    3    0    0  0.18492182448E+02 -0.30957134996E+02  0.21514396788E+02  0.41990168944E+02  0.00000000000E+00 0. -1.
         22    1    3    3    0    0 -0.10217176604E+03  0.52085448666E+02  0.11060064069E+03  0.15932503086E+03  0.00000000000E+00 0. -1.
</event>
<event>
 7    1  0.6103724E-006  0.1183578E+03  0.7818608E-02  0.1319657E+00
          2   -1    0    0  502    0  0.00000000000E+00  0.00000000000E+00  0.33178060439E+03  0.33178060439E+03  0.00000000000E+00 0. -1.
          1   -1    0    0  501    0 -0.00000000000E+00 -0.00000000000E+00 -0.57346978701E+03  0.57346978701E+03  0.00000000000E+00 0. -1.
         25    2    1    2    0    0  0.61984432821E+02  0.38399677754E+02 -0.50509253008E+02  0.15327307967E+03  0.12499938859E+03 0.  0.
          2    1    1    2  501    0 -0.86790434208E+02 -0.91682645371E+02 -0.45989561894E+03  0.47690907650E+03  0.00000000000E+00 0. -1.
          1    1    1    2  502    0  0.24806001387E+02  0.53282967617E+02  0.26871568932E+03  0.27506823523E+03  0.00000000000E+00 0. -1.
         22    1    3    3    0    0 -0.15101439336E+02  0.12618711243E+02 -0.67434032552E+02  0.70246950751E+02  0.00000000000E+00 0.  1.
         22    1    3    3    0    0  0.77085872157E+02  0.25780966510E+02  0.16924779544E+02  0.83026128917E+02  0.00000000000E+00 0.  1.
</event>
<event>
 7    1  0.6103724E-006  0.1154462E+03  0.7818608E-02  0.1378264E+00
          2   -1    0    0  502    0  0.00000000000E+00  0.00000000000E+00  0.51319887059E+03  0.51319887059E+03  0.00000000000E+00 0. -1.
          1   -1    0    0  501    0 -0.00000000000E+00 -0.00000000000E+00 -0.69956227964E+03  0.69956227964E+03  0.00000000000E+00 0. -1.
         25    2    1    2    0    0 -0.83266311233E+02 -0.10081048226E+03  0.69793595271E+02  0.19388664059E+03  0.12499940615E+03 0.  0.
          2    1    1    2  501    0 -0.98067998212E+01  0.35167966802E+02 -0.62847062988E+03  0.62953021519E+03  0.00000000000E+00 0. -1.
          1    1    1    2  502    0  0.93073111055E+02  0.65642515460E+02  0.37231362556E+03  0.38934429444E+03  0.00000000000E+00 0. -1.
         22    1    3    3    0    0 -0.59461974399E+02  0.95442524359E+01  0.52067418505E+02  0.79610522067E+02  0.00000000000E+00 0. -1.
         22    1    3    3    0    0 -0.23804336835E+02 -0.11035473470E+03  0.17726176766E+02  0.11427611852E+03  0.00000000000E+00 0. -1.
</event>
<event>
 7    1  0.6103724E-006  0.1636027E+03  0.7818608E-02  0.1390089E+00
          2   -1    0    0  502    0  0.00000000000E+00  0.00000000000E+00  0.51076491644E+03  0.51076491644E+03  0.00000000000E+00 0. -1.
          1   -1    0    0  501    0 -0.00000000000E+00 -0.00000000000E+00 -0.74185502468E+03  0.74185502468E+03  0.00000000000E+00 0. -1.
         25    2    1    2    0    0 -0.14995345545E+03  0.10780098113E+03 -0.17820339271E+03  0.28546406673E+03  0.12500477545E+03 0.  0.
          2    1    1    2  501    0  0.22029068087E+02 -0.79168992395E+01 -0.49533041504E+03  0.49588322939E+03  0.00000000000E+00 0. -1.
          1    1    1    2  502    0  0.12792438736E+03 -0.99884081890E+02  0.44244369951E+03  0.47127264500E+03  0.00000000000E+00 0. -1.
         22    1    3    3    0    0 -0.17242887614E+03  0.93153426431E+02 -0.15269147288E+03  0.24844308014E+03  0.00000000000E+00 0.  1.
         22    1    3    3    0    0  0.22475420693E+02  0.14647554698E+02 -0.25511919834E+02  0.37020986583E+02  0.00000000000E+00 0.  1.
</event>
<event>
 7    1  0.6103724E-006  0.5859972E+02  0.7818608E-02  0.1533143E+00
          2   -1    0    0  502    0  0.00000000000E+00  0.00000000000E+00  0.69786059061E+02  0.69786059061E+02  0.00000000000E+00 0. -1.
          1   -1    0    0  501    0 -0.00000000000E+00 -0.00000000000E+00 -0.19987934025E+04  0.19987934025E+04  0.00000000000E+00 0. -1.
         25    2    1    2    0    0 -0.39443745847E+02  0.28235410120E+02 -0.35570668854E+03  0.38013747036E+03  0.12499680245E+03 0.  0.
          2    1    1    2  501    0 -0.18076698511E+02 -0.14405615726E+02 -0.16155686681E+04  0.16157340159E+04  0.00000000000E+00 0. -1.
          1    1    1    2  502    0  0.57520444358E+02 -0.13829794394E+02  0.42268013208E+02  0.72707975303E+02  0.00000000000E+00 0. -1.
         22    1    3    3    0    0  0.33911228063E+02 -0.23067107093E+02 -0.74707165576E+02  0.85224546973E+02  0.00000000000E+00 0. -1.
         22    1    3    3    0    0 -0.73354973910E+02  0.51302517213E+02 -0.28099952297E+03  0.29491292338E+03  0.00000000000E+00 0. -1.
</event>
<event>
 7    1  0.6103724E-006  0.4088361E+02  0.7818608E-02  0.1528607E+00
          2   -1    0    0  502    0  0.00000000000E+00  0.00000000000E+00  0.28023187213E+03  0.28023187213E+03  0.00000000000E+00 0. -1.
          1   -1    0    0  501    0 -0.00000000000E+00 -0.00000000000E+00 -0.46380930545E+03  0.46380930545E+03  0.00000000000E+00 0. -1.
         25    2    1    2    0    0  0.14801898727E+02  0.44182664312E+01 -0.75364495430E+02  0.14678021895E+03  0.12500403281E+03 0.  0.
          2    1    1    2  501    0 -0.35070906915E+02  0.23048839304E+02 -0.35028694060E+03  0.35279194756E+03  0.00000000000E+00 0. -1.
          1    1    1    2  502    0  0.20269008188E+02 -0.27467105736E+02  0.24207400271E+03  0.24446901108E+03  0.00000000000E+00 0. -1.
         22    1    3    3    0    0  0.12004389404E+00  0.21757198066E+01 -0.10951667154E+03  0.10953834722E+03  0.00000000000E+00 0.  1.
         22    1    3    3    0    0  0.14681854833E+02  0.22425466246E+01  0.34152176108E+02  0.37241871725E+02  0.00000000000E+00 0.  1.
</event>
<event>
 7    1  0.6103724E-006  0.1771467E+03  0.7818608E-02  0.1210466E+00
          2   -1    0    0  502    0  0.00000000000E+00  0.00000000000E+00  0.20576208471E+04  0.20576208471E+04  0.00000000000E+00 0. -1.
          1   -1    0    0  501    0 -0.00000000000E+00 -0.00000000000E+00 -0.39648675438E+03  0.39648675438E+03  0.00000000000E+00 0. -1.
         25    2    1    2    0    0 -0.81503918295E+02 -0.22736064613E+01  0.48864184234E+02  0.15703962471E+03  0.12500270895E+03 0.  0.
          2    1    1    2  501    0 -0.88323241268E+02 -0.72180874088E+02 -0.32835534562E+03  0.34760366300E+03  0.00000000000E+00 0. -1.
          1    1    1    2  502    0  0.16982715956E+03  0.74454480549E+02  0.19406252541E+04  0.19494643137E+04  0.00000000000E+00 0. -1.
         22    1    3    3    0    0  0.29659300910E+02 -0.19722715150E+02  0.37753257787E+01  0.35817770842E+02  0.00000000000E+00 0. -1.
         22    1    3    3    0    0 -0.11116321920E+03  0.17449108688E+02  0.45088858456E+02  0.12122185387E+03  0.00000000000E+00 0. -1.
</event>
<event>
 7    1  0.6103724E-006  0.1313325E+03  0.7818608E-02  0.1361861E+00
          2   -1    0    0  502    0  0.00000000000E+00  0.00000000000E+00  0.13896305080E+04  0.13896305080E+04  0.00000000000E+00 0. -1.
          1   -1    0    0  501    0 -0.00000000000E+00 -0.00000000000E+00 -0.57153963384E+03  0.57153963384E+03  0.00000000000E+00 0. -1.
         25    2    1    2    0    0  0.26523905977E+02 -0.15371230598E+03  0.74245857533E+03  0.76889581413E+03  0.12500018526E+03 0.  0.
          2    1    1    2  501    0  0.29643650814E+01  0.36640803185E+02 -0.55195629728E+03  0.55317907591E+03  0.00000000000E+00 0. -1.
          1    1    1    2  502    0 -0.29488271059E+02  0.11707150280E+03  0.62758859614E+03  0.63909525182E+03  0.00000000000E+00 0. -1.
         22    1    3    3    0    0  0.71346099215E+02 -0.12632829894E+03  0.48982512554E+03  0.51085982284E+03  0.00000000000E+00 0.  1.
         22    1    3    3    0    0 -0.44822193238E+02 -0.27384007041E+02  0.25263344979E+03  0.25803599129E+03  0.00000000000E+00 0.  1.
</event>
<event>
 7    1  0.6103724E-006  0.9578035E+02  0.7818608E-02  0.1336468E+00
          2   -1    0    0  502    0  0.00000000000E+00  0.00000000000E+00  0.43895135871E+03  0.43895135871E+03  0.00000000000E+00 0. -1.
          1   -1    0    0  501    0 -0.00000000000E+00 -0.00000000000E+00 -0.44457870614E+03  0.44457870614E+03  0.00000000000E+00 0. -1.
         25    2    1    2    0    0 -0.92378446624E+01 -0.43522055362E+02 -0.12439249495E+03  0.18187325725E+03  0.12499952730E+03 0.  0.
          2    1    1    2  501    0  0.37211825322E+02 -0.50359916064E+02 -0.28211530827E+03  0.28898077488E+03  0.00000000000E+00 0. -1.
          1    1    1    2  502    0 -0.27973980660E+02  0.93881971426E+02  0.40088045579E+03  0.41267603272E+03  0.00000000000E+00 0. -1.
         22    1    3    3    0    0 -0.10789177128E+02 -0.87708944388E+02 -0.79595042531E+02  0.11893122409E+03  0.00000000000E+00 0. -1.
         22    1    3    3    0    0  0.15513324655E+01  0.44186889026E+02 -0.44797452418E+02  0.62942033153E+02  0.00000000000E+00 0. -1.
</event>
<event>
 7    1  0.6103724E-006  0.1142255E+03  0.7818608E-02  0.1361967E+00
          2   -1    0    0  502    0  0.00000000000E+00  0.00000000000E+00  0.15388144269E+04  0.15388144269E+04  0.00000000000E+00 0. -1.
          1   -1    0    0  501    0 -0.00000000000E+00 -0.00000000000E+00 -0.10513111924E+03  0.10513111924E+03  0.00000000000E+00 0. -1.
         25    2    1    2    0    0  0.55696021974E+02 -0.50441552009E+02  0.44887745365E+03  0.47197637568E+03  0.12499733507E+03 0.  0.
          2    1    1    2  501    0 -0.87650439522E+02  0.78048705802E+02 -0.56187206467E+02  0.13011995311E+03  0.00000000000E+00 0. -1.
          1    1    1    2  502    0  0.31954417547E+02 -0.27607153793E+02  0.10409930605E+04  0.10418492174E+04  0.00000000000E+00 0. -1.
         22    1    3    3    0    0 -0.32234175552E+02  0.10442048789E+02  0.16893243238E+03  0.17229696796E+03  0.00000000000E+00 0. -1.
         22    1    3    3    0    0  0.87930197526E+02 -0.60883600798E+02  0.27994502127E+03  0.29967940773E+03  0.00000000000E+00 0. -1.
</event>
<event>
 7    1  0.6103724E-006  0.5513136E+02  0.7818608E-02  0.1463469E+00
          2   -1    0    0  502    0  0.00000000000E+00  0.00000000000E+00  0.59969938793E+02  0.59969938793E+02  0.00000000000E+00 0. -1.
          1   -1    0    0  501    0 -0.00000000000E+00 -0.00000000000E+00 -0.35324054670E+03  0.35324054670E+03  0.00000000000E+00 0. -1.
         25    2    1    2    0    0 -0.32072445844E+02 -0.13869300431E+02 -0.11999718389E+03  0.17676290757E+03  0.12499920829E+03 0.  0.
          2    1    1    2  501    0 -0.26790656888E+02  0.29311189075E+02 -0.17100000962E+03  0.17555024463E+03  0.00000000000E+00 0. -1.
          1    1    1    2  502    0  0.58863102732E+02 -0.15441888644E+02 -0.22734143918E+01  0.60897333284E+02  0.00000000000E+00 0. -1.
         22    1    3    3    0    0  0.18225499634E+02  0.45748970375E+02 -0.63947416463E+02  0.80711890075E+02  0.00000000000E+00 0. -1.
         22    1    3    3    0    0 -0.50297945478E+02 -0.59618270806E+02 -0.56049767432E+02  0.96051017498E+02  0.00000000000E+00 0. -1.
</event>
<event>
 7    1  0.6103724E-006  0.9401778E+02  0.7818608E-02  0.1405241E+00
          2   -1    0    0  502    0  0.00000000000E+00  0.00000000000E+00  0.17989281751E+04  0.17989281751E+04  0.00000000000E+00 0. -1.
          1   -1    0    0  501    0 -0.00000000000E+00 -0.00000000000E+00 -0.10568903423E+03  0.10568903423E+03  0.00000000000E+00 0. -1.
         25    2    1    2    0    0 -0.86861472710E+01  0.12680912726E+03  0.56021657532E+03  0.58789600454E+03  0.12499238773E+03 0.  0.
          2    1    1    2  501    0  0.15614057123E+02 -0.91366291173E+02 -0.68123599416E+02  0.11503226826E+03  0.00000000000E+00 0. -1.
          1    1    1    2  502    0 -0.69279098518E+01 -0.35442836084E+02  0.12011461650E+04  0.12016889365E+04  0.00000000000E+00 0. -1.
         22    1    3    3    0    0  0.11717753433E+02  0.90001097305E-01  0.27362317586E+03  0.27387397871E+03  0.00000000000E+00 0. -1.
         22    1    3    3    0    0 -0.20403900704E+02  0.12671912616E+03  0.28659339946E+03  0.31402202584E+03  0.00000000000E+00 0. -1.
</event>
<event>
 7    1  0.6103724E-006  0.6150099E+02  0.7818608E-02  0.1402743E+00
          2   -1    0    0  502    0  0.00000000000E+00  0.00000000000E+00  0.34220509291E+03  0.34220509291E+03  0.00000000000E+00 0. -1.
          1   -1    0    0  501    0 -0.00000000000E+00 -0.00000000000E+00 -0.15637352085E+03  0.15637352085E+03  0.00000000000E+00 0. -1.
         25    2    1    2    0    0 -0.19645861426E+02 -0.61267744422E+02  0.47807405985E+02  0.14849454972E+03  0.12500154740E+03 0.  0.
          2    1    1    2  501    0  0.59701586204E+02  0.21699011616E+02 -0.92818571257E+02  0.11247405777E+03  0.00000000000E+00 0. -1.
          1    1    1    2  502    0 -0.40055724778E+02  0.39568732805E+02  0.23084273733E+03  0.23761000627E+03  0.00000000000E+00 0. -1.
         22    1    3    3    0    0 -0.42431421949E+02 -0.31139371323E+02 -0.31013549997E+02  0.61089494174E+02  0.00000000000E+00 0.  1.
         22    1    3    3    0    0  0.22785560522E+02 -0.30128373098E+02  0.78820955982E+02  0.87405055550E+02  0.00000000000E+00 0.  1.
</event>
<event>
 7    1  0.6103724E-006  0.5239455E+02  0.7818608E-02  0.1435870E+00
          2   -1    0    0  502    0  0.00000000000E+00  0.00000000000E+00  0.11488775308E+04  0.11488775308E+04  0.00000000000E+00 0. -1.
          1   -1    0    0  501    0 -0.00000000000E+00 -0.00000000000E+00 -0.83811932076E+02  0.83811932076E+02  0.00000000000E+00 0. -1.
         25    2    1    2    0    0  0.22683447625E+02  0.22991494195E+02  0.24731618360E+03  0.27898684854E+03  0.12500087755E+03 0.  0.
          2    1    1    2  501    0  0.28068812691E+02 -0.42833882769E+02 -0.57362095570E+02  0.76896097216E+02  0.00000000000E+00 0. -1.
          1    1    1    2  502    0 -0.50752260317E+02  0.19842388574E+02  0.87511151070E+03  0.87680651712E+03  0.00000000000E+00 0. -1.
         22    1    3    3    0    0  0.48667184704E+02  0.10743943008E+02  0.24516645870E+03  0.25018097380E+03  0.00000000000E+00 0. -1.
         22    1    3    3    0    0 -0.25983737078E+02  0.12247551187E+02  0.21497248993E+01  0.28805874744E+02  0.00000000000E+00 0. -1.
</event>
<event>
 7    1  0.6103724E-006  0.3908323E+02  0.7818608E-02  0.1527396E+00
          2   -1    0    0  502    0  0.00000000000E+00  0.00000000000E+00  0.41119851961E+03  0.41119851961E+03  0.00000000000E+00 0. -1.
          1   -1    0    0  501    0 -0.00000000000E+00 -0.00000000000E+00 -0.18033394762E+04  0.18033394762E+04  0.00000000000E+00 0. -1.
         25    2    1    2    0    0 -0.69404597346E+00  0.14001827622E+02 -0.10353400769E+04  0.10429529697E+04  0.12500115712E+03 0.  0.
          2    1    1    2  501    0 -0.38374347379E+02 -0.12925057592E+02 -0.76271729330E+03  0.76379140945E+03  0.00000000000E+00 0. -1.
          1    1    1    2  502    0  0.39068393353E+02 -0.10767700306E+01  0.40591641371E+03  0.40779361656E+03  0.00000000000E+00 0. -1.
         22    1    3    3    0    0 -0.93115347958E+01  0.68296856595E+02 -0.66354240987E+03  0.66711295521E+03  0.00000000000E+00 0.  1.
         22    1    3    3    0    0  0.86174888224E+01 -0.54295028972E+02 -0.37179766707E+03  0.37584001454E+03  0.00000000000E+00 0.  1.
</event>
<event>
 7    1  0.6103724E-006  0.4528249E+02  0.7818608E-02  0.1587935E+00
          2   -1    0    0  502    0  0.00000000000E+00  0.00000000000E+00  0.11262437554E+02  0.11262437554E+02  0.00000000000E+00 0. -1.
          1   -1    0    0  501    0 -0.00000000000E+00 -0.00000000000E+00 -0.21368742039E+04  0.21368742039E+04  0.00000000000E+00 0. -1.
         25    2    1    2    0    0  0.55358536747E+01 -0.61607350450E+02 -0.15900929362E+04  0.15961967572E+04  0.12498972260E+03 0.  0.
          2    1    1    2  501    0  0.87321735450E+01  0.19251054001E+02 -0.48090167077E+03  0.48136604666E+03  0.00000000000E+00 0. -1.
          1    1    1    2  502    0 -0.14268027220E+02  0.42356296449E+02 -0.54617159423E+02  0.70573837596E+02  0.00000000000E+00 0. -1.
         22    1    3    3    0    0 -0.51025375905E+02 -0.32451890346E+02 -0.41504342648E+03  0.41942551191E+03  0.00000000000E+00 0. -1.
         22    1    3    3    0    0  0.56561229579E+02 -0.29155460103E+02 -0.11750495097E+04  0.11767712453E+04  0.00000000000E+00 0. -1.
</event>
<event>
 7    1  0.6103724E-006  0.2403491E+03  0.7818608E-02  0.1310804E+00
          2   -1    0    0  502    0  0.00000000000E+00  0.00000000000E+00  0.10492477025E+04  0.10492477025E+04  0.00000000000E+00 0. -1.
          1   -1    0    0  501    0 -0.00000000000E+00 -0.00000000000E+00 -0.15813748916E+04  0.15813748916E+04  0.00000000000E+00 0. -1.
         25    2    1    2    0    0 -0.32056012712E+02  0.21213250801E+03 -0.17074368359E+03  0.30133882508E+03  0.12499557236E+03 0.  0.
          2    1    1    2  501    0  0.27805999591E+02 -0.24318658563E+03 -0.13339456165E+04  0.13562167220E+04  0.00000000000E+00 0. -1.
          1    1    1    2  502    0  0.42500131212E+01  0.31054077619E+02  0.97256211100E+03  0.97306704708E+03  0.00000000000E+00 0. -1.
         22    1    3    3    0    0 -0.29622887724E+02  0.15333079181E+03 -0.18366776622E+03  0.24108441580E+03  0.00000000000E+00 0. -1.
         22    1    3    3    0    0 -0.24331249875E+01  0.58801716200E+02  0.12924082636E+02  0.60254409276E+02  0.00000000000E+00 0. -1.
</event>
<event>
 7    1  0.6103724E-006  0.5525766E+02  0.7818608E-02  0.1484893E+00
          2   -1    0    0  502    0  0.00000000000E+00  0.00000000000E+00  0.10940551500E+04  0.10940551500E+04  0.00000000000E+00 0. -1.
          1   -1    0    0  501    0 -0.00000000000E+00 -0.00000000000E+00 -0.15080643369E+03  0.15080643369E+03  0.00000000000E+00 0. -1.
         25    2    1    2    0    0 -0.39850966575E+02 -0.56857153485E+02  0.20899560190E+03  0.25323075944E+03  0.12500328184E+03 0.  0.
          2    1    1    2  501    0  0.33944891087E+02  0.21534527048E+01 -0.12554657339E+03  0.13007242244E+03  0.00000000000E+00 0. -1.
          1    1    1    2  502    0  0.59060754880E+01  0.54703700780E+02  0.85979968781E+03  0.86155840183E+03  0.00000000000E+00 0. -1.
         22    1    3    3    0    0  0.24603711896E+01  0.97320067630E+01  0.16009695513E+03  0.16041134755E+03  0.00000000000E+00 0. -1.
         22    1    3    3    0    0 -0.42311337765E+02 -0.66589160248E+02  0.48898646772E+02  0.92819411882E+02  0.00000000000E+00 0. -1.
</event>
<event>
 7    1  0.6103724E-006  0.1479543E+03  0.7818608E-02  0.1333025E+00
          2   -1    0    0  502    0  0.00000000000E+00  0.00000000000E+00  0.25002106871E+03  0.25002106871E+03  0.00000000000E+00 0. -1.
          1   -1    0    0  501    0 -0.00000000000E+00 -0.00000000000E+00 -0.66603408366E+03  0.66603408366E+03  0.00000000000E+00 0. -1.
         25    2    1    2    0    0  0.12530480973E+03  0.11951438198E+03 -0.29336668713E+03  0.36286882485E+03  0.12499915235E+03 0.  0.
          2    1    1    2  501    0 -0.11289973418E+03 -0.79625548295E+02 -0.32153450588E+03  0.34995859240E+03  0.00000000000E+00 0. -1.
          1    1    1    2  502    0 -0.12405075549E+02 -0.39888833685E+02  0.19888817807E+03  0.20322773513E+03  0.00000000000E+00 0. -1.
         22    1    3    3    0    0  0.60921004765E+02  0.11969247821E+03 -0.12849871001E+03  0.18587516412E+03  0.00000000000E+00 0.  1.
         22    1    3    3    0    0  0.64383804966E+02 -0.17809622597E+00 -0.16486797712E+03  0.17699366073E+03  0.00000000000E+00 0.  1.
</event>
<event>
 7    1  0.6103724E-006  0.5942917E+02  0.7818608E-02  0.1441447E+00
          2   -1    0    0  502    0  0.00000000000E+00  0.00000000000E+00  0.98628961081E+03  0.98628961081E+03  0.00000000000E+00 0. -1.
          1   -1    0    0  501    0 -0.00000000000E+00 -0.00000000000E+00 -0.14342303141E+04  0.14342303141E+04  0.00000000000E+00 0. -1.
         25    2    1    2    0    0  0.84209506739E+02 -0.27548306291E+02 -0.10588596824E+03  0.18624635929E+03  0.12500287146E+03 0.  0.
          2    1    1    2  501    0 -0.25391849290E+02  0.35077361876E+02 -0.12868704856E+04  0.12875988560E+04  0.00000000000E+00 0. -1.
          1    1    1    2  502    0 -0.58817657448E+02 -0.75290555852E+01  0.94481575050E+03  0.94667470966E+03  0.00000000000E+00 0. -1.
         22    1    3    3    0    0  0.43848342398E+02 -0.56403726807E+02 -0.24018721301E+01  0.71483050568E+02  0.00000000000E+00 0. -1.
         22    1    3    3    0    0  0.40361164340E+02  0.28855420516E+02 -0.10348409611E+03  0.11476330872E+03  0.00000000000E+00 0. -1.
</event>
<event>
 7    1  0.6103724E-006  0.7237396E+02  0.7818608E-02  0.1441600E+00
          2   -1    0    0  502    0  0.00000000000E+00  0.00000000000E+00  0.95840366098E+03  0.95840366098E+03  0.00000000000E+00 0. -1.
          1   -1    0    0  501    0 -0.00000000000E+00 -0.00000000000E+00 -0.71338303250E+03  0.71338303250E+03  0.00000000000E+00 0. -1.
         25    2    1    2    0    0 -0.19412834125E+02 -0.50279275123E+02  0.55505986925E+02  0.14701262920E+03  0.12500773946E+03 0.  0.
          2    1    1    2  501    0  0.54853613607E+02  0.47949907855E+02 -0.66527215673E+03  0.66924969564E+03  0.00000000000E+00 0. -1.
          1    1    1    2  502    0 -0.35440779482E+02  0.23293672686E+01  0.85478679830E+03  0.85552436864E+03  0.00000000000E+00 0. -1.
         22    1    3    3    0    0  0.70377861775E+01 -0.81654977444E+02  0.52436983319E+01  0.82125283244E+02  0.00000000000E+00 0.  1.
         22    1    3    3    0    0 -0.26450620303E+02  0.31375702321E+02  0.50262288593E+02  0.64887345955E+02  0.00000000000E+00 0.  1.
</event>
<event>
 7    1  0.6103724E-006  0.8450282E+02  0.7818608E-02  0.1351503E+00
          2   -1    0    0  502    0  0.00000000000E+00  0.00000000000E+00  0.15890143459E+04  0.15890143459E+04  0.00000000000E+00 0. -1.
          1   -1    0    0  501    0 -0.00000000000E+00 -0.00000000000E+00 -0.64372471304E+03  0.64372471304E+03  0.00000000000E+00 0. -1.
         25    2    1    2    0    0  0.10483291831E+03 -0.10117228439E+03  0.25425303735E+03  0.31858515873E+03  0.12500449779E+03 0.  0.
          2    1    1    2  501    0 -0.55818058402E+02  0.62626934401E+02 -0.60793024632E+03  0.61369126843E+03  0.00000000000E+00 0. -1.
          1    1    1    2  502    0 -0.49014859909E+02  0.38545349986E+02  0.12989668418E+04  0.13004626317E+04  0.00000000000E+00 0. -1.
         22    1    3    3    0    0  0.40497870487E+02 -0.28094365504E+01  0.24110211800E+01  0.40666736663E+02  0.00000000000E+00 0. -1.
         22    1    3    3    0    0  0.64335047823E+02 -0.98362847837E+02  0.25184201617E+03  0.27791842206E+03  0.00000000000E+00 0. -1.
</event>
<event>
 7    1  0.6103724E-006  0.7664569E+02  0.7818608E-02  0.1503585E+00
          2   -1    0    0  502    0  0.00000000000E+00  0.00000000000E+00  0.10580479580E+04  0.10580479580E+04  0.00000000000E+00 0. -1.
          1   -1    0    0  501    0 -0.00000000000E+00 -0.00000000000E+00 -0.55083553608E+03  0.55083553608E+03  0.00000000000E+00 0. -1.
         25    2    1    2    0    0  0.72602744012E+02  0.60580703343E+02 -0.31776784500E+03  0.35431965234E+03  0.12499933064E+03 0.  0.
          2    1    1    2  501    0 -0.75562486613E+01 -0.20175464501E+02 -0.21283741491E+03  0.21392501361E+03  0.00000000000E+00 0. -1.
          1    1    1    2  502    0 -0.65046495351E+02 -0.40405238842E+02  0.10378176818E+04  0.10406388281E+04  0.00000000000E+00 0. -1.
         22    1    3    3    0    0  0.89956342107E+02  0.86754827903E+02 -0.26310726155E+03  0.29127989070E+03  0.00000000000E+00 0.  1.
         22    1    3    3    0    0 -0.17353598095E+02 -0.26174124559E+02 -0.54660583456E+02  0.63039761636E+02  0.00000000000E+00 0.  1.
</event>
<event>
 7    1  0.6103724E-006  0.8351218E+02  0.7818608E-02  0.1364999E+00
          2   -1    0    0  502    0  0.00000000000E+00  0.00000000000E+00  0.30820880753E+04  0.30820880753E+04  0.00000000000E+00 0. -1.
          1   -1    0    0  501    0 -0.00000000000E+00 -0.00000000000E+00 -0.13089150199E+04  0.13089150199E+04  0.00000000000E+00 0. -1.
         25    2    1    2    0    0 -0.10585560128E+03 -0.34860550579E+02 -0.94531854422E+03  0.96003808659E+03  0.12500124531E+03 0.  0.
          2    1    1    2  501    0  0.49533032482E+02 -0.26789239001E+02 -0.35344031250E+03  0.35789836425E+03  0.00000000000E+00 0. -1.
          1    1    1    2  502    0  0.56322568800E+02  0.61649789581E+02  0.30719319121E+04  0.30730666444E+04  0.00000000000E+00 0. -1.
         22    1    3    3    0    0 -0.12432908982E+03 -0.53492488126E+02 -0.86546482690E+03  0.87598432376E+03  0.00000000000E+00 0. -1.
         22    1    3    3    0    0  0.18473488539E+02  0.18631937546E+02 -0.79853717322E+02  0.84053762828E+02  0.00000000000E+00 0. -1.
</event>
<event>
 7    1  0.6103724E-006  0.1115862E+03  0.7818608E-02  0.1341115E+00
          2   -1    0    0  502    0  0.00000000000E+00  0.00000000000E+00  0.26281370761E+03  0.26281370761E+03  0.00000000000E+00 0. -1.
          1   -1    0    0  501    0 -0.00000000000E+00 -0.00000000000E+00 -0.11278623719E+03  0.11278623719E+03  0.00000000000E+00 0. -1.
         25    2    1    2    0    0 -0.60222350909E+02 -0.65132522085E+02  0.85625352195E+02  0.17556963641E+03  0.12499607717E+03 0.  0.
          2    1    1    2  501    0 -0.80721145662E+01 -0.50987695974E+02  0.22558744165E+01  0.51671976386E+02  0.00000000000E+00 0. -1.
          1    1    1    2  502    0  0.68294465475E+02  0.11612021806E+03  0.62146243807E+02  0.14835833201E+03  0.00000000000E+00 0. -1.
         22    1    3    3    0    0  0.18230818240E+02  0.87369622571E+01 -0.17260770844E+02  0.26582540385E+02  0.00000000000E+00 0. -1.
         22    1    3    3    0    0 -0.78453169149E+02 -0.73869484342E+02  0.10288612304E+03  0.14898709602E+03  0.00000000000E+00 0. -1.
</event>
<event>
 7    1  0.6103724E-006  0.1368595E+03  0.7818608E-02  0.1373689E+00
          2   -1    0    0  502    0  0.00000000000E+00  0.00000000000E+00  0.57077072803E+03  0.57077072803E+03  0.00000000000E+00 0. -1.
          1   -1    0    0  501    0 -0.00000000000E+00 -0.00000000000E+00 -0.13552281271E+04  0.13552281271E+04  0.00000000000E+00 0. -1.
         25    2    1    2    0    0  0.63890178813E+02 -0.15190792093E+03 -0.49425466764E+02  0.21266276118E+03  0.12499840734E+03 0.  0.
          2    1    1    2  501    0 -0.22734627396E+01  0.31894425628E+02 -0.12146678759E+04  0.12150886683E+04  0.00000000000E+00 0. -1.
          1    1    1    2  502    0 -0.61616716073E+02  0.12001349530E+03  0.47963594363E+03  0.49824742566E+03  0.00000000000E+00 0. -1.
         22    1    3    3    0    0  0.88005627598E+02 -0.11714955761E+03  0.14062923955E+01  0.14652981606E+03  0.00000000000E+00 0.  1.
         22    1    3    3    0    0 -0.24115448784E+02 -0.34758363318E+02 -0.50831759160E+02  0.66132945117E+02  0.00000000000E+00 0.  1.
</event>
<event>
 7    1  0.6103724E-006  0.1098218E+03  0.7818608E-02  0.1340060E+00
          2   -1    0    0  502    0  0.00000000000E+00  0.00000000000E+00  0.62027276641E+03  0.62027276641E+03  0.00000000000E+00 0. -1.
          1   -1    0    0  501    0 -0.00000000000E+00 -0.00000000000E+00 -0.11873345157E+04  0.11873345157E+04  0.00000000000E+00 0. -1.
         25    2    1    2    0    0 -0.97027352979E-01 -0.61778575766E+02 -0.29497829398E+03  0.32627068414E+03  0.12499505420E+03 0.  0.
          2    1    1    2  501    0  0.26978742901E+02 -0.45541886131E+02 -0.87083855696E+03  0.87244581966E+03  0.00000000000E+00 0. -1.
          1    1    1    2  502    0 -0.26881715548E+02  0.10732046190E+03  0.59875510164E+03  0.60889077831E+03  0.00000000000E+00 0. -1.
         22    1    3    3    0    0  0.57532363729E+02 -0.43194319901E+01 -0.13395385879E+03  0.14585015136E+03  0.00000000000E+00 0. -1.
         22    1    3    3    0    0 -0.57629391082E+02 -0.57459143776E+02 -0.16102443519E+03  0.18042053278E+03  0.00000000000E+00 0. -1.
</event>
<event>
 7    1  0.6103724E-006  0.8601387E+02  0.7818608E-02  0.1353737E+00
          2   -1    0    0  502    0  0.00000000000E+00  0.00000000000E+00  0.29888979884E+02  0.29888979884E+02  0.00000000000E+00 0. -1.
          1   -1    0    0  501    0 -0.00000000000E+00 -0.00000000000E+00 -0.16078939093E+04  0.16078939093E+04  0.00000000000E+00 0. -1.
         25    2    1    2    0    0  0.75568853261E+02  0.38466102134E+02 -0.27360468766E+03  0.31253201117E+03  0.12500576106E+03 0.  0.
          2    1    1    2  501    0  0.18472071300E+02 -0.57199237169E+02 -0.10741697547E+04  0.10758501904E+04  0.00000000000E+00 0. -1.
          1    1    1    2  502    0 -0.94040924561E+02  0.18733135035E+02 -0.23023048706E+03  0.24940068767E+03  0.00000000000E+00 0. -1.
         22    1    3    3    0    0  0.28929353627E+02  0.49967968694E+02 -0.25428171771E+03  0.26075447716E+03  0.00000000000E+00 0. -1.
         22    1    3    3    0    0  0.46639499634E+02 -0.11501866560E+02 -0.19322969950E+02  0.51777534010E+02  0.00000000000E+00 0. -1.
</event>
<event>
 7    1  0.6103724E-006  0.4881665E+02  0.7818608E-02  0.1494640E+00
          2   -1    0    0  502    0  0.00000000000E+00  0.00000000000E+00  0.42085575124E+03  0.42085575124E+03  0.00000000000E+00 0. -1.
          1   -1    0    0  501    0 -0.00000000000E+00 -0.00000000000E+00 -0.34228314795E+03  0.34228314795E+03  0.00000000000E+00 0. -1.
         25    2    1    2    0    0 -0.17442691641E+02  0.42053153704E+01  0.26601257109E+03  0.29446016937E+03  0.12498868430E+03 0.  0.
          2    1    1    2  501    0  0.32148775245E+02 -0.37034669316E+02 -0.32388219800E+03  0.32757409645E+03  0.00000000000E+00 0. -1.
          1    1    1    2  502    0 -0.14706083604E+02  0.32829353946E+02  0.13644223020E+03  0.14110463337E+03  0.00000000000E+00 0. -1.
         22    1    3    3    0    0 -0.34546471109E+02 -0.24504132263E+02  0.25613435530E+03  0.25961263284E+03  0.00000000000E+00 0.  1.
         22    1    3    3    0    0  0.17103779468E+02  0.28709447634E+02  0.98782157839E+01  0.34847536536E+02  0.00000000000E+00 0.  1.
</event>
<event>
 7    1  0.6103724E-006  0.1155664E+03  0.7818608E-02  0.1344786E+00
          2   -1    0    0  502    0  0.00000000000E+00  0.00000000000E+00  0.12128625929E+04  0.12128625929E+04  0.00000000000E+00 0. -1.
          1   -1    0    0  501    0 -0.00000000000E+00 -0.00000000000E+00 -0.12918964649E+04  0.12918964649E+04  0.00000000000E+00 0. -1.
         25    2    1    2    0    0 -0.76868085880E+02 -0.38898904444E+02  0.30472991914E+03  0.34045060195E+03  0.12499784539E+03 0.  0.
          2    1    1    2  501    0  0.11543884695E+03  0.98409707323E+01 -0.12707439994E+04  0.12760146097E+04  0.00000000000E+00 0. -1.
          1    1    1    2  502    0 -0.38570761070E+02  0.29057933712E+02  0.88698020835E+03  0.88829384616E+03  0.00000000000E+00 0. -1.
         22    1    3    3    0    0 -0.14353410159E+02  0.18886605529E+02  0.21668476996E+03  0.21797938844E+03  0.00000000000E+00 0. -1.
         22    1    3    3    0    0 -0.62514675721E+02 -0.57785509973E+02  0.88045149181E+02  0.12247121351E+03  0.00000000000E+00 0. -1.
</event>
<event>
 7    1  0.6103724E-006  0.2616236E+03  0.7818608E-02  0.1274958E+00
          2   -1    0    0  502    0  0.00000000000E+00  0.00000000000E+00  0.41951048940E+04  0.41951048940E+04  0.00000000000E+00 0. -1.
          1   -1    0    0  501    0 -0.00000000000E+00 -0.00000000000E+00 -0.64834808682E+03  0.64834808682E+03  0.00000000000E+00 0. -1.
         25    2    1    2    0    0 -0.17517914873E+03 -0.20295991555E+03  0.18511313461E+04  0.18746193909E+04  0.12502055275E+03 0.  0.
          2    1    1    2  501    0  0.13939871406E+03  0.22133317046E+03 -0.60955193531E+03  0.66330531105E+03  0.00000000000E+00 0. -1.
          1    1    1    2  502    0  0.35780434671E+02 -0.18373254912E+02  0.23051773964E+04  0.23055282789E+04  0.00000000000E+00 0. -1.
         22    1    3    3    0    0 -0.93934871767E+02 -0.84367859354E+02  0.12578419736E+04  0.12641630142E+04  0.00000000000E+00 0.  1.
         22    1    3    3    0    0 -0.81244276964E+02 -0.11859205619E+03  0.59328937252E+03  0.61045637672E+03  0.00000000000E+00 0.  1.
</event>
<event>
 7    1  0.6103724E-006  0.5770723E+02  0.7818608E-02  0.1425781E+00
          2   -1    0    0  502    0  0.00000000000E+00  0.00000000000E+00  0.46824144778E+03  0.46824144778E+03  0.00000000000E+00 0. -1.
          1   -1    0    0  501    0 -0.00000000000E+00 -0.00000000000E+00 -0.15793548868E+04  0.15793548868E+04  0.00000000000E+00 0. -1.
         25    2    1    2    0    0  0.35756015203E+02 -0.94675316679E+02  0.38649806299E+02  0.16540825870E+03  0.12499670519E+03 0.  0.
          2    1    1    2  501    0 -0.11666177634E+01  0.50174155170E+02 -0.15133885486E+04  0.15142204944E+04  0.00000000000E+00 0. -1.
          1    1    1    2  502    0 -0.34589397439E+02  0.44501161509E+02  0.36362530327E+03  0.36796758141E+03  0.00000000000E+00 0. -1.
         22    1    3    3    0    0  0.45490214242E+02 -0.68105096239E+01  0.58883843168E+02  0.74719807410E+02  0.00000000000E+00 0. -1.
         22    1    3    3    0    0 -0.97341990391E+01 -0.87864807055E+02 -0.20234036869E+02  0.90688451292E+02  0.00000000000E+00 0. -1.
</event>
<event>
 7    1  0.6103724E-006  0.7551145E+02  0.7818608E-02  0.1362357E+00
          2   -1    0    0  502    0  0.00000000000E+00  0.00000000000E+00  0.22364002598E+04  0.22364002598E+04  0.00000000000E+00 0. -1.
          1   -1    0    0  501    0 -0.00000000000E+00 -0.00000000000E+00 -0.10883946429E+03  0.10883946429E+03  0.00000000000E+00 0. -1.
         25    2    1    2    0    0 -0.12273734676E+02  0.10610867508E+02  0.14965253362E+03  0.19566531581E+03  0.12500319964E+03 0.  0.
          2    1    1    2  501    0 -0.63391106631E+02  0.59561115377E+01 -0.73193105928E+02  0.97011022157E+02  0.00000000000E+00 0. -1.
          1    1    1    2  502    0  0.75664841307E+02 -0.16566979046E+02  0.20511013678E+04  0.20525633861E+04  0.00000000000E+00 0. -1.
         22    1    3    3    0    0  0.43744711972E+02  0.41796261273E+02  0.57990148522E+02  0.83805635893E+02  0.00000000000E+00 0. -1.
         22    1    3    3    0    0 -0.56018446648E+02 -0.31185393765E+02  0.91662385103E+02  0.11185967992E+03  0.00000000000E+00 0. -1.
</event>
<event>
 7    1  0.6103724E-006  0.3097970E+02  0.7818608E-02  0.1633214E+00
          2   -1    0    0  502    0  0.00000000000E+00  0.00000000000E+00  0.29607519831E+03  0.29607519831E+03  0.00000000000E+00 0. -1.
          1   -1    0    0  501    0 -0.00000000000E+00 -0.00000000000E+00 -0.82405380807E+02  0.82405380807E+02  0.00000000000E+00 0. -1.
         25    2    1    2    0    0  0.45330180688E+02 -0.68732591864E+01  0.84676635747E+02  0.15778964348E+03  0.12500148790E+03 0.  0.
          2    1    1    2  501    0 -0.28857923440E+02 -0.10049011055E+02 -0.39842627767E+02  0.50211526125E+02  0.00000000000E+00 0. -1.
          1    1    1    2  502    0 -0.16472257248E+02  0.16922270241E+02  0.16883580952E+03  0.17047940951E+03  0.00000000000E+00 0. -1.
         22    1    3    3    0    0  0.61712278010E+02  0.46285354480E+02  0.55021319373E+02  0.94752756594E+02  0.00000000000E+00 0.  1.
         22    1    3    3    0    0 -0.16382097322E+02 -0.53158613666E+02  0.29655316374E+02  0.63036886890E+02  0.00000000000E+00 0.  1.
</event>
<event>
 7    1  0.6103724E-006  0.8658359E+02  0.7818608E-02  0.1324169E+00
          2   -1    0    0  502    0  0.00000000000E+00  0.00000000000E+00  0.18527325526E+03  0.18527325526E+03  0.00000000000E+00 0. -1.
          1   -1    0    0  501    0 -0.00000000000E+00 -0.00000000000E+00 -0.60803796182E+03  0.60803796182E+03  0.00000000000E+00 0. -1.
         25    2    1    2    0    0  0.73925710608E+01 -0.70169733027E+01 -0.16695223637E+02  0.12652086947E+03  0.12499964759E+03 0.  0.
          2    1    1    2  501    0  0.86562186790E+02  0.19250151857E+01 -0.51535604872E+03  0.52257877379E+03  0.00000000000E+00 0. -1.
          1    1    1    2  502    0 -0.93954757851E+02  0.50919581170E+01  0.10928656579E+03  0.14421157382E+03  0.00000000000E+00 0. -1.
         22    1    3    3    0    0 -0.23932788167E+02  0.38781873722E+02 -0.45160569674E+02  0.64158313039E+02  0.00000000000E+00 0. -1.
         22    1    3    3    0    0  0.31325359228E+02 -0.45798847024E+02  0.28465346037E+02  0.62362556430E+02  0.00000000000E+00 0. -1.
</event>
<event>
 7    1  0.6555577E-006  0.6021556E+02  0.7818608E-02  0.1439509E+00
          2   -1    0    0  502    0  0.00000000000E+00  0.00000000000E+00  0.42016591913E+03  0.42016591913E+03  0.00000000000E+00 0. -1.
          1   -1    0    0  501    0 -0.00000000000E+00 -0.00000000000E+00 -0.19713089405E+04  0.19713089405E+04  0.00000000000E+00 0. -1.
         25    2    1    2    0    0  0.16140842144E+02  0.60854711766E+01 -0.38153895898E+03  0.40186099728E+03  0.12499089636E+03 0.  0.
          2    1    1    2  501    0  0.42455376082E+02  0.88140831755E+01 -0.15770804102E+04  0.15776763823E+04  0.00000000000E+00 0. -1.
          1    1    1    2  502    0 -0.58596218226E+02 -0.14899554352E+02  0.40747634777E+03  0.41193748009E+03  0.00000000000E+00 0. -1.
         22    1    3    3    0    0 -0.42518928168E+02  0.29403219305E+02 -0.25801001897E+03  0.26313794566E+03  0.00000000000E+00 0. -1.
         22    1    3    3    0    0  0.58659770313E+02 -0.23317748129E+02 -0.12352894001E+03  0.13872305162E+03  0.00000000000E+00 0. -1.
</event>
<event>
 7    1  0.6103724E-006  0.2157397E+03  0.7818608E-02  0.1243248E+00
          2   -1    0    0  502    0  0.00000000000E+00  0.00000000000E+00  0.10639218167E+04  0.10639218167E+04  0.00000000000E+00 0. -1.
          1   -1    0    0  501    0 -0.00000000000E+00 -0.00000000000E+00 -0.77913313890E+03  0.77913313890E+03  0.00000000000E+00 0. -1.
         25    2    1    2    0    0  0.23361189486E+03  0.52315919765E+02 -0.64293810247E+03  0.69735803729E+03  0.12500942235E+03 0.  0.
          2    1    1    2  501    0 -0.18442241329E+02 -0.64043160637E+02 -0.86293307321E+02  0.10903291970E+03  0.00000000000E+00 0. -1.
          1    1    1    2  502    0 -0.21516965353E+03  0.11727240872E+02  0.10140200876E+04  0.10366639987E+04  0.00000000000E+00 0. -1.
         22    1    3    3    0    0  0.80079639037E+02  0.57939152080E+02 -0.13927646020E+03  0.17078532226E+03  0.00000000000E+00 0.  1.
         22    1    3    3    0    0  0.15353225582E+03 -0.56232323150E+01 -0.50366164227E+03  0.52657271503E+03  0.00000000000E+00 0.  1.
</event>
<event>
 7    1  0.6103724E-006  0.6922865E+02  0.7818608E-02  0.1453435E+00
          2   -1    0    0  502    0  0.00000000000E+00  0.00000000000E+00  0.13112707000E+04  0.13112707000E+04  0.00000000000E+00 0. -1.
          1   -1    0    0  501    0 -0.00000000000E+00 -0.00000000000E+00 -0.14641137913E+03  0.14641137913E+03  0.00000000000E+00 0. -1.
         25    2    1    2    0    0 -0.42020882302E+02  0.85584080907E+02  0.86193817536E+03  0.87615789609E+03  0.12499940511E+03 0.  0.
          2    1    1    2  501    0  0.16328486344E+02 -0.29845318168E+02 -0.13505229573E+03  0.13927126432E+03  0.00000000000E+00 0. -1.
          1    1    1    2  502    0  0.25692395958E+02 -0.55738762739E+02  0.43797344127E+03  0.44225291874E+03  0.00000000000E+00 0. -1.
         22    1    3    3    0    0 -0.78993829847E+02  0.90051473257E+02  0.63914161917E+03  0.65027017642E+03  0.00000000000E+00 0.  1.
         22    1    3    3    0    0  0.36972947546E+02 -0.44673923505E+01  0.22279655619E+03  0.22588771967E+03  0.00000000000E+00 0.  1.
</event>
<event>
 7    1  0.6103724E-006  0.7717645E+02  0.7818608E-02  0.1353633E+00
          2   -1    0    0  502    0  0.00000000000E+00  0.00000000000E+00  0.29025705815E+04  0.29025705815E+04  0.00000000000E+00 0. -1.
          1   -1    0    0  501    0 -0.00000000000E+00 -0.00000000000E+00 -0.19966666841E+02  0.19966666841E+02  0.00000000000E+00 0. -1.
         25    2    1    2    0    0 -0.78569892799E+02  0.82693267651E+02  0.14005857873E+04  0.14107717404E+04  0.12499980616E+03 0.  0.
          2    1    1    2  501    0  0.71972952588E+01 -0.66662596366E+02  0.66760065781E+02  0.94618228668E+02  0.00000000000E+00 0. -1.
          1    1    1    2  502    0  0.71372597540E+02 -0.16030671286E+02  0.14152580616E+04  0.14171472793E+04  0.00000000000E+00 0. -1.
         22    1    3    3    0    0 -0.46903847411E+01 -0.23274375632E+02  0.54226113440E+03  0.54278065012E+03  0.00000000000E+00 0. -1.
         22    1    3    3    0    0 -0.73879508058E+02  0.10596764328E+03  0.85832465285E+03  0.86799109030E+03  0.00000000000E+00 0. -1.
</event>
<event>
 7    1  0.6103724E-006  0.1177166E+03  0.7818608E-02  0.1425492E+00
          2   -1    0    0  502    0  0.00000000000E+00  0.00000000000E+00  0.93018790570E+03  0.93018790570E+03  0.00000000000E+00 0. -1.
          1   -1    0    0  501    0 -0.00000000000E+00 -0.00000000000E+00 -0.21638418315E+03  0.21638418315E+03  0.00000000000E+00 0. -1.
         25    2    1    2    0    0  0.11844136047E+03  0.50893058978E+02  0.26084682278E+03  0.31667789311E+03  0.12500145482E+03 0.  0.
          2    1    1    2  501    0 -0.56985376613E+01 -0.23989931224E+02 -0.18239602704E+03  0.18405515699E+03  0.00000000000E+00 0. -1.
          1    1    1    2  502    0 -0.11274282281E+03 -0.26903127755E+02  0.63535292681E+03  0.64583903876E+03  0.00000000000E+00 0. -1.
         22    1    3    3    0    0  0.12901792468E+03  0.33185610416E+02  0.26410048790E+03  0.29579718954E+03  0.00000000000E+00 0.  1.
         22    1    3    3    0    0 -0.10576564207E+02  0.17707448563E+02 -0.32536651201E+01  0.20880703574E+02  0.00000000000E+00 0.  1.
</event>
<event>
 7    1  0.6103724E-006  0.1544891E+03  0.7818608E-02  0.1346548E+00
          2   -1    0    0  502    0  0.00000000000E+00  0.00000000000E+00  0.15213087656E+04  0.15213087656E+04  0.00000000000E+00 0. -1.
          1   -1    0    0  501    0 -0.00000000000E+00 -0.00000000000E+00 -0.12523838632E+04  0.12523838632E+04  0.00000000000E+00 0. -1.
         25    2    1    2    0    0  0.17866377378E+03 -0.38611114764E+02 -0.43349370501E+03  0.48677881117E+03  0.12500102586E+03 0.  0.
          2    1    1    2  501    0 -0.14410705721E+03  0.30129254455E+02 -0.78519342647E+03  0.79887629386E+03  0.00000000000E+00 0. -1.
          1    1    1    2  502    0 -0.34556716571E+02  0.84818603086E+01  0.14876120339E+04  0.14880375237E+04  0.00000000000E+00 0. -1.
         22    1    3    3    0    0  0.97972305690E+02 -0.14925991736E+02 -0.92485136369E+02  0.13555389467E+03  0.00000000000E+00 0. -1.
         22    1    3    3    0    0  0.80691468095E+02 -0.23685123028E+02 -0.34100856865E+03  0.35122491649E+03  0.00000000000E+00 0. -1.
</event>
<event>
 7    1  0.6103724E-006  0.1037980E+03  0.7818608E-02  0.1346070E+00
          2   -1    0    0  502    0  0.00000000000E+00  0.00000000000E+00  0.60632969082E+02  0.60632969082E+02  0.00000000000E+00 0. -1.
          1   -1    0    0  501    0 -0.00000000000E+00 -0.00000000000E+00 -0.16047833581E+04  0.16047833581E+04  0.00000000000E+00 0. -1.
         25    2    1    2    0    0  0.68157178271E+02 -0.66838554283E+02 -0.97639943833E+03  0.98898632069E+03  0.12500114425E+03 0.  0.
          2    1    1    2  501    0 -0.37538017065E+02  0.11031560151E+03 -0.60200264336E+03  0.61317682382E+03  0.00000000000E+00 0. -1.
          1    1    1    2  502    0 -0.30619161207E+02 -0.43477047227E+02  0.34251692659E+02  0.63253182676E+02  0.00000000000E+00 0. -1.
         22    1    3    3    0    0  0.13896138717E+01 -0.34425920546E+02 -0.57055507728E+02  0.66651376537E+02  0.00000000000E+00 0. -1.
         22    1    3    3    0    0  0.66767564400E+02 -0.32412633737E+02 -0.91934393060E+03  0.92233494416E+03  0.00000000000E+00 0. -1.
</event>
<event>
 7    1  0.6103724E-006  0.7871555E+02  0.7818608E-02  0.1387017E+00
          2   -1    0    0  502    0  0.00000000000E+00  0.00000000000E+00  0.18370296605E+04  0.18370296605E+04  0.00000000000E+00 0. -1.
          1   -1    0    0  501    0 -0.00000000000E+00 -0.00000000000E+00 -0.31628168091E+02  0.31628168091E+02  0.00000000000E+00 0. -1.
         25    2    1    2    0    0 -0.38923043172E+02 -0.35523473082E+02  0.54371518236E+03  0.56038098322E+03  0.12499490547E+03 0.  0.
          2    1    1    2  501    0  0.18243567471E+02 -0.46414349024E+02  0.65505320611E+01  0.50299393830E+02  0.00000000000E+00 0. -1.
          1    1    1    2  502    0  0.20679475700E+02  0.81937822106E+02  0.12551357780E+04  0.12579774515E+04  0.00000000000E+00 0. -1.
         22    1    3    3    0    0 -0.12694675388E+02  0.38477558750E+02  0.33404620776E+03  0.33649449658E+03  0.00000000000E+00 0.  1.
         22    1    3    3    0    0 -0.26228367783E+02 -0.74001031833E+02  0.20966897460E+03  0.22388648664E+03  0.00000000000E+00 0.  1.
</event>
<event>
 7    1  0.6103724E-006  0.6620265E+02  0.7818608E-02  0.1445896E+00
          2   -1    0    0  502    0  0.00000000000E+00  0.00000000000E+00  0.10466641391E+04  0.10466641391E+04  0.00000000000E+00 0. -1.
          1   -1    0    0  501    0 -0.00000000000E+00 -0.00000000000E+00 -0.75975855252E+02  0.75975855252E+02  0.00000000000E+00 0. -1.
         25    2    1    2    0    0  0.11104195677E+02 -0.31945241465E+02  0.11596902155E+03  0.17383284279E+03  0.12500096663E+03 0.  0.
          2    1    1    2  501    0  0.31285246979E+02 -0.20870849911E+02 -0.38034640316E+02  0.53488250285E+02  0.00000000000E+00 0. -1.
          1    1    1    2  502    0 -0.42389442657E+02  0.52816091376E+02  0.89275390257E+03  0.89531890124E+03  0.00000000000E+00 0. -1.
         22    1    3    3    0    0  0.51503957779E+02  0.10442652980E+02  0.10027241336E+03  0.11320893758E+03  0.00000000000E+00 0. -1.
         22    1    3    3    0    0 -0.40399762102E+02 -0.42387894444E+02  0.15696608192E+02  0.60623905203E+02  0.00000000000E+00 0. -1.
</event>
<event>
 7    1  0.6103724E-006  0.5571208E+02  0.7818608E-02  0.1438564E+00
          2   -1    0    0  502    0  0.00000000000E+00  0.00000000000E+00  0.52694309410E+03  0.52694309410E+03  0.00000000000E+00 0. -1.
          1   -1    0    0  501    0 -0.00000000000E+00 -0.00000000000E+00 -0.55796909928E+02  0.55796909928E+02  0.00000000000E+00 0. -1.
         25    2    1    2    0    0 -0.14005698509E+02  0.73650490591E+01  0.19565206157E+03  0.23271347456E+03  0.12500171402E+03 0.  0.
          2    1    1    2  501    0 -0.38423184821E+02  0.27410599896E+02 -0.17511856037E+02  0.50342300506E+02  0.00000000000E+00 0. -1.
          1    1    1    2  502    0  0.52428883329E+02 -0.34775648955E+02  0.29300597864E+03  0.29968422896E+03  0.00000000000E+00 0. -1.
         22    1    3    3    0    0 -0.48156194784E+02 -0.24965558539E+02  0.17144652063E+03  0.17982271170E+03  0.00000000000E+00 0.  1.
         22    1    3    3    0    0  0.34150496275E+02  0.32330607598E+02  0.24205540940E+02  0.52890762858E+02  0.00000000000E+00 0.  1.
</event>
<event>
 7    1  0.6103724E-006  0.5428601E+02  0.7818608E-02  0.1480355E+00
          2   -1    0    0  502    0  0.00000000000E+00  0.00000000000E+00  0.21298597088E+03  0.21298597088E+03  0.00000000000E+00 0. -1.
          1   -1    0    0  501    0 -0.00000000000E+00 -0.00000000000E+00 -0.50212293140E+03  0.50212293140E+03  0.00000000000E+00 0. -1.
         25    2    1    2    0    0 -0.21287172801E+02  0.43834612145E+02 -0.40235684183E+03  0.42414466111E+03  0.12503218957E+03 0.  0.
          2    1    1    2  501    0 -0.76183111253E+01 -0.64863389151E+02 -0.74959794341E+02  0.99419659445E+02  0.00000000000E+00 0. -1.
          1    1    1    2  502    0  0.28905483926E+02  0.21028777005E+02  0.18817967565E+03  0.19154458174E+03  0.00000000000E+00 0. -1.
         22    1    3    3    0    0  0.76309710351E+01  0.12632175815E+02  0.42188203088E+01  0.15349333196E+02  0.00000000000E+00 0.  1.
         22    1    3    3    0    0 -0.28918143836E+02  0.31202436330E+02 -0.40657566214E+03  0.40879532791E+03  0.00000000000E+00 0.  1.
</event>
<event>
 7    1  0.6103724E-006  0.1358794E+03  0.7818608E-02  0.1274041E+00
          2   -1    0    0  502    0  0.00000000000E+00  0.00000000000E+00  0.53388892238E+03  0.53388892238E+03  0.00000000000E+00 0. -1.
          1   -1    0    0  501    0 -0.00000000000E+00 -0.00000000000E+00 -0.17143736869E+04  0.17143736869E+04  0.00000000000E+00 0. -1.
         25    2    1    2    0    0 -0.77332413005E+02 -0.34868904362E+01 -0.96766023113E+02  0.17601498738E+03  0.12500060818E+03 0.  0.
          2    1    1    2  501    0 -0.46985519553E+02 -0.62422339179E+02 -0.15669757839E+04  0.15689223354E+04  0.00000000000E+00 0. -1.
          1    1    1    2  502    0  0.12431793256E+03  0.65909229615E+02  0.48325704246E+03  0.50332528646E+03  0.00000000000E+00 0. -1.
         22    1    3    3    0    0 -0.71174591588E+02  0.30289875365E+02 -0.44028942490E+01  0.77476993457E+02  0.00000000000E+00 0.  1.
         22    1    3    3    0    0 -0.61578214174E+01 -0.33776765801E+02 -0.92363128864E+02  0.98537993921E+02  0.00000000000E+00 0.  1.
</event>
<event>
 7    1  0.8221357E-006  0.8453009E+02  0.7818608E-02  0.1335838E+00
          2   -1    0    0  502    0  0.00000000000E+00  0.00000000000E+00  0.14602541743E+04  0.14602541743E+04  0.00000000000E+00 0. -1.
          1   -1    0    0  501    0 -0.00000000000E+00 -0.00000000000E+00 -0.52234927945E+03  0.52234927945E+03  0.00000000000E+00 0. -1.
         25    2    1    2    0    0 -0.57838958511E+01 -0.32289153625E+02 -0.11803599211E+03  0.17502496138E+03  0.12500079512E+03 0.  0.
          2    1    1    2  501    0  0.65451223740E+02 -0.28384468938E+02 -0.37115426732E+03  0.37794845007E+03  0.00000000000E+00 0. -1.
          1    1    1    2  502    0 -0.59667327889E+02  0.60673622563E+02  0.14270951543E+04  0.14296300423E+04  0.00000000000E+00 0. -1.
         22    1    3    3    0    0  0.45052109737E+01 -0.76996060194E+02 -0.98648982400E+02  0.12522105230E+03  0.00000000000E+00 0.  1.
         22    1    3    3    0    0 -0.10289106825E+02  0.44706906569E+02 -0.19387009709E+02  0.49803909080E+02  0.00000000000E+00 0.  1.
</event>
<event>
 7    1  0.6103724E-006  0.1013676E+03  0.7818608E-02  0.1389051E+00
          2   -1    0    0  502    0  0.00000000000E+00  0.00000000000E+00  0.82253815964E+03  0.82253815964E+03  0.00000000000E+00 0. -1.
          1   -1    0    0  501    0 -0.00000000000E+00 -0.00000000000E+00 -0.31826145440E+03  0.31826145440E+03  0.00000000000E+00 0. -1.
         25    2    1    2    0    0 -0.66871890424E+02  0.29885905283E+02  0.23160974393E+03  0.27319087718E+03  0.12500065930E+03 0.  0.
          2    1    1    2  501    0  0.10149311238E+03 -0.13987510689E+02 -0.28798377879E+03  0.30566510949E+03  0.00000000000E+00 0. -1.
          1    1    1    2  502    0 -0.34621221952E+02 -0.15898394594E+02  0.56065074011E+03  0.56194362737E+03  0.00000000000E+00 0. -1.
         22    1    3    3    0    0 -0.72715188453E+02 -0.12609845451E+02  0.21479082390E+03  0.22711584019E+03  0.00000000000E+00 0.  1.
         22    1    3    3    0    0  0.58432980296E+01  0.42495750734E+02  0.16818920029E+02  0.46075036986E+02  0.00000000000E+00 0.  1.
</event>
<event>
 7    1  0.6103724E-006  0.1061927E+03  0.7818608E-02  0.1356719E+00
          2   -1    0    0  502    0  0.00000000000E+00  0.00000000000E+00  0.43618388708E+03  0.43618388708E+03  0.00000000000E+00 0. -1.
          1   -1    0    0  501    0 -0.00000000000E+00 -0.00000000000E+00 -0.55051661023E+03  0.55051661023E+03  0.00000000000E+00 0. -1.
         25    2    1    2    0    0 -0.66897269083E+02  0.76633298836E+02 -0.12475833477E+03  0.20380785279E+03  0.12500036665E+03 0.  0.
          2    1    1    2  501    0 -0.31647865071E+02 -0.35384653741E+02 -0.37752697955E+03  0.38050004123E+03  0.00000000000E+00 0. -1.
          1    1    1    2  502    0  0.98545134154E+02 -0.41248645094E+02  0.38795259117E+03  0.40239260329E+03  0.00000000000E+00 0. -1.
         22    1    3    3    0    0 -0.77880564224E+02 -0.14514525347E+00 -0.89408558505E+02  0.11857189247E+03  0.00000000000E+00 0.  1.
         22    1    3    3    0    0  0.10983295141E+02  0.76778444089E+02 -0.35349776269E+02  0.85235960317E+02  0.00000000000E+00 0.  1.
</event>
<event>
 7    1  0.6305401E-006  0.8434758E+02  0.7818608E-02  0.1410315E+00
          2   -1    0    0  502    0  0.00000000000E+00  0.00000000000E+00  0.58436979257E+03  0.58436979257E+03  0.00000000000E+00 0. -1.
          1   -1    0    0  501    0 -0.00000000000E+00 -0.00000000000E+00 -0.24917607299E+04  0.24917607299E+04  0.00000000000E+00 0. -1.
         25    2    1    2    0    0  0.46013134853E+02  0.63075242888E+02 -0.58259493418E+03  0.60094639439E+03  0.12499606695E+03 0.  0.
          2    1    1    2  501    0  0.29407597595E+02 -0.25136347232E+02 -0.18966938222E+04  0.18970883210E+04  0.00000000000E+00 0. -1.
          1    1    1    2  502    0 -0.75420732447E+02 -0.37938895656E+02  0.57189781903E+03  0.57809580703E+03  0.00000000000E+00 0. -1.
         22    1    3    3    0    0 -0.35582671567E+02  0.51940399643E+02 -0.30318328836E+03  0.30965147823E+03  0.00000000000E+00 0.  1.
         22    1    3    3    0    0  0.81595806419E+02  0.11134843245E+02 -0.27941164582E+03  0.29129491616E+03  0.00000000000E+00 0.  1.
</event>
<event>
 7    1  0.6103724E-006  0.8889717E+02  0.7818608E-02  0.1456996E+00
          2   -1    0    0  502    0  0.00000000000E+00  0.00000000000E+00  0.20311965012E+04  0.20311965012E+04  0.00000000000E+00 0. -1.
          1   -1    0    0  501    0 -0.00000000000E+00 -0.00000000000E+00 -0.35875247355E+03  0.35875247355E+03  0.00000000000E+00 0. -1.
         25    2    1    2    0    0 -0.54428843982E+02 -0.77552529719E+02  0.48282678664E+02  0.16411057071E+03  0.12499667370E+03 0.  0.
          2    1    1    2  501    0  0.25031733315E+02 -0.62990497701E+01 -0.29925730278E+03  0.30036843870E+03  0.00000000000E+00 0. -1.
          1    1    1    2  502    0  0.29397110667E+02  0.83851579489E+02  0.19234186517E+04  0.19254699653E+04  0.00000000000E+00 0. -1.
         22    1    3    3    0    0 -0.72351416280E+02 -0.46480087251E+02  0.79083621990E+02  0.11683041220E+03  0.00000000000E+00 0. -1.
         22    1    3    3    0    0  0.17922572298E+02 -0.31072442468E+02 -0.30800943326E+02  0.47280158507E+02  0.00000000000E+00 0. -1.
</event>
<event>
 7    1  0.6103724E-006  0.9475327E+02  0.7818608E-02  0.1298609E+00
          2   -1    0    0  502    0  0.00000000000E+00  0.00000000000E+00  0.35760441826E+02  0.35760441826E+02  0.00000000000E+00 0. -1.
          1   -1    0    0  501    0 -0.00000000000E+00 -0.00000000000E+00 -0.24828272626E+04  0.24828272626E+04  0.00000000000E+00 0. -1.
         25    2    1    2    0    0 -0.16343461553E+01  0.10802454982E+02 -0.48445856614E+03  0.50044692771E+03  0.12501064365E+03 0.  0.
          2    1    1    2  501    0 -0.53515043545E+02 -0.87852613091E+02 -0.19038936694E+04  0.19066706706E+04  0.00000000000E+00 0. -1.
          1    1    1    2  502    0  0.55149389700E+02  0.77050158109E+02 -0.58714585203E+02  0.11147010615E+03  0.00000000000E+00 0. -1.
         22    1    3    3    0    0  0.19653409866E+02  0.34198820221E+02 -0.44953112354E+02  0.59804666491E+02  0.00000000000E+00 0. -1.
         22    1    3    3    0    0 -0.21287756021E+02 -0.23396365239E+02 -0.43950545378E+03  0.44064226122E+03  0.00000000000E+00 0. -1.
</event>
<event>
 7    1  0.6103724E-006  0.2539947E+02  0.7818608E-02  0.1681967E+00
          2   -1    0    0  502    0  0.00000000000E+00  0.00000000000E+00  0.44489273621E+03  0.44489273621E+03  0.00000000000E+00 0. -1.
          1   -1    0    0  501    0 -0.00000000000E+00 -0.00000000000E+00 -0.29809702081E+04  0.29809702081E+04  0.00000000000E+00 0. -1.
         25    2    1    2    0    0 -0.43951825929E+02  0.97807298321E+01 -0.14249801186E+04  0.14311607355E+04  0.12500114729E+03 0.  0.
          2    1    1    2  501    0  0.21774150925E+02  0.25907396833E+01 -0.15524573642E+04  0.15526122160E+04  0.00000000000E+00 0. -1.
          1    1    1    2  502    0  0.22177675005E+02 -0.12371469515E+02  0.44136001090E+03  0.44208999281E+03  0.00000000000E+00 0. -1.
         22    1    3    3    0    0 -0.83777768534E+02 -0.69915125078E+01 -0.11176517722E+04  0.11208091182E+04  0.00000000000E+00 0.  1.
         22    1    3    3    0    0  0.39825942605E+02  0.16772242340E+02 -0.30732834646E+03  0.31035161729E+03  0.00000000000E+00 0.  1.
</event>
<event>
 7    1  0.6103724E-006  0.2057562E+03  0.7818608E-02  0.1203680E+00
          2   -1    0    0  502    0  0.00000000000E+00  0.00000000000E+00  0.30587557397E+04  0.30587557397E+04  0.00000000000E+00 0. -1.
          1   -1    0    0  501    0 -0.00000000000E+00 -0.00000000000E+00 -0.89386583952E+03  0.89386583952E+03  0.00000000000E+00 0. -1.
         25    2    1    2    0    0 -0.15068818603E+03 -0.39708098281E+01  0.66856418180E+02  0.20692400843E+03  0.12500027150E+03 0.  0.
          2    1    1    2  501    0  0.18605648288E+03  0.10349613294E+03 -0.80910157548E+03  0.83664438311E+03  0.00000000000E+00 0. -1.
          1    1    1    2  502    0 -0.35368296856E+02 -0.99525323113E+02  0.29071350575E+04  0.29090531877E+04  0.00000000000E+00 0. -1.
         22    1    3    3    0    0 -0.15700527319E+03  0.30993367283E+02  0.58770797619E+02  0.17048534036E+03  0.00000000000E+00 0.  1.
         22    1    3    3    0    0  0.63170871561E+01 -0.34964177111E+02  0.80856205611E+01  0.36438668075E+02  0.00000000000E+00 0.  1.
</event>
<event>
 7    1  0.6103724E-006  0.5990708E+02  0.7818608E-02  0.1532659E+00
          2   -1    0    0  502    0  0.00000000000E+00  0.00000000000E+00  0.17201017371E+04  0.17201017371E+04  0.00000000000E+00 0. -1.
          1   -1    0    0  501    0 -0.00000000000E+00 -0.00000000000E+00 -0.56748828376E+02  0.56748828376E+02  0.00000000000E+00 0. -1.
         25    2    1    2    0    0  0.24085717074E+02  0.34377741103E+02  0.42888902248E+03  0.44869976073E+03  0.12499492321E+03 0.  0.
          2    1    1    2  501    0 -0.15053718540E+01  0.22632235735E+02 -0.43318684418E+02  0.48897777644E+02  0.00000000000E+00 0. -1.
          1    1    1    2  502    0 -0.22580345220E+02 -0.57009976838E+02  0.12777825707E+04  0.12792530271E+04  0.00000000000E+00 0. -1.
         22    1    3    3    0    0  0.62966891576E+02  0.58624216128E+02  0.28026661633E+03  0.29317401723E+03  0.00000000000E+00 0.  1.
         22    1    3    3    0    0 -0.38881174502E+02 -0.24246475025E+02  0.14862240615E+03  0.15552574350E+03  0.00000000000E+00 0.  1.
</event>
<event>
 7    1  0.6103724E-006  0.4505696E+02  0.7818608E-02  0.1476803E+00
          2   -1    0    0  502    0  0.00000000000E+00  0.00000000000E+00  0.10038571005E+04  0.10038571005E+04  0.00000000000E+00 0. -1.
          1   -1    0    0  501    0 -0.00000000000E+00 -0.00000000000E+00 -0.27486195461E+03  0.27486195461E+03  0.00000000000E+00 0. -1.
         25    2    1    2    0    0  0.46544932664E+02  0.46548296877E+02  0.20263838658E+03  0.24703221950E+03  0.12501770697E+03 0.  0.
          2    1    1    2  501    0 -0.16856594053E+01 -0.44131715553E+02 -0.25008090712E+03  0.25395060518E+03  0.00000000000E+00 0. -1.
          1    1    1    2  502    0 -0.44859273259E+02 -0.24165813245E+01  0.77643766647E+03  0.77773623046E+03  0.00000000000E+00 0. -1.
         22    1    3    3    0    0 -0.33376872419E+02 -0.91859409321E+01  0.98558958919E+02  0.10446178970E+03  0.00000000000E+00 0.  1.
         22    1    3    3    0    0  0.79921805083E+02  0.55734237809E+02  0.10407942766E+03  0.14257042980E+03  0.00000000000E+00 0.  1.
</event>
<event>
 7    1  0.6103724E-006  0.1137327E+03  0.7818608E-02  0.1356762E+00
          2   -1    0    0  502    0  0.00000000000E+00  0.00000000000E+00  0.11024025723E+04  0.11024025723E+04  0.00000000000E+00 0. -1.
          1   -1    0    0  501    0 -0.00000000000E+00 -0.00000000000E+00 -0.25126030409E+04  0.25126030409E+04  0.00000000000E+00 0. -1.
         25    2    1    2    0    0  0.67297238227E+02  0.58242632210E+02  0.35960921752E+03  0.39097924155E+03  0.12499942207E+03 0.  0.
          2    1    1    2  501    0 -0.53656567430E+02 -0.10040022298E+03 -0.24949439001E+04  0.24975396487E+04  0.00000000000E+00 0. -1.
          1    1    1    2  502    0 -0.13640670797E+02  0.42157590775E+02  0.72513421397E+03  0.72648672295E+03  0.00000000000E+00 0. -1.
         22    1    3    3    0    0  0.53371465428E+02 -0.24531443996E+02  0.22332176310E+03  0.23091755009E+03  0.00000000000E+00 0.  1.
         22    1    3    3    0    0  0.13925772799E+02  0.82774076206E+02  0.13628745443E+03  0.16006169146E+03  0.00000000000E+00 0.  1.
</event>
<event>
 7    1  0.6103724E-006  0.6940984E+02  0.7818608E-02  0.1397363E+00
          2   -1    0    0  502    0  0.00000000000E+00  0.00000000000E+00  0.42716744161E+03  0.42716744161E+03  0.00000000000E+00 0. -1.
          1   -1    0    0  501    0 -0.00000000000E+00 -0.00000000000E+00 -0.91155499219E+02  0.91155499219E+02  0.00000000000E+00 0. -1.
         25    2    1    2    0    0 -0.43559784605E+02  0.52368600910E+02  0.21177152657E+03  0.25517133788E+03  0.12500122804E+03 0.  0.
          2    1    1    2  501    0  0.47045531366E+02  0.22291237075E+02 -0.50851836907E+02  0.72774243992E+02  0.00000000000E+00 0. -1.
          1    1    1    2  502    0 -0.34857467617E+01 -0.74659837985E+02  0.17509225273E+03  0.19037735896E+03  0.00000000000E+00 0. -1.
         22    1    3    3    0    0 -0.69037303514E+01  0.79406141038E+02  0.69380036214E+02  0.10567206893E+03  0.00000000000E+00 0. -1.
         22    1    3    3    0    0 -0.36656054253E+02 -0.27037540129E+02  0.14239149035E+03  0.14949926894E+03  0.00000000000E+00 0. -1.
</event>
<event>
 7    1  0.6103724E-006  0.1013888E+03  0.7818608E-02  0.1303118E+00
          2   -1    0    0  502    0  0.00000000000E+00  0.00000000000E+00  0.14202524131E+04  0.14202524131E+04  0.00000000000E+00 0. -1.
          1   -1    0    0  501    0 -0.00000000000E+00 -0.00000000000E+00 -0.64621981147E+03  0.64621981147E+03  0.00000000000E+00 0. -1.
         25    2    1    2    0    0  0.34255650326E+01  0.12984716191E+03  0.34593416407E+03  0.39008579470E+03  0.12499784561E+03 0.  0.
          2    1    1    2  501    0  0.60056879481E+02 -0.81666194184E+02 -0.61850290284E+03  0.62675516501E+03  0.00000000000E+00 0. -1.
          1    1    1    2  502    0 -0.63482444513E+02 -0.48180967726E+02  0.10466013404E+04  0.10496312649E+04  0.00000000000E+00 0. -1.
         22    1    3    3    0    0 -0.59328182129E+02  0.82653058120E+02  0.19690766614E+03  0.22163932457E+03  0.00000000000E+00 0. -1.
         22    1    3    3    0    0  0.62753747162E+02  0.47194103790E+02  0.14902649793E+03  0.16844647013E+03  0.00000000000E+00 0. -1.
</event>
<event>
 7    1  0.6103724E-006  0.7322903E+02  0.7818608E-02  0.1383649E+00
          2   -1    0    0  502    0  0.00000000000E+00  0.00000000000E+00  0.24505403370E+03  0.24505403370E+03  0.00000000000E+00 0. -1.
          1   -1    0    0  501    0 -0.00000000000E+00 -0.00000000000E+00 -0.61763216831E+03  0.61763216831E+03  0.00000000000E+00 0. -1.
         25    2    1    2    0    0  0.71462046448E+02  0.48083031873E+02 -0.17170082051E+03  0.22917899818E+03  0.12499215738E+03 0.  0.
          2    1    1    2  501    0  0.16237292166E+01 -0.55064382650E+02 -0.40906262597E+03  0.41275532061E+03  0.00000000000E+00 0. -1.
          1    1    1    2  502    0 -0.73085775664E+02  0.69813507764E+01  0.20818531187E+03  0.22075188321E+03  0.00000000000E+00 0. -1.
         22    1    3    3    0    0  0.10718611461E+03  0.28631980153E+02 -0.13041954757E+03  0.17122474074E+03  0.00000000000E+00 0. -1.
         22    1    3    3    0    0 -0.35724068167E+02  0.19451051721E+02 -0.41281272947E+02  0.57954257441E+02  0.00000000000E+00 0. -1.
</event>
<event>
 7    1  0.6103724E-006  0.9597140E+02  0.7818608E-02  0.1290989E+00
          2   -1    0    0  502    0  0.00000000000E+00  0.00000000000E+00  0.36906589341E+03  0.36906589341E+03  0.00000000000E+00 0. -1.
          1   -1    0    0  501    0 -0.00000000000E+00 -0.00000000000E+00 -0.59252185059E+03  0.59252185059E+03  0.00000000000E+00 0. -1.
         25    2    1    2    0    0 -0.30992010258E+02 -0.11270301874E+03 -0.21740453130E+03  0.27668308781E+03  0.12500530275E+03 0.  0.
          2    1    1    2  501    0  0.90915726191E+02  0.40015923037E+02 -0.33151771145E+03  0.34607937872E+03  0.00000000000E+00 0. -1.
          1    1    1    2  502    0 -0.59923715933E+02  0.72687095702E+02  0.32546628557E+03  0.33882527747E+03  0.00000000000E+00 0. -1.
         22    1    3    3    0    0 -0.43147911821E+02 -0.79381663300E+02 -0.45505687445E+02  0.10116302859E+03  0.00000000000E+00 0. -1.
         22    1    3    3    0    0  0.12155901563E+02 -0.33321355439E+02 -0.17189884385E+03  0.17552005922E+03  0.00000000000E+00 0. -1.
</event>
<event>
 7    1  0.6103724E-006  0.8938524E+02  0.7818608E-02  0.1373335E+00
          2   -1    0    0  502    0  0.00000000000E+00  0.00000000000E+00  0.44366998667E+03  0.44366998667E+03  0.00000000000E+00 0. -1.
          1   -1    0    0  501    0 -0.00000000000E+00 -0.00000000000E+00 -0.10052676872E+04  0.10052676872E+04  0.00000000000E+00 0. -1.
         25    2    1    2    0    0 -0.84384907382E+02 -0.15512763607E+02 -0.54661807253E+03  0.56725438312E+03  0.12499903809E+03 0.  0.
          2    1    1    2  501    0  0.71657928870E+02  0.62935473305E+02 -0.44183613450E+03  0.45201205992E+03  0.00000000000E+00 0. -1.
          1    1    1    2  502    0  0.12726978511E+02 -0.47422709698E+02  0.42685650655E+03  0.42967123078E+03  0.00000000000E+00 0. -1.
         22    1    3    3    0    0 -0.13883748223E+02  0.43751655208E+02 -0.85641162882E+02  0.97166735965E+02  0.00000000000E+00 0.  1.
         22    1    3    3    0    0 -0.70501159158E+02 -0.59264418815E+02 -0.46097690965E+03  0.47008764716E+03  0.00000000000E+00 0.  1.
</event>
<event>
 7    1  0.6103724E-006  0.7965242E+02  0.7818608E-02  0.1494509E+00
          2   -1    0    0  502    0  0.00000000000E+00  0.00000000000E+00  0.39070493693E+04  0.39070493693E+04  0.00000000000E+00 0. -1.
          1   -1    0    0  501    0 -0.00000000000E+00 -0.00000000000E+00 -0.28563322105E+03  0.28563322105E+03  0.00000000000E+00 0. -1.
         25    2    1    2    0    0 -0.60951959404E+02  0.32970385415E+02  0.11316754719E+03  0.18230354940E+03  0.12500201086E+03 0.  0.
          2    1    1    2  501    0  0.29670258258E+01  0.21866197409E+02 -0.25015590963E+03  0.25112728436E+03  0.00000000000E+00 0. -1.
          1    1    1    2  502    0  0.57984933578E+02 -0.54836582824E+02  0.37584045107E+04  0.37592517566E+04  0.00000000000E+00 0. -1.
         22    1    3    3    0    0 -0.99590723331E+02  0.30116375329E+02  0.78865951696E+02  0.13055706252E+03  0.00000000000E+00 0. -1.
         22    1    3    3    0    0  0.38638763928E+02  0.28540100867E+01  0.34301595490E+02  0.51746486882E+02  0.00000000000E+00 0. -1.
</event>
<event>
 7    1  0.6103724E-006  0.7592272E+02  0.7818608E-02  0.1417416E+00
          2   -1    0    0  502    0  0.00000000000E+00  0.00000000000E+00  0.16048087724E+04  0.16048087724E+04  0.00000000000E+00 0. -1.
          1   -1    0    0  501    0 -0.00000000000E+00 -0.00000000000E+00 -0.10000471332E+03  0.10000471332E+03  0.00000000000E+00 0. -1.
         25    2    1    2    0    0 -0.25186006361E+02  0.58211782165E+02  0.29029793130E+03  0.32236562478E+03  0.12499504240E+03 0.  0.
          2    1    1    2  501    0 -0.38272759582E+02 -0.13772519810E+02 -0.77816070424E+02  0.87805621939E+02  0.00000000000E+00 0. -1.
          1    1    1    2  502    0  0.63458765943E+02 -0.44439262355E+02  0.12923221982E+04  0.12946422390E+04  0.00000000000E+00 0. -1.
         22    1    3    3    0    0  0.20596506617E+02 -0.17003858069E+02  0.17634562031E+03  0.17835673544E+03  0.00000000000E+00 0. -1.
         22    1    3    3    0    0 -0.45782512978E+02  0.75215640234E+02  0.11395231100E+03  0.14400888935E+03  0.00000000000E+00 0. -1.
</event>
<event>
 7    1  0.6103724E-006  0.1013428E+03  0.7818608E-02  0.1304101E+00
          2   -1    0    0  502    0  0.00000000000E+00  0.00000000000E+00  0.19258304611E+04  0.19258304611E+04  0.00000000000E+00 0. -1.
          1   -1    0    0  501    0 -0.00000000000E+00 -0.00000000000E+00 -0.17083211025E+03  0.17083211025E+03  0.00000000000E+00 0. -1.
         25    2    1    2    0    0  0.45352032996E+02  0.22960636169E+02  0.39521647957E+03  0.41762125456E+03  0.12500979492E+03 0.  0.
          2    1    1    2  501    0  0.65256825836E+02 -0.44554816972E+02 -0.14761747785E+03  0.16743507638E+03  0.00000000000E+00 0. -1.
          1    1    1    2  502    0 -0.11060885883E+03  0.21594180803E+02  0.15073993491E+04  0.15116062404E+04  0.00000000000E+00 0. -1.
         22    1    3    3    0    0  0.51094677904E+02  0.65503816351E+02  0.18112047622E+03  0.19926375228E+03  0.00000000000E+00 0.  1.
         22    1    3    3    0    0 -0.57426449090E+01 -0.42543180182E+02  0.21409600335E+03  0.21835750228E+03  0.00000000000E+00 0.  1.
</event>
<event>
 7    1  0.6103724E-006  0.1106263E+03  0.7818608E-02  0.1290668E+00
          2   -1    0    0  502    0  0.00000000000E+00  0.00000000000E+00  0.10629522809E+04  0.10629522809E+04  0.00000000000E+00 0. -1.
          1   -1    0    0  501    0 -0.00000000000E+00 -0.00000000000E+00 -0.32552667012E+03  0.32552667012E+03  0.00000000000E+00 0. -1.
         25    2    1    2    0    0  0.56268316562E+02  0.35908897849E+02  0.18193767361E+03  0.23061117131E+03  0.12499849143E+03 0.  0.
          2    1    1    2  501    0 -0.24198689905E+02 -0.11134450069E+03 -0.28835590870E+03  0.31005209967E+03  0.00000000000E+00 0. -1.
          1    1    1    2  502    0 -0.32069626657E+02  0.75435602844E+02  0.84384384589E+03  0.84781568008E+03  0.00000000000E+00 0. -1.
         22    1    3    3    0    0  0.43775124195E+02 -0.22018749366E+02  0.11733837142E+02  0.50386206009E+02  0.00000000000E+00 0.  1.
         22    1    3    3    0    0  0.12493192367E+02  0.57927647215E+02  0.17020383647E+03  0.18022496530E+03  0.00000000000E+00 0.  1.
</event>
<event>
 7    1  0.6103724E-006  0.8562192E+02  0.7818608E-02  0.1434449E+00
          2   -1    0    0  502    0  0.00000000000E+00  0.00000000000E+00  0.19534587196E+04  0.19534587196E+04  0.00000000000E+00 0. -1.
          1   -1    0    0  501    0 -0.00000000000E+00 -0.00000000000E+00 -0.54716100376E+02  0.54716100376E+02  0.00000000000E+00 0. -1.
         25    2    1    2    0    0 -0.39170003908E+01  0.96921307288E+02  0.12727887899E+04  0.12825850199E+04  0.12499578710E+03 0.  0.
          2    1    1    2  501    0 -0.24017545565E+02 -0.81990251565E+02 -0.12504848874E+02  0.86345903737E+02  0.00000000000E+00 0. -1.
          1    1    1    2  502    0  0.27934545956E+02 -0.14931055723E+02  0.63845867819E+03  0.63924389637E+03  0.00000000000E+00 0. -1.
         22    1    3    3    0    0  0.57516041106E+02  0.70574073886E+02  0.77448953458E+03  0.77982230928E+03  0.00000000000E+00 0. -1.
         22    1    3    3    0    0 -0.61433041497E+02  0.26347233401E+02  0.49829925536E+03  0.50276271062E+03  0.00000000000E+00 0. -1.
</event>
<event>
 7    1  0.6103724E-006  0.9222284E+02  0.7818608E-02  0.1354083E+00
          2   -1    0    0  502    0  0.00000000000E+00  0.00000000000E+00  0.67295912024E+03  0.67295912024E+03  0.00000000000E+00 0. -1.
          1   -1    0    0  501    0 -0.00000000000E+00 -0.00000000000E+00 -0.36143627588E+03  0.36143627588E+03  0.00000000000E+00 0. -1.
         25    2    1    2    0    0  0.31270479110E+02  0.25913648695E+02 -0.10059070391E+03  0.16549127679E+03  0.12497804978E+03 0.  0.
          2    1    1    2  501    0  0.20735682169E+02  0.51908537888E+02 -0.22148483659E+03  0.22842941505E+03  0.00000000000E+00 0. -1.
          1    1    1    2  502    0 -0.52006161279E+02 -0.77822186583E+02  0.63359838486E+03  0.64047470429E+03  0.00000000000E+00 0. -1.
         22    1    3    3    0    0  0.51833133455E+02  0.63372164339E+02 -0.89596755936E+02  0.12136837978E+03  0.00000000000E+00 0.  1.
         22    1    3    3    0    0 -0.20562654344E+02 -0.37458515644E+02 -0.10993947974E+02  0.44122897004E+02  0.00000000000E+00 0.  1.
</event>
<event>
 7    1  0.6103724E-006  0.5247583E+02  0.7818608E-02  0.1474734E+00
          2   -1    0    0  502    0  0.00000000000E+00  0.00000000000E+00  0.91897472439E+03  0.91897472439E+03  0.00000000000E+00 0. -1.
          1   -1    0    0  501    0 -0.00000000000E+00 -0.00000000000E+00 -0.29074990757E+02  0.29074990757E+02  0.00000000000E+00 0. -1.
         25    2    1    2    0    0 -0.10289068803E+02  0.11873073985E+02  0.13258149475E+03  0.18287184684E+03  0.12496969550E+03 0.  0.
          2    1    1    2  501    0 -0.24319702704E+02  0.29822560365E+02  0.13141391646E+03  0.13693228431E+03  0.00000000000E+00 0. -1.
          1    1    1    2  502    0  0.34608771507E+02 -0.41695634350E+02  0.62590432242E+03  0.62824558400E+03  0.00000000000E+00 0. -1.
         22    1    3    3    0    0 -0.31045579312E+02  0.50738550664E+02  0.21294229900E+02  0.63179686176E+02  0.00000000000E+00 0.  1.
         22    1    3    3    0    0  0.20756510509E+02 -0.38865476680E+02  0.11128726485E+03  0.11969216066E+03  0.00000000000E+00 0.  1.
</event>
<event>
 7    1  0.6103724E-006  0.1991918E+03  0.7818608E-02  0.1285286E+00
          2   -1    0    0  502    0  0.00000000000E+00  0.00000000000E+00  0.85273515449E+03  0.85273515449E+03  0.00000000000E+00 0. -1.
          1   -1    0    0  501    0 -0.00000000000E+00 -0.00000000000E+00 -0.10685313437E+03  0.10685313437E+03  0.00000000000E+00 0. -1.
         25    2    1    2    0    0  0.14454058956E+03  0.17891375141E+03  0.28918000169E+03  0.39006668283E+03  0.12499932481E+03 0.  0.
          2    1    1    2  501    0 -0.12782731395E+03 -0.13404021840E+03  0.10169928011E+03  0.21130391836E+03  0.00000000000E+00 0. -1.
          1    1    1    2  502    0 -0.16713275605E+02 -0.44873533012E+02  0.35500273832E+03  0.35821768767E+03  0.00000000000E+00 0. -1.
         22    1    3    3    0    0  0.97182515756E+02  0.10905305191E+03  0.84697715806E+02  0.16885115505E+03  0.00000000000E+00 0.  1.
         22    1    3    3    0    0  0.47358073800E+02  0.69860699499E+02  0.20448228589E+03  0.22121552778E+03  0.00000000000E+00 0.  1.
</event>
<event>
 7    1  0.6103724E-006  0.1077337E+03  0.7818608E-02  0.1287747E+00
          2   -1    0    0  502    0  0.00000000000E+00  0.00000000000E+00  0.16662106701E+04  0.16662106701E+04  0.00000000000E+00 0. -1.
          1   -1    0    0  501    0 -0.00000000000E+00 -0.00000000000E+00 -0.27859632073E+03  0.27859632073E+03  0.00000000000E+00 0. -1.
         25    2    1    2    0    0 -0.39349659867E+02 -0.24279970554E+02  0.10979931678E+03  0.17268557286E+03  0.12500601748E+03 0.  0.
          2    1    1    2  501    0  0.13551012054E+02 -0.85439609506E+02 -0.23742564356E+03  0.25269446575E+03  0.00000000000E+00 0. -1.
          1    1    1    2  502    0  0.25798647812E+02  0.10971958006E+03  0.15152406762E+04  0.15194269522E+04  0.00000000000E+00 0. -1.
         22    1    3    3    0    0 -0.61225558153E+02 -0.40792654587E+02  0.16438370348E+02  0.75384545227E+02  0.00000000000E+00 0. -1.
         22    1    3    3    0    0  0.21875898286E+02  0.16512684033E+02  0.93360946432E+02  0.97301027634E+02  0.00000000000E+00 0. -1.
</event>
<event>
 7    1  0.6103724E-006  0.6771572E+02  0.7818608E-02  0.1471577E+00
          2   -1    0    0  502    0  0.00000000000E+00  0.00000000000E+00  0.10670157797E+03  0.10670157797E+03  0.00000000000E+00 0. -1.
          1   -1    0    0  501    0 -0.00000000000E+00 -0.00000000000E+00 -0.20975855726E+04  0.20975855726E+04  0.00000000000E+00 0. -1.
         25    2    1    2    0    0  0.86733326292E+02 -0.44762362973E+02 -0.56469079437E+03  0.58653637337E+03  0.12499153979E+03 0.  0.
          2    1    1    2  501    0 -0.27221617403E+02  0.13756458242E+02 -0.15100453934E+04  0.15103533847E+04  0.00000000000E+00 0. -1.
          1    1    1    2  502    0 -0.59511708889E+02  0.31005904732E+02  0.83852193127E+02  0.10739739250E+03  0.00000000000E+00 0. -1.
         22    1    3    3    0    0  0.64262214533E+02 -0.18702039573E+02 -0.54012713690E+03  0.54425795586E+03  0.00000000000E+00 0.  1.
         22    1    3    3    0    0  0.22471111759E+02 -0.26060323401E+02 -0.24563657469E+02  0.42278417517E+02  0.00000000000E+00 0.  1.
</event>
<event>
 7    1  0.6103724E-006  0.5175908E+02  0.7818608E-02  0.1492801E+00
          2   -1    0    0  502    0  0.00000000000E+00  0.00000000000E+00  0.18020393752E+04  0.18020393752E+04  0.00000000000E+00 0. -1.
          1   -1    0    0  501    0 -0.00000000000E+00 -0.00000000000E+00 -0.44574615201E+03  0.44574615201E+03  0.00000000000E+00 0. -1.
         25    2    1    2    0    0  0.67676055100E+02  0.31276855198E+02 -0.29496964984E+02  0.14850480893E+03  0.12500126890E+03 0.  0.
          2    1    1    2  501    0 -0.34038169064E+02 -0.38298418349E+02 -0.35473499694E+03  0.35841635546E+03  0.00000000000E+00 0. -1.
          1    1    1    2  502    0 -0.33637886036E+02  0.70215631505E+01  0.17405251851E+04  0.17408643628E+04  0.00000000000E+00 0. -1.
         22    1    3    3    0    0  0.27343213798E+01 -0.22617079150E+02  0.35364342807E+02  0.42067154941E+02  0.00000000000E+00 0. -1.
         22    1    3    3    0    0  0.64941733720E+02  0.53893934349E+02 -0.64861307790E+02  0.10643765399E+03  0.00000000000E+00 0. -1.
</event>
<event>
 7    1  0.6103724E-006  0.5627064E+02  0.7818608E-02  0.1472896E+00
          2   -1    0    0  502    0  0.00000000000E+00  0.00000000000E+00  0.52399304961E+03  0.52399304961E+03  0.00000000000E+00 0. -1.
          1   -1    0    0  501    0 -0.00000000000E+00 -0.00000000000E+00 -0.36163606138E+04  0.36163606138E+04  0.00000000000E+00 0. -1.
         25    2    1    2    0    0  0.41068409992E+02 -0.80088741276E+02 -0.13371150337E+04  0.13459578283E+04  0.12500016505E+03 0.  0.
          2    1    1    2  501    0 -0.27169077416E+02  0.46490777508E+02 -0.22738689386E+04  0.22745064302E+04  0.00000000000E+00 0. -1.
          1    1    1    2  502    0 -0.13899332576E+02  0.33597963768E+02  0.51861640812E+03  0.51988940495E+03  0.00000000000E+00 0. -1.
         22    1    3    3    0    0  0.75924089153E+02 -0.19207015751E+02 -0.88167893700E+03  0.88515034017E+03  0.00000000000E+00 0.  1.
         22    1    3    3    0    0 -0.34855679160E+02 -0.60881725524E+02 -0.45543609672E+03  0.46080748808E+03  0.00000000000E+00 0.  1.
</event>
<event>
 7    1  0.6103724E-006  0.7884801E+02  0.7818608E-02  0.1381792E+00
          2   -1    0    0  502    0  0.00000000000E+00  0.00000000000E+00  0.19690659539E+04  0.19690659539E+04  0.00000000000E+00 0. -1.
          1   -1    0    0  501    0 -0.00000000000E+00 -0.00000000000E+00 -0.74096983325E+02  0.74096983325E+02  0.00000000000E+00 0. -1.
         25    2    1    2    0    0 -0.35985386013E+02  0.84834031489E+02  0.53257095030E+03  0.55475094455E+03  0.12500012989E+03 0.  0.
          2    1    1    2  501    0 -0.15421948924E+02 -0.77415371271E+02 -0.37611639659E+02  0.87439188328E+02  0.00000000000E+00 0. -1.
          1    1    1    2  502    0  0.51407334937E+02 -0.74186602186E+01  0.14000096599E+04  0.14009728043E+04  0.00000000000E+00 0. -1.
         22    1    3    3    0    0  0.16327242586E+02  0.23538690232E+02  0.17834590385E+02  0.33744946325E+02  0.00000000000E+00 0. -1.
         22    1    3    3    0    0 -0.52312628599E+02  0.61295341258E+02  0.51473635991E+03  0.52100599822E+03  0.00000000000E+00 0. -1.
</event>
<event>
 7    1  0.6103724E-006  0.5380393E+02  0.7818608E-02  0.1456603E+00
          2   -1    0    0  502    0  0.00000000000E+00  0.00000000000E+00  0.65782005226E+03  0.65782005226E+03  0.00000000000E+00 0. -1.
          1   -1    0    0  501    0 -0.00000000000E+00 -0.00000000000E+00 -0.13950377343E+04  0.13950377343E+04  0.00000000000E+00 0. -1.
         25    2    1    2    0    0  0.39324701513E+02  0.37010095293E+02 -0.77369412774E+03  0.78557803153E+03  0.12495623643E+03 0.  0.
          2    1    1    2  501    0  0.14404253147E+02 -0.40271789551E+02 -0.61354471700E+03  0.61503367331E+03  0.00000000000E+00 0. -1.
          1    1    1    2  502    0 -0.53728954660E+02  0.32616942579E+01  0.65002116268E+03  0.65224608175E+03  0.00000000000E+00 0. -1.
         22    1    3    3    0    0  0.72671756595E+02  0.35419720867E+02 -0.70026076418E+03  0.70491196520E+03  0.00000000000E+00 0. -1.
         22    1    3    3    0    0 -0.33347055082E+02  0.15903744262E+01 -0.73433363560E+02  0.80666066330E+02  0.00000000000E+00 0. -1.
</event>
<event>
 7    1  0.6103724E-006  0.1070719E+03  0.7818608E-02  0.1377171E+00
          2   -1    0    0  502    0  0.00000000000E+00  0.00000000000E+00  0.63151522442E+03  0.63151522442E+03  0.00000000000E+00 0. -1.
          1   -1    0    0  501    0 -0.00000000000E+00 -0.00000000000E+00 -0.54893648123E+02  0.54893648123E+02  0.00000000000E+00 0. -1.
         25    2    1    2    0    0  0.37416989108E+00 -0.11178085321E+03  0.36423550172E+03  0.40098328334E+03  0.12499997463E+03 0.  0.
          2    1    1    2  501    0  0.37848169547E+02  0.12045763145E+02 -0.80045009500E+01  0.40517359036E+02  0.00000000000E+00 0. -1.
          1    1    1    2  502    0 -0.38222339438E+02  0.99735090064E+02  0.22039057554E+03  0.24490823017E+03  0.00000000000E+00 0. -1.
         22    1    3    3    0    0  0.13845569525E+02 -0.13774522536E+03  0.30060156226E+03  0.33094825296E+03  0.00000000000E+00 0. -1.
         22    1    3    3    0    0 -0.13471399634E+02  0.25964372149E+02  0.63633939455E+02  0.70035030376E+02  0.00000000000E+00 0. -1.
</event>
<event>
 7    1  0.6103724E-006  0.1033839E+03  0.7818608E-02  0.1372062E+00
          2   -1    0    0  502    0  0.00000000000E+00  0.00000000000E+00  0.22571353313E+04  0.22571353313E+04  0.00000000000E+00 0. -1.
          1   -1    0    0  501    0 -0.00000000000E+00 -0.00000000000E+00 -0.42926450430E+02  0.42926450430E+02  0.00000000000E+00 0. -1.
         25    2    1    2    0    0  0.26635826268E+02  0.12671556363E+03  0.40824358921E+03  0.44615777795E+03  0.12501053311E+03 0.  0.
          2    1    1    2  501    0  0.21574056422E+02 -0.37080896905E+02 -0.21236733003E+01  0.42952797512E+02  0.00000000000E+00 0. -1.
          1    1    1    2  502    0 -0.48209882690E+02 -0.89634666723E+02  0.18080889649E+04  0.18109512062E+04  0.00000000000E+00 0. -1.
         22    1    3    3    0    0  0.35498700409E+01  0.98822248875E+02  0.11930081868E+03  0.15495523156E+03  0.00000000000E+00 0.  1.
         22    1    3    3    0    0  0.23085956227E+02  0.27893314754E+02  0.28894277053E+03  0.29120254639E+03  0.00000000000E+00 0.  1.
</event>
<event>
 7    1  0.6103724E-006  0.7758845E+02  0.7818608E-02  0.1362113E+00
          2   -1    0    0  502    0  0.00000000000E+00  0.00000000000E+00  0.16647583200E+04  0.16647583200E+04  0.00000000000E+00 0. -1.
          1   -1    0    0  501    0 -0.00000000000E+00 -0.00000000000E+00 -0.29691552855E+02  0.29691552855E+02  0.00000000000E+00 0. -1.
         25    2    1    2    0    0  0.38094463108E+02 -0.30378848133E+02  0.62463560703E+03  0.63888982847E+03  0.12504602680E+03 0.  0.
          2    1    1    2  501    0 -0.51516653792E+01  0.83011944633E+02  0.58686552402E+02  0.10179211188E+03  0.00000000000E+00 0. -1.
          1    1    1    2  502    0 -0.32942797729E+02 -0.52633096500E+02  0.95174460772E+03  0.95376793252E+03  0.00000000000E+00 0. -1.
         22    1    3    3    0    0  0.65715990622E+02 -0.48837022683E+02  0.56252923897E+03  0.56845649869E+03  0.00000000000E+00 0.  1.
         22    1    3    3    0    0 -0.27621527514E+02  0.18458174550E+02  0.62106368054E+02  0.70433329772E+02  0.00000000000E+00 0.  1.
</event>
<event>
 7    1  0.6103724E-006  0.8315040E+02  0.7818608E-02  0.1392459E+00
          2   -1    0    0  502    0  0.00000000000E+00  0.00000000000E+00  0.12801883863E+04  0.12801883863E+04  0.00000000000E+00 0. -1.
          1   -1    0    0  501    0 -0.00000000000E+00 -0.00000000000E+00 -0.36394069186E+03  0.36394069186E+03  0.00000000000E+00 0. -1.
         25    2    1    2    0    0 -0.12990266067E+02  0.73952828160E+02  0.30918210399E+03  0.34185038526E+03  0.12502137687E+03 0.  0.
          2    1    1    2  501    0  0.44894928026E+02  0.51600446942E+01 -0.34422118222E+03  0.34717488808E+03  0.00000000000E+00 0. -1.
          1    1    1    2  502    0 -0.31904661959E+02 -0.79112872855E+02  0.95128677265E+03  0.95510380479E+03  0.00000000000E+00 0. -1.
         22    1    3    3    0    0  0.51108886650E+02  0.46112053547E+02  0.10079782956E+03  0.12205999435E+03  0.00000000000E+00 0.  1.
         22    1    3    3    0    0 -0.64099152718E+02  0.27840774614E+02  0.20838427443E+03  0.21979039091E+03  0.00000000000E+00 0.  1.
</event>
<event>
 7    1  0.6103724E-006  0.6916068E+02  0.7818608E-02  0.1415218E+00
          2   -1    0    0  502    0  0.00000000000E+00  0.00000000000E+00  0.79364067921E+03  0.79364067921E+03  0.00000000000E+00 0. -1.
          1   -1    0    0  501    0 -0.00000000000E+00 -0.00000000000E+00 -0.11951493852E+04  0.11951493852E+04  0.00000000000E+00 0. -1.
         25    2    1    2    0    0  0.22654111324E+02 -0.25881526115E+02 -0.11366207069E+02  0.13014447063E+03  0.12500132167E+03 0.  0.
          2    1    1    2  501    0  0.44873473152E+02  0.70096648069E+01 -0.11222598206E+04  0.11231784671E+04  0.00000000000E+00 0. -1.
          1    1    1    2  502    0 -0.67527584476E+02  0.18871861308E+02  0.73211732165E+03  0.73546712672E+03  0.00000000000E+00 0. -1.
         22    1    3    3    0    0 -0.36455780101E+02  0.15041184952E+02  0.27823152400E+02  0.48263743711E+02  0.00000000000E+00 0. -1.
         22    1    3    3    0    0  0.59109891426E+02 -0.40922711066E+02 -0.39189359470E+02  0.81880726920E+02  0.00000000000E+00 0. -1.
</event>
<event>
 7    1  0.6103724E-006  0.3905447E+02  0.7818608E-02  0.1520595E+00
          2   -1    0    0  502    0  0.00000000000E+00  0.00000000000E+00  0.60584432112E+03  0.60584432112E+03  0.00000000000E+00 0. -1.
          1   -1    0    0  501    0 -0.00000000000E+00 -0.00000000000E+00 -0.43278901761E+03  0.43278901761E+03  0.00000000000E+00 0. -1.
         25    2    1    2    0    0 -0.40959012397E+02  0.19062980368E+02 -0.13636365415E+03  0.19042508371E+03  0.12500251365E+03 0.  0.
          2    1    1    2  501    0  0.32485475866E+02  0.19108901437E+02 -0.26741134178E+03  0.27005422042E+03  0.00000000000E+00 0. -1.
          1    1    1    2  502    0  0.84735365306E+01 -0.38171881806E+02  0.57683029944E+03  0.57815403460E+03  0.00000000000E+00 0. -1.
         22    1    3    3    0    0  0.40301732023E+02  0.26511526218E+02 -0.71173269380E+02  0.85980956617E+02  0.00000000000E+00 0. -1.
         22    1    3    3    0    0 -0.81260744419E+02 -0.74485458498E+01 -0.65190384769E+02  0.10444412710E+03  0.00000000000E+00 0. -1.
</event>
<event>
 7    1  0.6103724E-006  0.6222254E+02  0.7818608E-02  0.1407644E+00
          2   -1    0    0  502    0  0.00000000000E+00  0.00000000000E+00  0.18080775937E+04  0.18080775937E+04  0.00000000000E+00 0. -1.
          1   -1    0    0  501    0 -0.00000000000E+00 -0.00000000000E+00 -0.71438772360E+02  0.71438772360E+02  0.00000000000E+00 0. -1.
         25    2    1    2    0    0 -0.38104842283E+02  0.61567852965E+02  0.20654787627E+03  0.25205260469E+03  0.12500364321E+03 0.  0.
          2    1    1    2  501    0 -0.23017436838E+02 -0.48349514363E+02 -0.33145499220E+02  0.62976996247E+02  0.00000000000E+00 0. -1.
          1    1    1    2  502    0  0.61122279121E+02 -0.13218338602E+02  0.15632364443E+04  0.15644867652E+04  0.00000000000E+00 0. -1.
         22    1    3    3    0    0 -0.24175922997E+02  0.62955390964E+02  0.22151908484E+03  0.23155682122E+03  0.00000000000E+00 0.  1.
         22    1    3    3    0    0 -0.13928919286E+02 -0.13875379986E+01 -0.14971208570E+02  0.20495783474E+02  0.00000000000E+00 0.  1.
</event>
<event>
 7    1  0.6103724E-006  0.6806715E+02  0.7818608E-02  0.1488993E+00
          2   -1    0    0  502    0  0.00000000000E+00  0.00000000000E+00  0.42090524778E+03  0.42090524778E+03  0.00000000000E+00 0. -1.
          1   -1    0    0  501    0 -0.00000000000E+00 -0.00000000000E+00 -0.58410846432E+03  0.58410846432E+03  0.00000000000E+00 0. -1.
         25    2    1    2    0    0  0.39303619962E+02  0.36636613387E+02  0.19562874603E+03  0.23828964462E+03  0.12499732989E+03 0.  0.
          2    1    1    2  501    0 -0.63488515965E+02 -0.25016592437E+02 -0.55981458270E+03  0.56395832165E+03  0.00000000000E+00 0. -1.
          1    1    1    2  502    0  0.24184896003E+02 -0.11620020950E+02  0.20098262014E+03  0.20276574583E+03  0.00000000000E+00 0. -1.
         22    1    3    3    0    0 -0.44464514773E+02  0.26276768318E+02  0.74834443905E+02  0.90927199571E+02  0.00000000000E+00 0.  1.
         22    1    3    3    0    0  0.83768134735E+02  0.10359845070E+02  0.12079430212E+03  0.14736244505E+03  0.00000000000E+00 0.  1.
</event>
<event>
 7    1  0.6103724E-006  0.9005156E+02  0.7818608E-02  0.1340113E+00
          2   -1    0    0  502    0  0.00000000000E+00  0.00000000000E+00  0.84861632592E+03  0.84861632592E+03  0.00000000000E+00 0. -1.
          1   -1    0    0  501    0 -0.00000000000E+00 -0.00000000000E+00 -0.20239715400E+03  0.20239715400E+03  0.00000000000E+00 0. -1.
         25    2    1    2    0    0 -0.21718471502E+02 -0.25918126167E+02  0.43411498911E+03  0.45301636873E+03  0.12499826119E+03 0.  0.
          2    1    1    2  501    0  0.70733331527E+02 -0.55732212885E+02 -0.17636510525E+03  0.19802508450E+03  0.00000000000E+00 0. -1.
          1    1    1    2  502    0 -0.49014860025E+02  0.81650339052E+02  0.38846928807E+03  0.39997202670E+03  0.00000000000E+00 0. -1.
         22    1    3    3    0    0 -0.38749930060E+02 -0.22638508998E+02  0.43333687629E+03  0.43565457363E+03  0.00000000000E+00 0.  1.
         22    1    3    3    0    0  0.17031458559E+02 -0.32796171692E+01  0.77811281061E+00  0.17361795096E+02  0.00000000000E+00 0.  1.
</event>
<event>
 7    1  0.6103724E-006  0.1124003E+03  0.7818608E-02  0.1351906E+00
          2   -1    0    0  502    0  0.00000000000E+00  0.00000000000E+00  0.23383337681E+03  0.23383337681E+03  0.00000000000E+00 0. -1.
          1   -1    0    0  501    0 -0.00000000000E+00 -0.00000000000E+00 -0.20746983277E+03  0.20746983277E+03  0.00000000000E+00 0. -1.
         25    2    1    2    0    0  0.14445726073E+03 -0.61440704752E+01  0.80619726532E+02  0.20744560522E+03  0.12501395537E+03 0.  0.
          2    1    1    2  501    0 -0.10612043711E+03 -0.20555890552E+02 -0.11460507258E+03  0.15753861263E+03  0.00000000000E+00 0. -1.
          1    1    1    2  502    0 -0.38336823617E+02  0.26699961027E+02  0.60348890091E+02  0.76318991733E+02  0.00000000000E+00 0. -1.
         22    1    3    3    0    0  0.15655680090E+03  0.12698355707E+02  0.92307045615E+02  0.18218636287E+03  0.00000000000E+00 0. -1.
         22    1    3    3    0    0 -0.12099540166E+02 -0.18842426182E+02 -0.11687319083E+02  0.25259242348E+02  0.00000000000E+00 0. -1.
</event>
<event>
 7    1  0.6103724E-006  0.8445695E+02  0.7818608E-02  0.1362060E+00
          2   -1    0    0  502    0  0.00000000000E+00  0.00000000000E+00  0.33797808426E+02  0.33797808426E+02  0.00000000000E+00 0. -1.
          1   -1    0    0  501    0 -0.00000000000E+00 -0.00000000000E+00 -0.19412221125E+04  0.19412221125E+04  0.00000000000E+00 0. -1.
         25    2    1    2    0    0 -0.90139786101E+02  0.36680570369E+02 -0.39519573806E+03  0.42576344741E+03  0.12499678590E+03 0.  0.
          2    1    1    2  501    0  0.44957346629E+02  0.35151363174E+02 -0.14298476159E+04  0.14309860188E+04  0.00000000000E+00 0. -1.
          1    1    1    2  502    0  0.45182439471E+02 -0.71831933543E+02 -0.82380950091E+02  0.11827045468E+03  0.00000000000E+00 0. -1.
         22    1    3    3    0    0  0.10756325014E+02  0.65149624989E+01 -0.22681394176E+03  0.22716229317E+03  0.00000000000E+00 0.  1.
         22    1    3    3    0    0 -0.10089611111E+03  0.30165607870E+02 -0.16838179631E+03  0.19860115424E+03  0.00000000000E+00 0.  1.
</event>
<event>
 7    1  0.6103724E-006  0.7218885E+02  0.7818608E-02  0.1386388E+00
          2   -1    0    0  502    0  0.00000000000E+00  0.00000000000E+00  0.57822483908E+03  0.57822483908E+03  0.00000000000E+00 0. -1.
          1   -1    0    0  501    0 -0.00000000000E+00 -0.00000000000E+00 -0.96534574969E+03  0.96534574969E+03  0.00000000000E+00 0. -1.
         25    2    1    2    0    0  0.11822194773E+02  0.14274667226E+02 -0.19768606961E+03  0.23462553424E+03  0.12500331509E+03 0.  0.
          2    1    1    2  501    0  0.43995496883E+02  0.32430632995E+02 -0.74581992365E+03  0.74781997046E+03  0.00000000000E+00 0. -1.
          1    1    1    2  502    0 -0.55817691656E+02 -0.46705300221E+02  0.55638508265E+03  0.56112508407E+03  0.00000000000E+00 0. -1.
         22    1    3    3    0    0  0.40470499814E+02  0.15761762924E+02 -0.20109976228E+03  0.20573626057E+03  0.00000000000E+00 0. -1.
         22    1    3    3    0    0 -0.28648305041E+02 -0.14870956980E+01  0.34136926659E+01  0.28889273666E+02  0.00000000000E+00 0. -1.
</event>
<event>
 7    1  0.6103724E-006  0.3323571E+02  0.7818608E-02  0.1591272E+00
          2   -1    0    0  502    0  0.00000000000E+00  0.00000000000E+00  0.14214967037E+02  0.14214967037E+02  0.00000000000E+00 0. -1.
          1   -1    0    0  501    0 -0.00000000000E+00 -0.00000000000E+00 -0.20557847122E+04  0.20557847122E+04  0.00000000000E+00 0. -1.
         25    2    1    2    0    0  0.21148128050E+02  0.30323448444E+02 -0.10163753770E+04  0.10247001530E+04  0.12499896707E+03 0.  0.
          2    1    1    2  501    0  0.69456148540E+01 -0.32999210209E+02 -0.10145927479E+04  0.10151530099E+04  0.00000000000E+00 0. -1.
          1    1    1    2  502    0 -0.28093742904E+02  0.26757617644E+01 -0.10601620205E+02  0.30146516255E+02  0.00000000000E+00 0. -1.
         22    1    3    3    0    0  0.18302375579E+02 -0.46167930753E+02 -0.53212311261E+03  0.53443564791E+03  0.00000000000E+00 0. -1.
         22    1    3    3    0    0  0.28457524704E+01  0.76491379197E+02 -0.48425226439E+03  0.49026450510E+03  0.00000000000E+00 0. -1.
</event>
<event>
 7    1  0.6103724E-006  0.5935167E+02  0.7818608E-02  0.1533877E+00
          2   -1    0    0  502    0  0.00000000000E+00  0.00000000000E+00  0.65254453098E+03  0.65254453098E+03  0.00000000000E+00 0. -1.
          1   -1    0    0  501    0 -0.00000000000E+00 -0.00000000000E+00 -0.67816019914E+02  0.67816019914E+02  0.00000000000E+00 0. -1.
         25    2    1    2    0    0 -0.41498296555E+02  0.68357502503E+02  0.37633355937E+03  0.40453350268E+03  0.12500220045E+03 0.  0.
          2    1    1    2  501    0  0.24730797357E+02 -0.53037942461E+02 -0.37096178412E+02  0.69287532292E+02  0.00000000000E+00 0. -1.
          1    1    1    2  502    0  0.16767499198E+02 -0.15319560042E+02  0.24549113010E+03  0.24653951592E+03  0.00000000000E+00 0. -1.
         22    1    3    3    0    0  0.37003454817E+02 -0.78004487440E+01  0.12067898135E+03  0.12646548624E+03  0.00000000000E+00 0. -1.
         22    1    3    3    0    0 -0.78501751373E+02  0.76157951247E+02  0.25565457802E+03  0.27806801644E+03  0.00000000000E+00 0. -1.
</event>
<event>
 7    1  0.6103724E-006  0.2320440E+03  0.7818608E-02  0.1185195E+00
          2   -1    0    0  502    0  0.00000000000E+00  0.00000000000E+00  0.53855197142E+03  0.53855197142E+03  0.00000000000E+00 0. -1.
          1   -1    0    0  501    0 -0.00000000000E+00 -0.00000000000E+00 -0.72466719903E+03  0.72466719903E+03  0.00000000000E+00 0. -1.
         25    2    1    2    0    0  0.32606500865E+03  0.71482187154E+02 -0.38838307939E+03  0.52715811724E+03  0.12500468501E+03 0.  0.
          2    1    1    2  501    0 -0.11443182701E+03  0.78145968726E+01 -0.22508743710E+03  0.25262633532E+03  0.00000000000E+00 0. -1.
          1    1    1    2  502    0 -0.21163318164E+03 -0.79296784027E+02  0.42735528887E+03  0.48343471789E+03  0.00000000000E+00 0. -1.
         22    1    3    3    0    0  0.20922490402E+03  0.33401008136E+02 -0.15205968982E+03  0.26079270901E+03  0.00000000000E+00 0.  1.
         22    1    3    3    0    0  0.11684010463E+03  0.38081179019E+02 -0.23632338957E+03  0.26636540823E+03  0.00000000000E+00 0.  1.
</event>
<event>
 7    1  0.6103724E-006  0.1363006E+03  0.7818608E-02  0.1316743E+00
          2   -1    0    0  502    0  0.00000000000E+00  0.00000000000E+00  0.91965661272E+02  0.91965661272E+02  0.00000000000E+00 0. -1.
          1   -1    0    0  501    0 -0.00000000000E+00 -0.00000000000E+00 -0.11218877687E+04  0.11218877687E+04  0.00000000000E+00 0. -1.
         25    2    1    2    0    0  0.80507000072E+02 -0.44954168620E+02 -0.43049220395E+01  0.15536944440E+03  0.12497550785E+03 0.  0.
          2    1    1    2  501    0 -0.10545253843E+03  0.91020802290E+02 -0.97742535548E+03  0.98730205604E+03  0.00000000000E+00 0. -1.
          1    1    1    2  502    0  0.24945538362E+02 -0.46066633669E+02 -0.48191829886E+02  0.71181929516E+02  0.00000000000E+00 0. -1.
         22    1    3    3    0    0  0.59377266214E+02 -0.86655123234E+01 -0.60504326184E+02  0.85214578177E+02  0.00000000000E+00 0. -1.
         22    1    3    3    0    0  0.21129733858E+02 -0.36288656297E+02  0.56199404145E+02  0.70154866224E+02  0.00000000000E+00 0. -1.
</event>
<event>
 7    1  0.6103724E-006  0.1115395E+03  0.7818608E-02  0.1297302E+00
          2   -1    0    0  502    0  0.00000000000E+00  0.00000000000E+00  0.18842650022E+04  0.18842650022E+04  0.00000000000E+00 0. -1.
          1   -1    0    0  501    0 -0.00000000000E+00 -0.00000000000E+00 -0.54499470066E+03  0.54499470066E+03  0.00000000000E+00 0. -1.
         25    2    1    2    0    0  0.76864256251E+01 -0.42812647580E+02  0.19575422136E+03  0.23630614938E+03  0.12501550753E+03 0.  0.
          2    1    1    2  501    0  0.34861646201E+02 -0.68017615872E+02 -0.51980859229E+03  0.52539766184E+03  0.00000000000E+00 0. -1.
          1    1    1    2  502    0 -0.42548071827E+02  0.11083026345E+03  0.16633246724E+04  0.16675558916E+04  0.00000000000E+00 0. -1.
         22    1    3    3    0    0 -0.32105887181E+02 -0.72717247107E+02  0.14410693902E+03  0.16457641354E+03  0.00000000000E+00 0.  1.
         22    1    3    3    0    0  0.39792312806E+02  0.29904599527E+02  0.51647282340E+02  0.71729735845E+02  0.00000000000E+00 0.  1.
</event>
<event>
 7    1  0.6103724E-006  0.1891334E+03  0.7818608E-02  0.1235947E+00
          2   -1    0    0  502    0  0.00000000000E+00  0.00000000000E+00  0.68916270687E+03  0.68916270687E+03  0.00000000000E+00 0. -1.
          1   -1    0    0  501    0 -0.00000000000E+00 -0.00000000000E+00 -0.16718439567E+04  0.16718439567E+04  0.00000000000E+00 0. -1.
         25    2    1    2    0    0 -0.22521109069E+03 -0.33182824526E+02  0.83457548129E+02  0.27278483305E+03  0.12500107035E+03 0.  0.
          2    1    1    2  501    0  0.44421265635E+02  0.68777330523E+02 -0.15594622330E+04  0.15616100749E+04  0.00000000000E+00 0. -1.
          1    1    1    2  502    0  0.18078982506E+03 -0.35594505997E+02  0.49332343496E+03  0.52661175565E+03  0.00000000000E+00 0. -1.
         22    1    3    3    0    0 -0.26905228958E+02 -0.13432525204E+02 -0.30817625351E+02  0.43058682178E+02  0.00000000000E+00 0. -1.
         22    1    3    3    0    0 -0.19830586173E+03 -0.19750299322E+02  0.11427517348E+03  0.22972615087E+03  0.00000000000E+00 0. -1.
</event>
<event>
 7    1  0.6103724E-006  0.8659386E+02  0.7818608E-02  0.1315477E+00
          2   -1    0    0  502    0  0.00000000000E+00  0.00000000000E+00  0.19387986729E+04  0.19387986729E+04  0.00000000000E+00 0. -1.
          1   -1    0    0  501    0 -0.00000000000E+00 -0.00000000000E+00 -0.20138696411E+04  0.20138696411E+04  0.00000000000E+00 0. -1.
         25    2    1    2    0    0 -0.25898804868E+02 -0.14636427092E+02 -0.46219977725E+02  0.13655217150E+03  0.12500094443E+03 0.  0.
          2    1    1    2  501    0 -0.15733825559E+02  0.86904473102E+02 -0.19205499502E+04  0.19225795307E+04  0.00000000000E+00 0. -1.
          1    1    1    2  502    0  0.41632630427E+02 -0.72268046011E+02  0.18916989597E+04  0.18935366119E+04  0.00000000000E+00 0. -1.
         22    1    3    3    0    0 -0.44848220291E+02  0.37808290442E+02 -0.54630772340E+02  0.80158287007E+02  0.00000000000E+00 0.  1.
         22    1    3    3    0    0  0.18949415424E+02 -0.52444717533E+02  0.84107946148E+01  0.56393884492E+02  0.00000000000E+00 0.  1.
</event>
<event>
 7    1  0.6103724E-006  0.4305375E+02  0.7818608E-02  0.1517658E+00
          2   -1    0    0  502    0  0.00000000000E+00  0.00000000000E+00  0.47863440587E+03  0.47863440587E+03  0.00000000000E+00 0. -1.
          1   -1    0    0  501    0 -0.00000000000E+00 -0.00000000000E+00 -0.31251767808E+03  0.31251767808E+03  0.00000000000E+00 0. -1.
         25    2    1    2    0    0 -0.15739475660E+02  0.64281825548E+02 -0.10062570659E+03  0.17357817088E+03  0.12499585749E+03 0.  0.
          2    1    1    2  501    0  0.26460567849E+02 -0.22705276189E+02 -0.17262627060E+03  0.17611223841E+03  0.00000000000E+00 0. -1.
          1    1    1    2  502    0 -0.10721092189E+02 -0.41576549359E+02  0.43936870498E+03  0.44146167466E+03  0.00000000000E+00 0. -1.
         22    1    3    3    0    0  0.44071434647E+01 -0.12729634404E+02 -0.92596418751E+02  0.93571166879E+02  0.00000000000E+00 0. -1.
         22    1    3    3    0    0 -0.20146619125E+02  0.77011459952E+02 -0.80292878381E+01  0.80007004002E+02  0.00000000000E+00 0. -1.
</event>
<event>
 7    1  0.6103724E-006  0.1414636E+03  0.7818608E-02  0.1358195E+00
          2   -1    0    0  502    0  0.00000000000E+00  0.00000000000E+00  0.15960051690E+04  0.15960051690E+04  0.00000000000E+00 0. -1.
          1   -1    0    0  501    0 -0.00000000000E+00 -0.00000000000E+00 -0.34323259485E+03  0.34323259485E+03  0.00000000000E+00 0. -1.
         25    2    1    2    0    0 -0.10117932499E+02 -0.15694418812E+03 -0.57328168128E+02  0.20891361027E+03  0.12499810779E+03 0.  0.
          2    1    1    2  501    0  0.35673344926E+02  0.13274422715E+03 -0.18740234898E+03  0.23240752523E+03  0.00000000000E+00 0. -1.
          1    1    1    2  502    0 -0.25555412427E+02  0.24199960966E+02  0.14975030912E+04  0.14979166283E+04  0.00000000000E+00 0. -1.
         22    1    3    3    0    0 -0.33142224898E+02 -0.15784193231E+03 -0.16621591435E+02  0.16213808920E+03  0.00000000000E+00 0.  1.
         22    1    3    3    0    0  0.23024292398E+02  0.89774419119E+00 -0.40706576694E+02  0.46775521068E+02  0.00000000000E+00 0.  1.
</event>
<event>
 7    1  0.6103724E-006  0.7275803E+02  0.7818608E-02  0.1410562E+00
          2   -1    0    0  502    0  0.00000000000E+00  0.00000000000E+00  0.18883749809E+03  0.18883749809E+03  0.00000000000E+00 0. -1.
          1   -1    0    0  501    0 -0.00000000000E+00 -0.00000000000E+00 -0.10017119175E+04  0.10017119175E+04  0.00000000000E+00 0. -1.
         25    2    1    2    0    0  0.41205175671E+02  0.27340460378E+02 -0.57910021284E+02  0.14636986233E+03  0.12500079503E+03 0.  0.
          2    1    1    2  501    0  0.34619168663E+02 -0.28375840408E+02 -0.88902863176E+03  0.89015480858E+03  0.00000000000E+00 0. -1.
          1    1    1    2  502    0 -0.75824344333E+02  0.10353800300E+01  0.13406423368E+03  0.15402474463E+03  0.00000000000E+00 0. -1.
         22    1    3    3    0    0 -0.34061333512E+02  0.40486265618E+02 -0.44029186563E+01  0.53091410200E+02  0.00000000000E+00 0.  1.
         22    1    3    3    0    0  0.75266509183E+02 -0.13145805240E+02 -0.53507102628E+02  0.93278452129E+02  0.00000000000E+00 0.  1.
</event>
<event>
 7    1  0.6103724E-006  0.1281479E+03  0.7818608E-02  0.1254822E+00
          2   -1    0    0  502    0  0.00000000000E+00  0.00000000000E+00  0.40954771062E+03  0.40954771062E+03  0.00000000000E+00 0. -1.
          1   -1    0    0  501    0 -0.00000000000E+00 -0.00000000000E+00 -0.17542103866E+04  0.17542103866E+04  0.00000000000E+00 0. -1.
         25    2    1    2    0    0  0.22261310260E+03  0.69482685475E+01 -0.12837572178E+03  0.28584771677E+03  0.12499487732E+03 0.  0.
          2    1    1    2  501    0 -0.99699430054E+02 -0.67952156485E+01 -0.15339993189E+04  0.15372508128E+04  0.00000000000E+00 0. -1.
          1    1    1    2  502    0 -0.12291367254E+03 -0.15305289899E+00  0.31771236468E+03  0.34065956759E+03  0.00000000000E+00 0. -1.
         22    1    3    3    0    0 -0.69148000268E+01  0.18995823226E+02  0.40027473598E+01  0.20607710835E+02  0.00000000000E+00 0. -1.
         22    1    3    3    0    0  0.22952790262E+03 -0.12047554679E+02 -0.13237846914E+03  0.26524000594E+03  0.00000000000E+00 0. -1.
</event>
<event>
 7    1  0.6103724E-006  0.4403764E+02  0.7818608E-02  0.1487631E+00
          2   -1    0    0  502    0  0.00000000000E+00  0.00000000000E+00  0.69113216125E+02  0.69113216125E+02  0.00000000000E+00 0. -1.
          1   -1    0    0  501    0 -0.00000000000E+00 -0.00000000000E+00 -0.70500707999E+03  0.70500707999E+03  0.00000000000E+00 0. -1.
         25    2    1    2    0    0 -0.51010998256E+02 -0.57397842176E+02 -0.25783826633E+03  0.29665133076E+03  0.12499922491E+03 0.  0.
          2    1    1    2  501    0  0.38872776223E+02  0.17327239770E+02 -0.41766814606E+03  0.41983092574E+03  0.00000000000E+00 0. -1.
          1    1    1    2  502    0  0.12138222034E+02  0.40070602406E+02  0.39612548523E+02  0.57638039625E+02  0.00000000000E+00 0. -1.
         22    1    3    3    0    0 -0.83648773138E+02 -0.22512328163E+02 -0.10286030756E+03  0.13447737742E+03  0.00000000000E+00 0.  1.
         22    1    3    3    0    0  0.32637774881E+02 -0.34885514013E+02 -0.15497795877E+03  0.16217395334E+03  0.00000000000E+00 0.  1.
</event>
<event>
 7    1  0.6103724E-006  0.1971770E+03  0.7818608E-02  0.1210612E+00
          2   -1    0    0  502    0  0.00000000000E+00  0.00000000000E+00  0.31742607317E+03  0.31742607317E+03  0.00000000000E+00 0. -1.
          1   -1    0    0  501    0 -0.00000000000E+00 -0.00000000000E+00 -0.41634359393E+03  0.41634359393E+03  0.00000000000E+00 0. -1.
         25    2    1    2    0    0 -0.17042080372E+03  0.15779102515E+03 -0.24661573207E+03  0.36108917928E+03  0.12499927251E+03 0.  0.
          2    1    1    2  501    0  0.15334266332E+03 -0.56907579160E+02 -0.31273962923E+02  0.16652479009E+03  0.00000000000E+00 0. -1.
          1    1    1    2  502    0  0.17078140401E+02 -0.10088344599E+03  0.17897217423E+03  0.20615569772E+03  0.00000000000E+00 0. -1.
         22    1    3    3    0    0 -0.17740030843E+03  0.17158450435E+03 -0.24006020991E+03  0.34429785934E+03  0.00000000000E+00 0. -1.
         22    1    3    3    0    0  0.69795047161E+01 -0.13793479194E+02 -0.65555221584E+01  0.16791319934E+02  0.00000000000E+00 0. -1.
</event>
<event>
 7    1  0.6103724E-006  0.2625656E+03  0.7818608E-02  0.1110361E+00
          2   -1    0    0  502    0  0.00000000000E+00  0.00000000000E+00  0.20163159202E+04  0.20163159202E+04  0.00000000000E+00 0. -1.
          1   -1    0    0  501    0 -0.00000000000E+00 -0.00000000000E+00 -0.94198030776E+03  0.94198030776E+03  0.00000000000E+00 0. -1.
         25    2    1    2    0    0  0.44979221174E+03  0.15856666682E+03  0.96948095571E+03  0.10876484422E+04  0.12501755381E+03 0.  0.
          2    1    1    2  501    0 -0.20270922319E+03 -0.16123217194E+03 -0.84779281797E+03  0.88647589061E+03  0.00000000000E+00 0. -1.
          1    1    1    2  502    0 -0.24708298855E+03  0.26655051248E+01  0.95264747466E+03  0.98417189511E+03  0.00000000000E+00 0. -1.
         22    1    3    3    0    0  0.77128610377E+02  0.30671383753E+02  0.82177239181E+02  0.11680177635E+03  0.00000000000E+00 0.  1.
         22    1    3    3    0    0  0.37266360136E+03  0.12789528307E+03  0.88730371653E+03  0.97084666585E+03  0.00000000000E+00 0.  1.
</event>
<event>
 7    1  0.6103724E-006  0.1331975E+03  0.7818608E-02  0.1343487E+00
          2   -1    0    0  502    0  0.00000000000E+00  0.00000000000E+00  0.60576457959E+03  0.60576457959E+03  0.00000000000E+00 0. -1.
          1   -1    0    0  501    0 -0.00000000000E+00 -0.00000000000E+00 -0.12831062076E+04  0.12831062076E+04  0.00000000000E+00 0. -1.
         25    2    1    2    0    0 -0.17021617840E+01 -0.10900783225E+03  0.19894457710E+03  0.25901530390E+03  0.12499751218E+03 0.  0.
          2    1    1    2  501    0 -0.35780804122E+02  0.12876358888E+03 -0.12483015530E+04  0.12554350222E+04  0.00000000000E+00 0. -1.
          1    1    1    2  502    0  0.37482965906E+02 -0.19755756627E+02  0.37201534786E+03  0.37442046111E+03  0.00000000000E+00 0. -1.
         22    1    3    3    0    0  0.11241498673E+02 -0.61111284039E+02  0.91059416463E+01  0.62800306549E+02  0.00000000000E+00 0.  1.
         22    1    3    3    0    0 -0.12943660457E+02 -0.47896548214E+02  0.18983863545E+03  0.19621499735E+03  0.00000000000E+00 0.  1.
</event>
<event>
 7    1  0.6103724E-006  0.1133486E+03  0.7818608E-02  0.1442262E+00
          2   -1    0    0  502    0  0.00000000000E+00  0.00000000000E+00  0.59419974329E+02  0.59419974329E+02  0.00000000000E+00 0. -1.
          1   -1    0    0  501    0 -0.00000000000E+00 -0.00000000000E+00 -0.96461837969E+03  0.96461837969E+03  0.00000000000E+00 0. -1.
         25    2    1    2    0    0  0.10231155448E+03  0.41874115269E+02 -0.68880919777E+03  0.70873466994E+03  0.12500250287E+03 0.  0.
          2    1    1    2  501    0 -0.76134719391E+01  0.21243359960E+02 -0.19888428737E+03  0.20016044829E+03  0.00000000000E+00 0. -1.
          1    1    1    2  502    0 -0.94698082540E+02 -0.63117475229E+02 -0.17504920214E+02  0.11514323579E+03  0.00000000000E+00 0. -1.
         22    1    3    3    0    0  0.53501889824E+02  0.84444435044E+02 -0.47143130334E+03  0.48191367338E+03  0.00000000000E+00 0. -1.
         22    1    3    3    0    0  0.48809664655E+02 -0.42570319775E+02 -0.21737789443E+03  0.22682099655E+03  0.00000000000E+00 0. -1.
</event>
<event>
 7    1  0.6103724E-006  0.1093607E+03  0.7818608E-02  0.1343268E+00
          2   -1    0    0  502    0  0.00000000000E+00  0.00000000000E+00  0.26648463664E+04  0.26648463664E+04  0.00000000000E+00 0. -1.
          1   -1    0    0  501    0 -0.00000000000E+00 -0.00000000000E+00 -0.14935774269E+03  0.14935774269E+03  0.00000000000E+00 0. -1.
         25    2    1    2    0    0 -0.67316495512E+02 -0.52779392369E+01  0.15903690687E+02  0.14295441476E+03  0.12499468034E+03 0.  0.
          2    1    1    2  501    0 -0.33397827032E+02 -0.39469124207E+02 -0.76759808347E+02  0.92548877862E+02  0.00000000000E+00 0. -1.
          1    1    1    2  502    0  0.10071432254E+03  0.44747063444E+02  0.25763447413E+04  0.25787008164E+04  0.00000000000E+00 0. -1.
         22    1    3    3    0    0 -0.87958758114E+02 -0.25058840807E+00 -0.29542186231E+02  0.92787642985E+02  0.00000000000E+00 0.  1.
         22    1    3    3    0    0  0.20642262602E+02 -0.50273508288E+01  0.45445876918E+02  0.50166771777E+02  0.00000000000E+00 0.  1.
</event>
<event>
 7    1  0.6103724E-006  0.9296331E+02  0.7818608E-02  0.1344005E+00
          2   -1    0    0  502    0  0.00000000000E+00  0.00000000000E+00  0.37403573114E+03  0.37403573114E+03  0.00000000000E+00 0. -1.
          1   -1    0    0  501    0 -0.00000000000E+00 -0.00000000000E+00 -0.34315317856E+04  0.34315317856E+04  0.00000000000E+00 0. -1.
         25    2    1    2    0    0  0.22051190874E+02 -0.51228069729E+02 -0.72367778029E+03  0.73650822109E+03  0.12499703959E+03 0.  0.
          2    1    1    2  501    0 -0.46209181799E+02 -0.38954891765E+02 -0.26951668345E+04  0.26958444017E+04  0.00000000000E+00 0. -1.
          1    1    1    2  502    0  0.24157990924E+02  0.90182961494E+02  0.36134856032E+03  0.37321489401E+03  0.00000000000E+00 0. -1.
         22    1    3    3    0    0 -0.27389039420E+02 -0.22094739434E+02 -0.54495025657E+02  0.64869444366E+02  0.00000000000E+00 0.  1.
         22    1    3    3    0    0  0.49440230294E+02 -0.29133330295E+02 -0.66918275463E+03  0.67163877672E+03  0.00000000000E+00 0.  1.
</event>
<event>
 7    1  0.6103724E-006  0.6150204E+02  0.7818608E-02  0.1541792E+00
          2   -1    0    0  502    0  0.00000000000E+00  0.00000000000E+00  0.54007022978E+03  0.54007022978E+03  0.00000000000E+00 0. -1.
          1   -1    0    0  501    0 -0.00000000000E+00 -0.00000000000E+00 -0.56270534429E+02  0.56270534429E+02  0.00000000000E+00 0. -1.
         25    2    1    2    0    0  0.44826958006E+02 -0.33653183772E+02  0.14246792034E+03  0.19764884362E+03  0.12500385641E+03 0.  0.
          2    1    1    2  501    0  0.14576856042E+02  0.14857621532E+02 -0.21865950774E+02  0.30188631186E+02  0.00000000000E+00 0. -1.
          1    1    1    2  502    0 -0.59403814048E+02  0.18795562240E+02  0.36319772578E+03  0.36850328940E+03  0.00000000000E+00 0. -1.
         22    1    3    3    0    0  0.21775754399E+02  0.37217472179E+02  0.79216721338E+01  0.43841494094E+02  0.00000000000E+00 0.  1.
         22    1    3    3    0    0  0.23051203607E+02 -0.70870655951E+02  0.13454624820E+03  0.15380734953E+03  0.00000000000E+00 0.  1.
</event>
<event>
 7    1  0.6103724E-006  0.1921011E+03  0.7818608E-02  0.1273433E+00
          2   -1    0    0  502    0  0.00000000000E+00  0.00000000000E+00  0.18972425260E+04  0.18972425260E+04  0.00000000000E+00 0. -1.
          1   -1    0    0  501    0 -0.00000000000E+00 -0.00000000000E+00 -0.14923802674E+04  0.14923802674E+04  0.00000000000E+00 0. -1.
         25    2    1    2    0    0 -0.38751209677E+02 -0.14477284104E+03  0.12426790982E+03  0.23136223583E+03  0.12500055602E+03 0.  0.
          2    1    1    2  501    0  0.11815108896E+02  0.19339740212E+03 -0.14318570641E+04  0.14449071956E+04  0.00000000000E+00 0. -1.
          1    1    1    2  502    0  0.26936100781E+02 -0.48624561082E+02  0.17124514129E+04  0.17133533620E+04  0.00000000000E+00 0. -1.
         22    1    3    3    0    0 -0.81650194937E+02 -0.10420343328E+03  0.10589576051E+03  0.16952587393E+03  0.00000000000E+00 0.  1.
         22    1    3    3    0    0  0.42898985260E+02 -0.40569407764E+02  0.18372149313E+02  0.61836361900E+02  0.00000000000E+00 0.  1.
</event>
<event>
 7    1  0.6103724E-006  0.7049355E+02  0.7818608E-02  0.1412919E+00
          2   -1    0    0  502    0  0.00000000000E+00  0.00000000000E+00  0.13695984750E+04  0.13695984750E+04  0.00000000000E+00 0. -1.
          1   -1    0    0  501    0 -0.00000000000E+00 -0.00000000000E+00 -0.83130273326E+02  0.83130273326E+02  0.00000000000E+00 0. -1.
         25    2    1    2    0    0  0.59614332499E+02 -0.18052693884E+02  0.15219488694E+03  0.20656366706E+03  0.12500198616E+03 0.  0.
          2    1    1    2  501    0 -0.19500617319E+02 -0.40954937243E+02 -0.45492917816E+02  0.64243182765E+02  0.00000000000E+00 0. -1.
          1    1    1    2  502    0 -0.40113715179E+02  0.59007631126E+02  0.11797662325E+04  0.11819218985E+04  0.00000000000E+00 0. -1.
         22    1    3    3    0    0 -0.21663891766E+01 -0.25536044817E+02  0.14102773326E+03  0.14333737954E+03  0.00000000000E+00 0.  1.
         22    1    3    3    0    0  0.61780721675E+02  0.74833509331E+01  0.11167153679E+02  0.63226287517E+02  0.00000000000E+00 0.  1.
</event>
<event>
 7    1  0.7126613E-006  0.8663273E+02  0.7818608E-02  0.1325292E+00
          2   -1    0    0  502    0  0.00000000000E+00  0.00000000000E+00  0.61884601089E+03  0.61884601089E+03  0.00000000000E+00 0. -1.
          1   -1    0    0  501    0 -0.00000000000E+00 -0.00000000000E+00 -0.15031810091E+04  0.15031810091E+04  0.00000000000E+00 0. -1.
         25    2    1    2    0    0  0.14191074312E+02  0.90826096321E+02 -0.35277675254E+03  0.38539173018E+03  0.12499832874E+03 0.  0.
          2    1    1    2  501    0  0.60545979037E+02 -0.46545965406E+02 -0.11296697384E+04  0.11322482326E+04  0.00000000000E+00 0. -1.
          1    1    1    2  502    0 -0.74737053349E+02 -0.44280130916E+02  0.59811149273E+03  0.60438705717E+03  0.00000000000E+00 0. -1.
         22    1    3    3    0    0 -0.23329406434E+02  0.45207169929E+02 -0.30557796215E+03  0.30978353792E+03  0.00000000000E+00 0.  1.
         22    1    3    3    0    0  0.37520480747E+02  0.45618926393E+02 -0.47198790395E+02  0.75608192251E+02  0.00000000000E+00 0.  1.
</event>
<event>
 7    1  0.6103724E-006  0.9884144E+02  0.7818608E-02  0.1343100E+00
          2   -1    0    0  502    0  0.00000000000E+00  0.00000000000E+00  0.34502299235E+04  0.34502299235E+04  0.00000000000E+00 0. -1.
          1   -1    0    0  501    0 -0.00000000000E+00 -0.00000000000E+00 -0.13577681409E+03  0.13577681409E+03  0.00000000000E+00 0. -1.
         25    2    1    2    0    0  0.15379723548E+02 -0.14930390141E+03  0.90026580297E+02  0.21507632095E+03  0.12499939120E+03 0.  0.
          2    1    1    2  501    0  0.14048773130E+02  0.55539337250E+02 -0.61202753734E+02  0.83831754564E+02  0.00000000000E+00 0. -1.
          1    1    1    2  502    0 -0.29428496678E+02  0.93764564160E+02  0.32856292829E+04  0.32870986621E+04  0.00000000000E+00 0. -1.
         22    1    3    3    0    0  0.12721026277E+02 -0.11726406168E+02 -0.28581683729E+02  0.33410264230E+02  0.00000000000E+00 0. -1.
         22    1    3    3    0    0  0.26586972702E+01 -0.13757749524E+03  0.11860826403E+03  0.18166605672E+03  0.00000000000E+00 0. -1.
</event>
<event>
 7    1  0.6103724E-006  0.2515009E+03  0.7818608E-02  0.1158448E+00
          2   -1    0    0  502    0  0.00000000000E+00  0.00000000000E+00  0.22660189582E+04  0.22660189582E+04  0.00000000000E+00 0. -1.
          1   -1    0    0  501    0 -0.00000000000E+00 -0.00000000000E+00 -0.73830711452E+03  0.73830711452E+03  0.00000000000E+00 0. -1.
         25    2    1    2    0    0 -0.26945471448E+03 -0.86538193874E+02  0.83643965533E+03  0.89182436581E+03  0.12499880119E+03 0.  0.
          2    1    1    2  501    0  0.24557965644E+03 -0.55022674291E+02 -0.68447961164E+03  0.72927991957E+03  0.00000000000E+00 0. -1.
          1    1    1    2  502    0  0.23875058041E+02  0.14156086817E+03  0.13757517999E+04  0.13832217873E+04  0.00000000000E+00 0. -1.
         22    1    3    3    0    0 -0.27355366735E+03 -0.59632890515E+02  0.78803084392E+03  0.83628960386E+03  0.00000000000E+00 0.  1.
         22    1    3    3    0    0  0.40989528719E+01 -0.26905303359E+02  0.48408811408E+02  0.55534761956E+02  0.00000000000E+00 0.  1.
</event>
<event>
 7    1  0.6103724E-006  0.9358300E+02  0.7818608E-02  0.1310903E+00
          2   -1    0    0  502    0  0.00000000000E+00  0.00000000000E+00  0.16674711267E+04  0.16674711267E+04  0.00000000000E+00 0. -1.
          1   -1    0    0  501    0 -0.00000000000E+00 -0.00000000000E+00 -0.72650135285E+03  0.72650135285E+03  0.00000000000E+00 0. -1.
         25    2    1    2    0    0 -0.16864567579E+01  0.37695005420E+02  0.54745757816E+03  0.56281322486E+03  0.12500067451E+03 0.  0.
          2    1    1    2  501    0  0.81617736478E+02 -0.46611931148E+02 -0.71428701024E+03  0.72044434901E+03  0.00000000000E+00 0. -1.
          1    1    1    2  502    0 -0.79931279720E+02  0.89169257286E+01  0.11077992059E+04  0.11107149056E+04  0.00000000000E+00 0. -1.
         22    1    3    3    0    0 -0.62882816250E+01 -0.87714818565E+01 -0.23341766506E+01  0.11042180962E+02  0.00000000000E+00 0.  1.
         22    1    3    3    0    0  0.46018248671E+01  0.46466487276E+02  0.54979175481E+03  0.55177104390E+03  0.00000000000E+00 0.  1.
</event>
<event>
 7    1  0.6103724E-006  0.5199577E+02  0.7818608E-02  0.1505113E+00
          2   -1    0    0  502    0  0.00000000000E+00  0.00000000000E+00  0.37191073864E+03  0.37191073864E+03  0.00000000000E+00 0. -1.
          1   -1    0    0  501    0 -0.00000000000E+00 -0.00000000000E+00 -0.98854501933E+03  0.98854501933E+03  0.00000000000E+00 0. -1.
         25    2    1    2    0    0  0.68011547885E+02  0.22570496433E+02 -0.63539219465E+03  0.65152397110E+03  0.12500098378E+03 0.  0.
          2    1    1    2  501    0 -0.29103543720E+02  0.11861303130E+02 -0.34250907673E+03  0.34394792398E+03  0.00000000000E+00 0. -1.
          1    1    1    2  502    0 -0.38908004165E+02 -0.34431799563E+02  0.36126699069E+03  0.36498386289E+03  0.00000000000E+00 0. -1.
         22    1    3    3    0    0  0.21875404538E+02  0.71712691610E+02 -0.28430981330E+03  0.29402944308E+03  0.00000000000E+00 0. -1.
         22    1    3    3    0    0  0.46136143347E+02 -0.49142195177E+02 -0.35108238135E+03  0.35749452802E+03  0.00000000000E+00 0. -1.
</event>
<event>
 7    1  0.6103724E-006  0.4751270E+02  0.7818608E-02  0.1459571E+00
          2   -1    0    0  502    0  0.00000000000E+00  0.00000000000E+00  0.25126890524E+02  0.25126890524E+02  0.00000000000E+00 0. -1.
          1   -1    0    0  501    0 -0.00000000000E+00 -0.00000000000E+00 -0.22423823192E+04  0.22423823192E+04  0.00000000000E+00 0. -1.
         25    2    1    2    0    0  0.10745605999E+01 -0.16881910679E+02 -0.33278122795E+03  0.35588471066E+03  0.12499771204E+03 0.  0.
          2    1    1    2  501    0  0.46378162409E+02  0.14495314258E+02 -0.18551602964E+04  0.18557965334E+04  0.00000000000E+00 0. -1.
          1    1    1    2  502    0 -0.47452723009E+02  0.23865964210E+01 -0.29313904349E+02  0.55827965677E+02  0.00000000000E+00 0. -1.
         22    1    3    3    0    0  0.12173556367E+02 -0.70346169989E+02 -0.18016659591E+03  0.19379572077E+03  0.00000000000E+00 0.  1.
         22    1    3    3    0    0 -0.11098995767E+02  0.53464259310E+02 -0.15261463204E+03  0.16208898989E+03  0.00000000000E+00 0.  1.
</event>
<event>
 7    1  0.6103724E-006  0.7794364E+02  0.7818608E-02  0.1364859E+00
          2   -1    0    0  502    0  0.00000000000E+00  0.00000000000E+00  0.71623893470E+03  0.71623893470E+03  0.00000000000E+00 0. -1.
          1   -1    0    0  501    0 -0.00000000000E+00 -0.00000000000E+00 -0.22756303073E+03  0.22756303073E+03  0.00000000000E+00 0. -1.
         25    2    1    2    0    0  0.25984443662E+02  0.16962295497E+02  0.24027116027E+03  0.27261356629E+03  0.12500006115E+03 0.  0.
          2    1    1    2  501    0  0.45451456908E+02  0.39788894794E+02 -0.20241141096E+03  0.21123297653E+03  0.00000000000E+00 0. -1.
          1    1    1    2  502    0 -0.71435900570E+02 -0.56751190291E+02  0.45081615466E+03  0.45995542262E+03  0.00000000000E+00 0. -1.
         22    1    3    3    0    0  0.32276695458E+02  0.66283306620E+02  0.17978922340E+03  0.19431784956E+03  0.00000000000E+00 0. -1.
         22    1    3    3    0    0 -0.62922517958E+01 -0.49321011124E+02  0.60481936872E+02  0.78295716733E+02  0.00000000000E+00 0. -1.
</event>
<event>
 7    1  0.6103724E-006  0.8027017E+02  0.7818608E-02  0.1400777E+00
          2   -1    0    0  502    0  0.00000000000E+00  0.00000000000E+00  0.10754160366E+02  0.10754160366E+02  0.00000000000E+00 0. -1.
          1   -1    0    0  501    0 -0.00000000000E+00 -0.00000000000E+00 -0.30110443630E+04  0.30110443630E+04  0.00000000000E+00 0. -1.
         25    2    1    2    0    0  0.63948830275E+02 -0.57439222381E+02 -0.10886525173E+04  0.10991714969E+04  0.12499983590E+03 0.  0.
          2    1    1    2  501    0 -0.79328727395E+02  0.16413596754E+02 -0.18116609600E+04  0.18134712259E+04  0.00000000000E+00 0. -1.
          1    1    1    2  502    0  0.15379897119E+02  0.41025625627E+02 -0.99976725294E+02  0.10915580055E+03  0.00000000000E+00 0. -1.
         22    1    3    3    0    0  0.21981545805E+02  0.22262803279E+02 -0.71587196572E+02  0.78125203865E+02  0.00000000000E+00 0.  1.
         22    1    3    3    0    0  0.41967284470E+02 -0.79702025660E+02 -0.10170653207E+04  0.10210462930E+04  0.00000000000E+00 0.  1.
</event>
<event>
 7    1  0.6103724E-006  0.1856172E+03  0.7818608E-02  0.1246170E+00
          2   -1    0    0  502    0  0.00000000000E+00  0.00000000000E+00  0.32454486837E+03  0.32454486837E+03  0.00000000000E+00 0. -1.
          1   -1    0    0  501    0 -0.00000000000E+00 -0.00000000000E+00 -0.19056844226E+03  0.19056844226E+03  0.00000000000E+00 0. -1.
         25    2    1    2    0    0  0.22577114475E+02  0.17369883479E+03  0.84067746461E+02  0.23102679973E+03  0.12499993956E+03 0.  0.
          2    1    1    2  501    0 -0.97772787659E+02 -0.17204917620E+03  0.81492765801E+01  0.19805768792E+03  0.00000000000E+00 0. -1.
          1    1    1    2  502    0  0.75195673184E+02 -0.16496585968E+01  0.41759403064E+02  0.86028822980E+02  0.00000000000E+00 0. -1.
         22    1    3    3    0    0  0.57888119531E+01 -0.18279930342E+02  0.20576493684E+02  0.28125758469E+02  0.00000000000E+00 0.  1.
         22    1    3    3    0    0  0.16788302522E+02  0.19197876514E+03  0.63491252777E+02  0.20290104126E+03  0.00000000000E+00 0.  1.
</event>
<event>
 7    1  0.6103724E-006  0.5589317E+02  0.7818608E-02  0.1475748E+00
          2   -1    0    0  502    0  0.00000000000E+00  0.00000000000E+00  0.34619999080E+03  0.34619999080E+03  0.00000000000E+00 0. -1.
          1   -1    0    0  501    0 -0.00000000000E+00 -0.00000000000E+00 -0.21918374838E+04  0.21918374838E+04  0.00000000000E+00 0. -1.
         25    2    1    2    0    0 -0.39395654798E+02  0.75433677727E+02  0.93578108894E+01  0.15150682860E+03  0.12499797252E+03 0.  0.
          2    1    1    2  501    0  0.10004497052E+02 -0.54872683850E+02 -0.21191840862E+04  0.21199179920E+04  0.00000000000E+00 0. -1.
          1    1    1    2  502    0  0.29391157746E+02 -0.20560993878E+02  0.26418878229E+03  0.26661265407E+03  0.00000000000E+00 0. -1.
         22    1    3    3    0    0 -0.39602455936E+01  0.29334855319E+02  0.64753375911E+02  0.71198433786E+02  0.00000000000E+00 0.  1.
         22    1    3    3    0    0 -0.35435409205E+02  0.46098822409E+02 -0.55395565021E+02  0.80308394810E+02  0.00000000000E+00 0.  1.
</event>
<event>
 7    1  0.6103724E-006  0.1144144E+03  0.7818608E-02  0.1261658E+00
          2   -1    0    0  502    0  0.00000000000E+00  0.00000000000E+00  0.30532299153E+04  0.30532299153E+04  0.00000000000E+00 0. -1.
          1   -1    0    0  501    0 -0.00000000000E+00 -0.00000000000E+00 -0.71409716242E+03  0.71409716242E+03  0.00000000000E+00 0. -1.
         25    2    1    2    0    0 -0.25231001937E+02  0.84414515429E+02  0.13391574506E+04  0.13478607424E+04  0.12499395840E+03 0.  0.
          2    1    1    2  501    0  0.11176612567E+03 -0.25594657265E+02 -0.70349900219E+03  0.71278159306E+03  0.00000000000E+00 0. -1.
          1    1    1    2  502    0 -0.86535123738E+02 -0.58819858164E+02  0.17034743045E+04  0.17066847423E+04  0.00000000000E+00 0. -1.
         22    1    3    3    0    0  0.29230151987E+02 -0.13633688568E+02  0.15014800671E+03  0.15357311994E+03  0.00000000000E+00 0. -1.
         22    1    3    3    0    0 -0.54461153924E+02  0.98048203996E+02  0.11890094439E+04  0.11942876225E+04  0.00000000000E+00 0. -1.
</event>
<event>
 7    1  0.6103724E-006  0.3165940E+02  0.7818608E-02  0.1583966E+00
          2   -1    0    0  502    0  0.00000000000E+00  0.00000000000E+00  0.11523135409E+02  0.11523135409E+02  0.00000000000E+00 0. -1.
          1   -1    0    0  501    0 -0.00000000000E+00 -0.00000000000E+00 -0.18453495888E+04  0.18453495888E+04  0.00000000000E+00 0. -1.
         25    2    1    2    0    0  0.46702808291E+01 -0.69671137384E+01 -0.77088502092E+03  0.78099440184E+03  0.12497274921E+03 0.  0.
          2    1    1    2  501    0 -0.22870040357E+02 -0.20896747599E+02 -0.10247596634E+04  0.10252278189E+04  0.00000000000E+00 0. -1.
          1    1    1    2  502    0  0.18199759528E+02  0.27863861337E+02 -0.38181769026E+02  0.50650503467E+02  0.00000000000E+00 0. -1.
         22    1    3    3    0    0 -0.27510280221E+02 -0.32981212500E+02 -0.67740421762E+03  0.67876435524E+03  0.00000000000E+00 0.  1.
         22    1    3    3    0    0  0.32180561050E+02  0.26014098761E+02 -0.93480803291E+02  0.10223004660E+03  0.00000000000E+00 0.  1.
</event>
<event>
 7    1  0.6103724E-006  0.1142572E+03  0.7818608E-02  0.1394884E+00
          2   -1    0    0  502    0  0.00000000000E+00  0.00000000000E+00  0.49355917375E+03  0.49355917375E+03  0.00000000000E+00 0. -1.
          1   -1    0    0  501    0 -0.00000000000E+00 -0.00000000000E+00 -0.77032884196E+03  0.77032884196E+03  0.00000000000E+00 0. -1.
         25    2    1    2    0    0 -0.10275284413E+02 -0.12807564093E+03 -0.40122529339E+03  0.43944928690E+03  0.12499995374E+03 0.  0.
          2    1    1    2  501    0 -0.25503892205E+02  0.19748215179E+02 -0.34236453769E+03  0.34388067289E+03  0.00000000000E+00 0. -1.
          1    1    1    2  502    0  0.35779176618E+02  0.10832742576E+03  0.46682016286E+03  0.48055805591E+03  0.00000000000E+00 0. -1.
         22    1    3    3    0    0 -0.52038824782E+02 -0.54002591047E+02 -0.91732611995E+02  0.11848709309E+03  0.00000000000E+00 0.  1.
         22    1    3    3    0    0  0.41763540369E+02 -0.74073049888E+02 -0.30949268139E+03  0.32096219382E+03  0.00000000000E+00 0.  1.
</event>
<event>
 7    1  0.6103724E-006  0.1138032E+03  0.7818608E-02  0.1370404E+00
          2   -1    0    0  502    0  0.00000000000E+00  0.00000000000E+00  0.17529298588E+03  0.17529298588E+03  0.00000000000E+00 0. -1.
          1   -1    0    0  501    0 -0.00000000000E+00 -0.00000000000E+00 -0.22345706498E+04  0.22345706498E+04  0.00000000000E+00 0. -1.
         25    2    1    2    0    0 -0.26219935446E+02 -0.82490687560E+02 -0.18776291360E+03  0.24160264904E+03  0.12499891901E+03 0.  0.
          2    1    1    2  501    0  0.46154671575E+01  0.11557091905E+03 -0.20155698982E+04  0.20188858200E+04  0.00000000000E+00 0. -1.
          1    1    1    2  502    0  0.21604468289E+02 -0.33080231490E+02  0.14405514787E+03  0.14937516659E+03  0.00000000000E+00 0. -1.
         22    1    3    3    0    0 -0.69931682358E+02 -0.82507100623E+02 -0.12839380581E+03  0.16787742916E+03  0.00000000000E+00 0. -1.
         22    1    3    3    0    0  0.43711746912E+02  0.16413063060E-01 -0.59369107783E+02  0.73725219881E+02  0.00000000000E+00 0. -1.
</event>
<event>
 7    1  0.6103724E-006  0.1379771E+03  0.7818608E-02  0.1234321E+00
          2   -1    0    0  502    0  0.00000000000E+00  0.00000000000E+00  0.11777938272E+04  0.11777938272E+04  0.00000000000E+00 0. -1.
          1   -1    0    0  501    0 -0.00000000000E+00 -0.00000000000E+00 -0.97473830244E+02  0.97473830244E+02  0.00000000000E+00 0. -1.
         25    2    1    2    0    0  0.93289856051E+02 -0.33646295078E+02  0.92728377239E+02  0.18454915896E+03  0.12499907885E+03 0.  0.
          2    1    1    2  501    0  0.32507163489E+02  0.10938740296E+03  0.24781064832E+02  0.11677508629E+03  0.00000000000E+00 0. -1.
          1    1    1    2  502    0 -0.12579701954E+03 -0.75741107883E+02  0.96281055491E+03  0.97394341222E+03  0.00000000000E+00 0. -1.
         22    1    3    3    0    0  0.31143367828E+02 -0.52767132761E+01 -0.30335538063E+02  0.43794953273E+02  0.00000000000E+00 0.  1.
         22    1    3    3    0    0  0.62146488223E+02 -0.28369581802E+02  0.12306391530E+03  0.14075420569E+03  0.00000000000E+00 0.  1.
</event>
<event>
 7    1  0.6103724E-006  0.1064931E+03  0.7818608E-02  0.1404445E+00
          2   -1    0    0  502    0  0.00000000000E+00  0.00000000000E+00  0.33589856061E+03  0.33589856061E+03  0.00000000000E+00 0. -1.
          1   -1    0    0  501    0 -0.00000000000E+00 -0.00000000000E+00 -0.46343939017E+03  0.46343939017E+03  0.00000000000E+00 0. -1.
         25    2    1    2    0    0 -0.48696526052E+02 -0.70105117697E+02 -0.46974886025E+02  0.15848865753E+03  0.12500374183E+03 0.  0.
          2    1    1    2  501    0  0.82741148604E+01 -0.30997977801E+02 -0.34936456590E+03  0.35083462702E+03  0.00000000000E+00 0. -1.
          1    1    1    2  502    0  0.40422411192E+02  0.10110309550E+03  0.26879862237E+03  0.29001466624E+03  0.00000000000E+00 0. -1.
         22    1    3    3    0    0  0.21857823624E+02 -0.12929195207E+02  0.30096626152E+02  0.39379378461E+02  0.00000000000E+00 0.  1.
         22    1    3    3    0    0 -0.70554349676E+02 -0.57175922490E+02 -0.77071512176E+02  0.11910927907E+03  0.00000000000E+00 0.  1.
</event>
<event>
 7    1  0.6103724E-006  0.1891308E+03  0.7818608E-02  0.1296415E+00
          2   -1    0    0  502    0  0.00000000000E+00  0.00000000000E+00  0.14452529542E+04  0.14452529542E+04  0.00000000000E+00 0. -1.
          1   -1    0    0  501    0 -0.00000000000E+00 -0.00000000000E+00 -0.10974449036E+04  0.10974449036E+04  0.00000000000E+00 0. -1.
         25    2    1    2    0    0 -0.57059683217E+02 -0.22554904655E+03 -0.14885337871E+03  0.30316897661E+03  0.12500368066E+03 0.  0.
          2    1    1    2  501    0  0.41631675472E+01  0.45256164558E+02 -0.86438271804E+03  0.86557664920E+03  0.00000000000E+00 0. -1.
          1    1    1    2  502    0  0.52896515670E+02  0.18029288199E+03  0.13610441474E+04  0.13739522320E+04  0.00000000000E+00 0. -1.
         22    1    3    3    0    0 -0.77137578015E+02 -0.16139819963E+03 -0.53895376864E+02  0.18682691571E+03  0.00000000000E+00 0.  1.
         22    1    3    3    0    0  0.20077894798E+02 -0.64150846916E+02 -0.94958001848E+02  0.11634206090E+03  0.00000000000E+00 0.  1.
</event>
<event>
 7    1  0.6103724E-006  0.3202968E+02  0.7818608E-02  0.1630737E+00
          2   -1    0    0  502    0  0.00000000000E+00  0.00000000000E+00  0.51672503758E+03  0.51672503758E+03  0.00000000000E+00 0. -1.
          1   -1    0    0  501    0 -0.00000000000E+00 -0.00000000000E+00 -0.66207900625E+03  0.66207900625E+03  0.00000000000E+00 0. -1.
         25    2    1    2    0    0  0.38773583477E+02 -0.35233984810E+02  0.13859798758E+03  0.19385327428E+03  0.12499946130E+03 0.  0.
          2    1    1    2  501    0 -0.21388888413E+02  0.89102547757E+01 -0.63352932459E+03  0.63395290227E+03  0.00000000000E+00 0. -1.
          1    1    1    2  502    0 -0.17384695064E+02  0.26323730034E+02  0.34957736834E+03  0.35099786728E+03  0.00000000000E+00 0. -1.
         22    1    3    3    0    0  0.40705447296E+02 -0.79945044375E+02  0.80634483380E+02  0.12062364391E+03  0.00000000000E+00 0. -1.
         22    1    3    3    0    0 -0.19318638185E+01  0.44711059565E+02  0.57963504196E+02  0.73229630369E+02  0.00000000000E+00 0. -1.
</event>
<event>
 7    1  0.6103724E-006  0.2615169E+03  0.7818608E-02  0.1127791E+00
          2   -1    0    0  502    0  0.00000000000E+00  0.00000000000E+00  0.11663449278E+04  0.11663449278E+04  0.00000000000E+00 0. -1.
          1   -1    0    0  501    0 -0.00000000000E+00 -0.00000000000E+00 -0.66700914998E+03  0.66700914998E+03  0.00000000000E+00 0. -1.
         25    2    1    2    0    0  0.23660963569E+03 -0.20449147738E+03  0.20100333730E+01  0.33679381111E+03  0.12500058778E+03 0.  0.
          2    1    1    2  501    0 -0.26282061671E+03  0.67942377062E+01 -0.45395988158E+03  0.52459547493E+03  0.00000000000E+00 0. -1.
          1    1    1    2  502    0  0.26210981021E+02  0.19769723968E+03  0.95128562601E+03  0.97196479173E+03  0.00000000000E+00 0. -1.
         22    1    3    3    0    0  0.17804501404E+03 -0.10306616440E+03  0.47522645282E+02  0.21114228161E+03  0.00000000000E+00 0.  1.
         22    1    3    3    0    0  0.58564621643E+02 -0.10142531298E+03 -0.45512611909E+02  0.12565152949E+03  0.00000000000E+00 0.  1.
</event>
<event>
 7    1  0.6103724E-006  0.5069540E+02  0.7818608E-02  0.1526403E+00
          2   -1    0    0  502    0  0.00000000000E+00  0.00000000000E+00  0.23581078480E+03  0.23581078480E+03  0.00000000000E+00 0. -1.
          1   -1    0    0  501    0 -0.00000000000E+00 -0.00000000000E+00 -0.69429442499E+03  0.69429442499E+03  0.00000000000E+00 0. -1.
         25    2    1    2    0    0 -0.45342940949E+02  0.38186661088E+02  0.18711513034E+03  0.23270434669E+03  0.12500015036E+03 0.  0.
          2    1    1    2  501    0  0.49572394769E+02 -0.10574921634E+02 -0.66270814729E+03  0.66464376908E+03  0.00000000000E+00 0. -1.
          1    1    1    2  502    0 -0.42294538196E+01 -0.27611739454E+02  0.17109376762E+02  0.32757094017E+02  0.00000000000E+00 0. -1.
         22    1    3    3    0    0  0.41473210135E+02  0.23911546903E+02  0.87953493927E+02  0.10013793651E+03  0.00000000000E+00 0. -1.
         22    1    3    3    0    0 -0.86816151084E+02  0.14275114184E+02  0.99161636410E+02  0.13256641019E+03  0.00000000000E+00 0. -1.
</event>
<event>
 7    1  0.6103724E-006  0.9633299E+02  0.7818608E-02  0.1295153E+00
          2   -1    0    0  502    0  0.00000000000E+00  0.00000000000E+00  0.49316809526E+03  0.49316809526E+03  0.00000000000E+00 0. -1.
          1   -1    0    0  501    0 -0.00000000000E+00 -0.00000000000E+00 -0.10826742091E+04  0.10826742091E+04  0.00000000000E+00 0. -1.
         25    2    1    2    0    0 -0.27800423856E+01 -0.86595946759E+02 -0.18831835483E+02  0.15324674360E+03  0.12499335889E+03 0.  0.
          2    1    1    2  501    0  0.85005987457E+02  0.30396452006E+02 -0.98872840133E+03  0.99284128329E+03  0.00000000000E+00 0. -1.
          1    1    1    2  502    0 -0.82225945072E+02  0.56199494753E+02  0.41805412299E+03  0.42975427746E+03  0.00000000000E+00 0. -1.
         22    1    3    3    0    0 -0.20380579724E+02 -0.41457527900E+02 -0.69300881884E+02  0.83286895004E+02  0.00000000000E+00 0.  1.
         22    1    3    3    0    0  0.17600537338E+02 -0.45138418859E+02  0.50469046401E+02  0.69959848601E+02  0.00000000000E+00 0.  1.
</event>
<event>
 7    1  0.6103724E-006  0.1610047E+03  0.7818608E-02  0.1341795E+00
          2   -1    0    0  502    0  0.00000000000E+00  0.00000000000E+00  0.58957648313E+03  0.58957648313E+03  0.00000000000E+00 0. -1.
          1   -1    0    0  501    0 -0.00000000000E+00 -0.00000000000E+00 -0.78006798311E+02  0.78006798311E+02  0.00000000000E+00 0. -1.
         25    2    1    2    0    0 -0.12702510034E+03 -0.93155241897E+02  0.16576425006E+03  0.26061637042E+03  0.12501932140E+03 0.  0.
          2    1    1    2  501    0 -0.22678745176E+02  0.27399988261E+02  0.16303521849E+02  0.39126585132E+02  0.00000000000E+00 0. -1.
          1    1    1    2  502    0  0.14970384551E+03  0.65755253636E+02  0.32950191291E+03  0.36784032589E+03  0.00000000000E+00 0. -1.
         22    1    3    3    0    0  0.11500634259E+02 -0.21764340223E+01 -0.12561175533E+02  0.17169291895E+02  0.00000000000E+00 0.  1.
         22    1    3    3    0    0 -0.13852573459E+03 -0.90978807875E+02  0.17832542559E+03  0.24344707852E+03  0.00000000000E+00 0.  1.
</event>
<event>
 7    1  0.6103724E-006  0.2131091E+03  0.7818608E-02  0.1168466E+00
          2   -1    0    0  502    0  0.00000000000E+00  0.00000000000E+00  0.42605307661E+04  0.42605307661E+04  0.00000000000E+00 0. -1.
          1   -1    0    0  501    0 -0.00000000000E+00 -0.00000000000E+00 -0.23327591616E+03  0.23327591616E+03  0.00000000000E+00 0. -1.
         25    2    1    2    0    0 -0.57557273780E+02  0.23760148857E+03  0.12123352055E+04  0.12430404580E+04  0.12500248978E+03 0.  0.
          2    1    1    2  501    0  0.14523568471E+03 -0.40894980887E+02 -0.18747891950E+03  0.24065358678E+03  0.00000000000E+00 0. -1.
          1    1    1    2  502    0 -0.87678410926E+02 -0.19670650769E+03  0.30023985639E+04  0.30101126375E+04  0.00000000000E+00 0. -1.
         22    1    3    3    0    0 -0.71191786441E+02  0.55011946764E+02  0.34047330660E+03  0.35215998814E+03  0.00000000000E+00 0.  1.
         22    1    3    3    0    0  0.13634512661E+02  0.18258954181E+03  0.87186189894E+03  0.89088046984E+03  0.00000000000E+00 0.  1.
</event>
<event>
 7    1  0.6103724E-006  0.6397017E+02  0.7818608E-02  0.1474781E+00
          2   -1    0    0  502    0  0.00000000000E+00  0.00000000000E+00  0.12258696766E+04  0.12258696766E+04  0.00000000000E+00 0. -1.
          1   -1    0    0  501    0 -0.00000000000E+00 -0.00000000000E+00 -0.10887467121E+03  0.10887467121E+03  0.00000000000E+00 0. -1.
         25    2    1    2    0    0  0.14489544969E+02 -0.93580384633E+02  0.41854366890E+03  0.44695835759E+03  0.12500294132E+03 0.  0.
          2    1    1    2  501    0 -0.78531083210E+01  0.62729566307E+02 -0.83759085270E+02  0.10493928799E+03  0.00000000000E+00 0. -1.
          1    1    1    2  502    0 -0.66364366478E+01  0.30850818327E+02  0.78221042172E+03  0.78284670219E+03  0.00000000000E+00 0. -1.
         22    1    3    3    0    0 -0.14759728182E+01 -0.11943873674E+03  0.26854184458E+03  0.29390902099E+03  0.00000000000E+00 0. -1.
         22    1    3    3    0    0  0.15965517787E+02  0.25858352111E+02  0.15000182433E+03  0.15304933660E+03  0.00000000000E+00 0. -1.
</event>
<event>
 7    1  0.6103724E-006  0.1131411E+03  0.7818608E-02  0.1291492E+00
          2   -1    0    0  502    0  0.00000000000E+00  0.00000000000E+00  0.61603060206E+02  0.61603060206E+02  0.00000000000E+00 0. -1.
          1   -1    0    0  501    0 -0.00000000000E+00 -0.00000000000E+00 -0.10265048053E+04  0.10265048053E+04  0.00000000000E+00 0. -1.
         25    2    1    2    0    0 -0.95969747259E+02 -0.78223527531E+01 -0.25076973681E+03  0.29628007485E+03  0.12500016105E+03 0.  0.
          2    1    1    2  501    0  0.85382060443E+02  0.86647169071E+02 -0.70068520408E+03  0.71116635421E+03  0.00000000000E+00 0. -1.
          1    1    1    2  502    0  0.10587686816E+02 -0.78824816318E+02 -0.13446804166E+02  0.80661436399E+02  0.00000000000E+00 0. -1.
         22    1    3    3    0    0 -0.11207663655E+03  0.10934967938E+02 -0.12558916058E+03  0.16868130672E+03  0.00000000000E+00 0.  1.
         22    1    3    3    0    0  0.16106889288E+02 -0.18757320691E+02 -0.12518057623E+03  0.12759876813E+03  0.00000000000E+00 0.  1.
</event>
<event>
 7    1  0.6103724E-006  0.1007890E+03  0.7818608E-02  0.1322150E+00
          2   -1    0    0  502    0  0.00000000000E+00  0.00000000000E+00  0.39190437601E+03  0.39190437601E+03  0.00000000000E+00 0. -1.
          1   -1    0    0  501    0 -0.00000000000E+00 -0.00000000000E+00 -0.61080092438E+03  0.61080092438E+03  0.00000000000E+00 0. -1.
         25    2    1    2    0    0  0.50175935118E+02  0.70082308762E+02  0.50990665393E+02  0.16016983370E+03  0.12500069282E+03 0.  0.
          2    1    1    2  501    0 -0.99502719030E+02 -0.24003388118E+02 -0.54742239178E+03  0.55690953373E+03  0.00000000000E+00 0. -1.
          1    1    1    2  502    0  0.49326783911E+02 -0.46078920644E+02  0.27753517802E+03  0.28562593296E+03  0.00000000000E+00 0. -1.
         22    1    3    3    0    0  0.76989537433E+02  0.58457652639E+02 -0.52274278676E+01  0.96809152606E+02  0.00000000000E+00 0.  1.
         22    1    3    3    0    0 -0.26813602315E+02  0.11624656123E+02  0.56218093261E+02  0.63360681096E+02  0.00000000000E+00 0.  1.
</event>
<event>
 7    1  0.6103724E-006  0.3979843E+02  0.7818608E-02  0.1526480E+00
          2   -1    0    0  502    0  0.00000000000E+00  0.00000000000E+00  0.99407591650E+03  0.99407591650E+03  0.00000000000E+00 0. -1.
          1   -1    0    0  501    0 -0.00000000000E+00 -0.00000000000E+00 -0.31229744240E+02  0.31229744240E+02  0.00000000000E+00 0. -1.
         25    2    1    2    0    0 -0.19265623363E+02  0.88033968684E+00  0.39153811351E+03  0.41145932912E+03  0.12499898377E+03 0.  0.
          2    1    1    2  501    0  0.22729456183E+02  0.34514616793E+02 -0.10588874363E+00  0.41326724563E+02  0.00000000000E+00 0. -1.
          1    1    1    2  502    0 -0.34638328196E+01 -0.35394956479E+02  0.57141394749E+03  0.57251960706E+03  0.00000000000E+00 0. -1.
         22    1    3    3    0    0 -0.60896249878E+02 -0.16538899632E+02  0.11420557879E+03  0.13047912736E+03  0.00000000000E+00 0. -1.
         22    1    3    3    0    0  0.41630626514E+02  0.17419239319E+02  0.27733253473E+03  0.28098020176E+03  0.00000000000E+00 0. -1.
</event>
<event>
 7    1  0.6103724E-006  0.8865239E+02  0.7818608E-02  0.1435693E+00
          2   -1    0    0  502    0  0.00000000000E+00  0.00000000000E+00  0.23981949877E+04  0.23981949877E+04  0.00000000000E+00 0. -1.
          1   -1    0    0  501    0 -0.00000000000E+00 -0.00000000000E+00 -0.38612470503E+02  0.38612470503E+02  0.00000000000E+00 0. -1.
         25    2    1    2    0    0 -0.61213573848E+02  0.97597087636E+02  0.54993229465E+03  0.57560696324E+03  0.12500221714E+03 0.  0.
          2    1    1    2  501    0  0.22724576317E+02 -0.20052332351E+02 -0.15470994593E+02  0.34027254887E+02  0.00000000000E+00 0. -1.
          1    1    1    2  502    0  0.38488997531E+02 -0.77544755285E+02  0.18251212171E+04  0.18271732401E+04  0.00000000000E+00 0. -1.
         22    1    3    3    0    0  0.30031224049E+01 -0.27062812104E+02  0.13192386473E+03  0.13470456795E+03  0.00000000000E+00 0.  1.
         22    1    3    3    0    0 -0.64216696253E+02  0.12465989974E+03  0.41800842993E+03  0.44090239529E+03  0.00000000000E+00 0.  1.
</event>
<event>
 7    1  0.6103724E-006  0.2269113E+03  0.7818608E-02  0.1225730E+00
          2   -1    0    0  502    0  0.00000000000E+00  0.00000000000E+00  0.16889515849E+04  0.16889515849E+04  0.00000000000E+00 0. -1.
          1   -1    0    0  501    0 -0.00000000000E+00 -0.00000000000E+00 -0.12552354965E+04  0.12552354965E+04  0.00000000000E+00 0. -1.
         25    2    1    2    0    0  0.48898927663E+02 -0.16614329445E+03  0.31255730108E+03  0.37856870921E+03  0.12501000646E+03 0.  0.
          2    1    1    2  501    0 -0.60114271331E+01  0.22867406237E+03 -0.12104384071E+04  0.12318640759E+04  0.00000000000E+00 0. -1.
          1    1    1    2  502    0 -0.42887500530E+02 -0.62530767916E+02  0.13315971944E+04  0.13337542963E+04  0.00000000000E+00 0. -1.
         22    1    3    3    0    0 -0.42197196419E+01 -0.15741545368E+03  0.25547000673E+03  0.30010390772E+03  0.00000000000E+00 0. -1.
         22    1    3    3    0    0  0.53118647305E+02 -0.87278407757E+01  0.57087294346E+02  0.78464801484E+02  0.00000000000E+00 0. -1.
</event>
<event>
 7    1  0.6103724E-006  0.9126949E+02  0.7818608E-02  0.1355447E+00
          2   -1    0    0  502    0  0.00000000000E+00  0.00000000000E+00  0.30421783998E+03  0.30421783998E+03  0.00000000000E+00 0. -1.
          1   -1    0    0  501    0 -0.00000000000E+00 -0.00000000000E+00 -0.35642095143E+03  0.35642095143E+03  0.00000000000E+00 0. -1.
         25    2    1    2    0    0  0.65407478504E+02 -0.93772484276E+02 -0.62879207287E+02  0.18069615524E+03  0.12500355499E+03 0.  0.
          2    1    1    2  501    0 -0.97726630963E+01  0.89086105910E+02 -0.22266025046E+03  0.24001963742E+03  0.00000000000E+00 0. -1.
          1    1    1    2  502    0 -0.55634815408E+02  0.46863783656E+01  0.23333634629E+03  0.23992299875E+03  0.00000000000E+00 0. -1.
         22    1    3    3    0    0  0.37178861300E+02  0.24309245357E+02 -0.33894434220E+02  0.55875216407E+02  0.00000000000E+00 0.  1.
         22    1    3    3    0    0  0.28228617204E+02 -0.11808172963E+03 -0.28984773067E+02  0.12482093884E+03  0.00000000000E+00 0.  1.
</event>
<event>
 7    1  0.6103724E-006  0.1230452E+03  0.7818608E-02  0.1283745E+00
          2   -1    0    0  502    0  0.00000000000E+00  0.00000000000E+00  0.47030356657E+03  0.47030356657E+03  0.00000000000E+00 0. -1.
          1   -1    0    0  501    0 -0.00000000000E+00 -0.00000000000E+00 -0.16518014938E+04  0.16518014938E+04  0.00000000000E+00 0. -1.
         25    2    1    2    0    0 -0.12067471217E+03  0.53836459575E+02 -0.29656976708E+03  0.34790808534E+03  0.12500263424E+03 0.  0.
          2    1    1    2  501    0  0.63062276329E+02 -0.10738506437E+03 -0.13231372688E+04  0.13289848136E+04  0.00000000000E+00 0. -1.
          1    1    1    2  502    0  0.57612435839E+02  0.53548604796E+02  0.43820910860E+03  0.44521216144E+03  0.00000000000E+00 0. -1.
         22    1    3    3    0    0 -0.87547962216E+02  0.92759717722E+02 -0.17985277563E+03  0.22049043477E+03  0.00000000000E+00 0.  1.
         22    1    3    3    0    0 -0.33126749952E+02 -0.38923258147E+02 -0.11671699144E+03  0.12741765058E+03  0.00000000000E+00 0.  1.
</event>
<event>
 7    1  0.6103724E-006  0.1148189E+03  0.7818608E-02  0.1259124E+00
          2   -1    0    0  502    0  0.00000000000E+00  0.00000000000E+00  0.66648330225E+03  0.66648330225E+03  0.00000000000E+00 0. -1.
          1   -1    0    0  501    0 -0.00000000000E+00 -0.00000000000E+00 -0.25063394522E+03  0.25063394522E+03  0.00000000000E+00 0. -1.
         25    2    1    2    0    0  0.78385032162E+02 -0.51149318692E+02  0.32214806392E+03  0.35800110645E+03  0.12499980426E+03 0.  0.
          2    1    1    2  501    0 -0.10563298444E+03 -0.52211074400E+02 -0.20798988417E+03  0.23904835412E+03  0.00000000000E+00 0. -1.
          1    1    1    2  502    0  0.27247952273E+02  0.10336039309E+03  0.30169117727E+03  0.32006778690E+03  0.00000000000E+00 0. -1.
         22    1    3    3    0    0 -0.31359937991E+02 -0.12632649812E+02  0.37404022556E+02  0.50419147706E+02  0.00000000000E+00 0. -1.
         22    1    3    3    0    0  0.10974497015E+03 -0.38516668879E+02  0.28474404136E+03  0.30758195875E+03  0.00000000000E+00 0. -1.
</event>
<event>
 7    1  0.6103724E-006  0.6060269E+02  0.7818608E-02  0.1451111E+00
          2   -1    0    0  502    0  0.00000000000E+00  0.00000000000E+00  0.28544093263E+04  0.28544093263E+04  0.00000000000E+00 0. -1.
          1   -1    0    0  501    0 -0.00000000000E+00 -0.00000000000E+00 -0.95023996375E+02  0.95023996375E+02  0.00000000000E+00 0. -1.
         25    2    1    2    0    0  0.66630553565E+02 -0.48868162909E+01  0.80506564173E+02  0.16300185305E+03  0.12499914232E+03 0.  0.
          2    1    1    2  501    0 -0.52292039792E+02 -0.31952580024E+02 -0.36127089603E+02  0.71137833808E+02  0.00000000000E+00 0. -1.
          1    1    1    2  502    0 -0.14338513773E+02  0.36839396314E+02  0.27150058554E+04  0.27152936359E+04  0.00000000000E+00 0. -1.
         22    1    3    3    0    0  0.85451493264E+02  0.38993498026E+02  0.55586477773E+02  0.10914351607E+03  0.00000000000E+00 0.  1.
         22    1    3    3    0    0 -0.18820939700E+02 -0.43880314317E+02  0.24920086400E+02  0.53858336977E+02  0.00000000000E+00 0.  1.
</event>
<event>
 7    1  0.6103724E-006  0.4779213E+02  0.7818608E-02  0.1542448E+00
          2   -1    0    0  502    0  0.00000000000E+00  0.00000000000E+00  0.76277322493E+02  0.76277322493E+02  0.00000000000E+00 0. -1.
          1   -1    0    0  501    0 -0.00000000000E+00 -0.00000000000E+00 -0.68325696132E+03  0.68325696132E+03  0.00000000000E+00 0. -1.
         25    2    1    2    0    0 -0.17885152943E+02  0.58203388076E+02 -0.23688641345E+03  0.27467787271E+03  0.12500099120E+03 0.  0.
          2    1    1    2  501    0  0.24234450584E+02 -0.11137618267E+02 -0.41714869508E+03  0.41800046524E+03  0.00000000000E+00 0. -1.
          1    1    1    2  502    0 -0.63492976412E+01 -0.47065769809E+02  0.47055469700E+02  0.66855945861E+02  0.00000000000E+00 0. -1.
         22    1    3    3    0    0 -0.11941734034E+02 -0.38085441646E+01 -0.20371573065E+03  0.20410097730E+03  0.00000000000E+00 0.  1.
         22    1    3    3    0    0 -0.59434189096E+01  0.62011932240E+02 -0.33170682793E+02  0.70576895408E+02  0.00000000000E+00 0.  1.
</event>
<event>
 7    1  0.7514925E-006  0.1719172E+03  0.7818608E-02  0.1191713E+00
          2   -1    0    0  502    0  0.00000000000E+00  0.00000000000E+00  0.11790292763E+04  0.11790292763E+04  0.00000000000E+00 0. -1.
          1   -1    0    0  501    0 -0.00000000000E+00 -0.00000000000E+00 -0.16478602204E+04  0.16478602204E+04  0.00000000000E+00 0. -1.
         25    2    1    2    0    0  0.72335007493E+02  0.41370559173E+02 -0.47307829374E+03  0.49635883363E+03  0.12500057299E+03 0.  0.
          2    1    1    2  501    0  0.83857521468E+02 -0.11710135277E+03 -0.11521803154E+04  0.11611478329E+04  0.00000000000E+00 0. -1.
          1    1    1    2  502    0 -0.15619252896E+03  0.75730793599E+02  0.11564276650E+04  0.11693828302E+04  0.00000000000E+00 0. -1.
         22    1    3    3    0    0  0.21778096677E+01  0.28025606046E+02 -0.13354301723E+02  0.31120970803E+02  0.00000000000E+00 0.  1.
         22    1    3    3    0    0  0.70157197825E+02  0.13344953127E+02 -0.45972399201E+03  0.46523786283E+03  0.00000000000E+00 0.  1.
</event>
<event>
 7    1  0.6103724E-006  0.1093129E+03  0.7818608E-02  0.1352715E+00
          2   -1    0    0  502    0  0.00000000000E+00  0.00000000000E+00  0.87529864445E+02  0.87529864445E+02  0.00000000000E+00 0. -1.
          1   -1    0    0  501    0 -0.00000000000E+00 -0.00000000000E+00 -0.68261023911E+03  0.68261023911E+03  0.00000000000E+00 0. -1.
         25    2    1    2    0    0 -0.85326275737E+02 -0.65962235075E+02 -0.22997267064E+03  0.28309593562E+03  0.12499715893E+03 0.  0.
          2    1    1    2  501    0  0.34399661779E+02 -0.33057161542E+02 -0.37241337182E+03  0.37545683130E+03  0.00000000000E+00 0. -1.
          1    1    1    2  502    0  0.50926613958E+02  0.99019396617E+02  0.73056677877E+01  0.11158733664E+03  0.00000000000E+00 0. -1.
         22    1    3    3    0    0 -0.77784693726E+02 -0.14931584411E+02 -0.45065340848E+02  0.91127908661E+02  0.00000000000E+00 0.  1.
         22    1    3    3    0    0 -0.75415820109E+01 -0.51030650664E+02 -0.18490732979E+03  0.19196802696E+03  0.00000000000E+00 0.  1.
</event>
<event>
 7    1  0.6103724E-006  0.2583100E+03  0.7818608E-02  0.1236498E+00
          2   -1    0    0  502    0  0.00000000000E+00  0.00000000000E+00  0.86876279133E+03  0.86876279133E+03  0.00000000000E+00 0. -1.
          1   -1    0    0  501    0 -0.00000000000E+00 -0.00000000000E+00 -0.21163310191E+04  0.21163310191E+04  0.00000000000E+00 0. -1.
         25    2    1    2    0    0  0.29552545756E+03  0.27545845146E+02 -0.60228138926E+03  0.68297874528E+03  0.12499209979E+03 0.  0.
          2    1    1    2  501    0 -0.24262283139E+03 -0.55021702976E+02 -0.14621073923E+04  0.14831221301E+04  0.00000000000E+00 0. -1.
          1    1    1    2  502    0 -0.52902626165E+02  0.27475857830E+02  0.81682055378E+03  0.81899293507E+03  0.00000000000E+00 0. -1.
         22    1    3    3    0    0  0.20600213797E+02  0.25711396257E+02 -0.18711683478E+02  0.37888940399E+02  0.00000000000E+00 0.  1.
         22    1    3    3    0    0  0.27492524376E+03  0.18344488890E+01 -0.58356970578E+03  0.64508980489E+03  0.00000000000E+00 0.  1.
</event>
<event>
 7    1  0.6103724E-006  0.8314807E+02  0.7818608E-02  0.1370040E+00
          2   -1    0    0  502    0  0.00000000000E+00  0.00000000000E+00  0.29472483407E+04  0.29472483407E+04  0.00000000000E+00 0. -1.
          1   -1    0    0  501    0 -0.00000000000E+00 -0.00000000000E+00 -0.11712644799E+04  0.11712644799E+04  0.00000000000E+00 0. -1.
         25    2    1    2    0    0  0.78255975588E+02 -0.10710073096E+02  0.11119644547E+04  0.11217524111E+04  0.12499927956E+03 0.  0.
          2    1    1    2  501    0 -0.56973864950E+02  0.60600160580E+02 -0.11644849535E+04  0.11674517582E+04  0.00000000000E+00 0. -1.
          1    1    1    2  502    0 -0.21282110638E+02 -0.49890087483E+02  0.18285043595E+04  0.18293086513E+04  0.00000000000E+00 0. -1.
         22    1    3    3    0    0 -0.24543570671E+01 -0.26572982777E+02  0.75347650684E+03  0.75394893304E+03  0.00000000000E+00 0. -1.
         22    1    3    3    0    0  0.80710332655E+02  0.15862909681E+02  0.35848794789E+03  0.36780347807E+03  0.00000000000E+00 0. -1.
</event>
<event>
 7    1  0.6103724E-006  0.5592548E+02  0.7818608E-02  0.1425025E+00
          2   -1    0    0  502    0  0.00000000000E+00  0.00000000000E+00  0.66876760020E+02  0.66876760020E+02  0.00000000000E+00 0. -1.
          1   -1    0    0  501    0 -0.00000000000E+00 -0.00000000000E+00 -0.78043776243E+03  0.78043776243E+03  0.00000000000E+00 0. -1.
         25    2    1    2    0    0 -0.44479499896E+01 -0.58468709586E+01 -0.14949670521E+03  0.19500784526E+03  0.12499929874E+03 0.  0.
          2    1    1    2  501    0  0.47621169727E+02  0.34985625517E+02 -0.59080796633E+03  0.59375569292E+03  0.00000000000E+00 0. -1.
          1    1    1    2  502    0 -0.43173219737E+02 -0.29138754559E+02  0.26743669132E+02  0.58550984265E+02  0.00000000000E+00 0. -1.
         22    1    3    3    0    0 -0.46532612518E+02 -0.12316571135E+02 -0.14429540666E+03  0.15211228200E+03  0.00000000000E+00 0.  1.
         22    1    3    3    0    0  0.42084662528E+02  0.64697001764E+01 -0.52012985448E+01  0.42895563256E+02  0.00000000000E+00 0.  1.
</event>
<event>
 7    1  0.6103724E-006  0.5586641E+02  0.7818608E-02  0.1468065E+00
          2   -1    0    0  502    0  0.00000000000E+00  0.00000000000E+00  0.14737621214E+03  0.14737621214E+03  0.00000000000E+00 0. -1.
          1   -1    0    0  501    0 -0.00000000000E+00 -0.00000000000E+00 -0.22661569204E+04  0.22661569204E+04  0.00000000000E+00 0. -1.
         25    2    1    2    0    0  0.44798781403E+02 -0.68384196448E+02  0.62412359328E+02  0.16187652324E+03  0.12500150816E+03 0.  0.
          2    1    1    2  501    0 -0.46720136866E+02  0.30521835214E+02 -0.22057701865E+04  0.22064760296E+04  0.00000000000E+00 0. -1.
          1    1    1    2  502    0  0.19213554628E+01  0.37862361234E+02  0.24577118920E+02  0.45180579671E+02  0.00000000000E+00 0. -1.
         22    1    3    3    0    0  0.74003507879E+02 -0.61229094226E+02  0.81747798068E+02  0.12612780680E+03  0.00000000000E+00 0. -1.
         22    1    3    3    0    0 -0.29204726476E+02 -0.71551022224E+01 -0.19335438739E+02  0.35748716447E+02  0.00000000000E+00 0. -1.
</event>
<event>
 7    1  0.6103724E-006  0.8612856E+02  0.7818608E-02  0.1390304E+00
          2   -1    0    0  502    0  0.00000000000E+00  0.00000000000E+00  0.66708096847E+03  0.66708096847E+03  0.00000000000E+00 0. -1.
          1   -1    0    0  501    0 -0.00000000000E+00 -0.00000000000E+00 -0.24881428062E+03  0.24881428062E+03  0.00000000000E+00 0. -1.
         25    2    1    2    0    0  0.36269919180E+02  0.42438423735E+02 -0.28653950073E+02  0.13987474458E+03  0.12500947352E+03 0.  0.
          2    1    1    2  501    0 -0.80128976907E+02 -0.49271801095E+02 -0.15021525074E+03  0.17723708664E+03  0.00000000000E+00 0. -1.
          1    1    1    2  502    0  0.43859057726E+02  0.68333773605E+01  0.59713588866E+03  0.59878341787E+03  0.00000000000E+00 0. -1.
         22    1    3    3    0    0 -0.42222474313E+02 -0.87102274824E+01 -0.64354849037E+01  0.43589228782E+02  0.00000000000E+00 0. -1.
         22    1    3    3    0    0  0.78492393493E+02  0.51148651217E+02 -0.22218465169E+02  0.96285515796E+02  0.00000000000E+00 0. -1.
</event>
<event>
 7    1  0.1409203E-005  0.5576332E+02  0.7818608E-02  0.1458971E+00
          2   -1    0    0  502    0  0.00000000000E+00  0.00000000000E+00  0.11482207414E+04  0.11482207414E+04  0.00000000000E+00 0. -1.
          1   -1    0    0  501    0 -0.00000000000E+00 -0.00000000000E+00 -0.19632091443E+04  0.19632091443E+04  0.00000000000E+00 0. -1.
         25    2    1    2    0    0 -0.33766206080E+01  0.27557900601E+02 -0.50886245054E+03  0.52472302576E+03  0.12498968255E+03 0.  0.
          2    1    1    2  501    0  0.41772547320E+02 -0.40634533884E+02 -0.14454683792E+04  0.14466426463E+04  0.00000000000E+00 0. -1.
          1    1    1    2  502    0 -0.38395926712E+02  0.13076633283E+02  0.11393424268E+04  0.11400642136E+04  0.00000000000E+00 0. -1.
         22    1    3    3    0    0 -0.38074451877E+02  0.61429539806E+01 -0.45827331355E+02  0.59896110629E+02  0.00000000000E+00 0.  1.
         22    1    3    3    0    0  0.34697831269E+02  0.21414946620E+02 -0.46303511918E+03  0.46482691513E+03  0.00000000000E+00 0.  1.
</event>
<event>
 7    1  0.6103724E-006  0.1051929E+03  0.7818608E-02  0.1271385E+00
          2   -1    0    0  502    0  0.00000000000E+00  0.00000000000E+00  0.75279207343E+03  0.75279207343E+03  0.00000000000E+00 0. -1.
          1   -1    0    0  501    0 -0.00000000000E+00 -0.00000000000E+00 -0.24261094612E+03  0.24261094612E+03  0.00000000000E+00 0. -1.
         25    2    1    2    0    0 -0.29228449867E+01  0.10496044633E+03  0.15683272046E+03  0.22637704588E+03  0.12499930552E+03 0.  0.
          2    1    1    2  501    0  0.93706539824E+02 -0.55183044804E+02 -0.18836743008E+03  0.21750487984E+03  0.00000000000E+00 0. -1.
          1    1    1    2  502    0 -0.90783694837E+02 -0.49777401523E+02  0.54171583693E+03  0.55152109383E+03  0.00000000000E+00 0. -1.
         22    1    3    3    0    0 -0.13407811160E+02  0.18309272577E+02  0.13433857483E+03  0.13624188618E+03  0.00000000000E+00 0.  1.
         22    1    3    3    0    0  0.10484966174E+02  0.86651173749E+02  0.22494145632E+02  0.90135159707E+02  0.00000000000E+00 0.  1.
</event>
<event>
 7    1  0.6103724E-006  0.8208633E+02  0.7818608E-02  0.1324800E+00
          2   -1    0    0  502    0  0.00000000000E+00  0.00000000000E+00  0.20555194871E+04  0.20555194871E+04  0.00000000000E+00 0. -1.
          1   -1    0    0  501    0 -0.00000000000E+00 -0.00000000000E+00 -0.25852073197E+03  0.25852073197E+03  0.00000000000E+00 0. -1.
         25    2    1    2    0    0 -0.38548391642E+02 -0.60032910664E+02 -0.57721441843E+01  0.14405110369E+03  0.12500989546E+03 0.  0.
          2    1    1    2  501    0 -0.43708337649E+02  0.68138352172E+02 -0.17378036422E+03  0.19171037741E+03  0.00000000000E+00 0. -1.
          1    1    1    2  502    0  0.82256729291E+02 -0.81054415076E+01  0.19765512636E+04  0.19782787380E+04  0.00000000000E+00 0. -1.
         22    1    3    3    0    0  0.26262940216E+02 -0.53230383322E+02 -0.38879051699E+02  0.70956299216E+02  0.00000000000E+00 0.  1.
         22    1    3    3    0    0 -0.64811331858E+02 -0.68025273420E+01  0.33106907515E+02  0.73094804471E+02  0.00000000000E+00 0.  1.
</event>
<event>
 7    1  0.7631670E-006  0.4885084E+02  0.7818608E-02  0.1511315E+00
          2   -1    0    0  502    0  0.00000000000E+00  0.00000000000E+00  0.18138625999E+04  0.18138625999E+04  0.00000000000E+00 0. -1.
          1   -1    0    0  501    0 -0.00000000000E+00 -0.00000000000E+00 -0.10679771622E+04  0.10679771622E+04  0.00000000000E+00 0. -1.
         25    2    1    2    0    0  0.11484378457E+02 -0.33355280823E+02 -0.57839515000E+02  0.14218216737E+03  0.12500357401E+03 0.  0.
          2    1    1    2  501    0  0.30837639508E+02  0.88079518255E+01 -0.96736275910E+03  0.96789423374E+03  0.00000000000E+00 0. -1.
          1    1    1    2  502    0 -0.42322017965E+02  0.24547328998E+02  0.17710877118E+04  0.17717633610E+04  0.00000000000E+00 0. -1.
         22    1    3    3    0    0  0.53168051183E+02 -0.53101013997E+02 -0.59773171386E+02  0.96017661770E+02  0.00000000000E+00 0.  1.
         22    1    3    3    0    0 -0.41683672726E+02  0.19745733174E+02  0.19336563869E+01  0.46164505603E+02  0.00000000000E+00 0.  1.
</event>
<event>
 7    1  0.6103724E-006  0.6705592E+02  0.7818608E-02  0.1526070E+00
          2   -1    0    0  502    0  0.00000000000E+00  0.00000000000E+00  0.74797847514E+03  0.74797847514E+03  0.00000000000E+00 0. -1.
          1   -1    0    0  501    0 -0.00000000000E+00 -0.00000000000E+00 -0.29119522834E+03  0.29119522834E+03  0.00000000000E+00 0. -1.
         25    2    1    2    0    0 -0.47993337287E+02  0.23010749694E+01 -0.39387854080E+02  0.13959024157E+03  0.12500150848E+03 0.  0.
          2    1    1    2  501    0 -0.18098587989E+02  0.10972744249E+02 -0.19951722515E+03  0.20063669439E+03  0.00000000000E+00 0. -1.
          1    1    1    2  502    0  0.66091925276E+02 -0.13273819219E+02  0.69568832603E+03  0.69894676753E+03  0.00000000000E+00 0. -1.
         22    1    3    3    0    0  0.41220010989E+02  0.13789092847E+02 -0.18550211858E+02  0.47258213545E+02  0.00000000000E+00 0. -1.
         22    1    3    3    0    0 -0.89213348276E+02 -0.11488017878E+02 -0.20837642222E+02  0.92332028022E+02  0.00000000000E+00 0. -1.
</event>
<event>
 7    1  0.6103724E-006  0.4580695E+02  0.7818608E-02  0.1515931E+00
          2   -1    0    0  502    0  0.00000000000E+00  0.00000000000E+00  0.12623441766E+04  0.12623441766E+04  0.00000000000E+00 0. -1.
          1   -1    0    0  501    0 -0.00000000000E+00 -0.00000000000E+00 -0.60968967879E+02  0.60968967879E+02  0.00000000000E+00 0. -1.
         25    2    1    2    0    0 -0.53140846447E+02  0.52935119819E+02  0.51591963494E+03  0.53611998570E+03  0.12500197152E+03 0.  0.
          2    1    1    2  501    0  0.28912544625E+02 -0.16224038371E+02 -0.44733875310E+02  0.55680106483E+02  0.00000000000E+00 0. -1.
          1    1    1    2  502    0  0.24228301822E+02 -0.36711081448E+02  0.73018944910E+03  0.73151305230E+03  0.00000000000E+00 0. -1.
         22    1    3    3    0    0 -0.85282760402E+02  0.67459367525E+02  0.35041056522E+03  0.36689437132E+03  0.00000000000E+00 0.  1.
         22    1    3    3    0    0  0.32141913954E+02 -0.14524247707E+02  0.16550906972E+03  0.16922561439E+03  0.00000000000E+00 0.  1.
</event>
<event>
 7    1  0.6103724E-006  0.6971611E+02  0.7818608E-02  0.1431884E+00
          2   -1    0    0  502    0  0.00000000000E+00  0.00000000000E+00  0.28218177194E+04  0.28218177194E+04  0.00000000000E+00 0. -1.
          1   -1    0    0  501    0 -0.00000000000E+00 -0.00000000000E+00 -0.35204341584E+02  0.35204341584E+02  0.00000000000E+00 0. -1.
         25    2    1    2    0    0 -0.29437822518E+02  0.32712444621E+02  0.15584759201E+04  0.15640999530E+04  0.12499911998E+03 0.  0.
          2    1    1    2  501    0 -0.35065634859E+02  0.18531777892E+02 -0.18360322975E+02  0.43704999710E+02  0.00000000000E+00 0. -1.
          1    1    1    2  502    0  0.64503457377E+02 -0.51244222514E+02  0.12464977807E+04  0.12492171083E+04  0.00000000000E+00 0. -1.
         22    1    3    3    0    0 -0.11701991584E+02 -0.19542816789E+02  0.12803404783E+04  0.12805430874E+04  0.00000000000E+00 0.  1.
         22    1    3    3    0    0 -0.17735830933E+02  0.52255261411E+02  0.27813544179E+03  0.28355686559E+03  0.00000000000E+00 0.  1.
</event>
<event>
 7    1  0.6103724E-006  0.1612386E+03  0.7818608E-02  0.1381809E+00
          2   -1    0    0  502    0  0.00000000000E+00  0.00000000000E+00  0.13002455945E+04  0.13002455945E+04  0.00000000000E+00 0. -1.
          1   -1    0    0  501    0 -0.00000000000E+00 -0.00000000000E+00 -0.74390075399E+02  0.74390075399E+02  0.00000000000E+00 0. -1.
         25    2    1    2    0    0 -0.15952270391E+03 -0.30869112669E+02  0.44273586702E+03  0.48789492357E+03  0.12500405319E+03 0.  0.
          2    1    1    2  501    0  0.15165607130E+03  0.55015967691E+02  0.74554853124E+02  0.17772098015E+03  0.00000000000E+00 0. -1.
          1    1    1    2  502    0  0.78666326127E+01 -0.24146855022E+02  0.70856479893E+03  0.70901976615E+03  0.00000000000E+00 0. -1.
         22    1    3    3    0    0 -0.41640819454E+02 -0.64485079060E+02  0.22874818255E+03  0.24128409455E+03  0.00000000000E+00 0.  1.
         22    1    3    3    0    0 -0.11788188445E+03  0.33615966391E+02  0.21398768448E+03  0.24661082901E+03  0.00000000000E+00 0.  1.
</event>
<event>
 7    1  0.6103724E-006  0.1444097E+03  0.7818608E-02  0.1363522E+00
          2   -1    0    0  502    0  0.00000000000E+00  0.00000000000E+00  0.59742326920E+03  0.59742326920E+03  0.00000000000E+00 0. -1.
          1   -1    0    0  501    0 -0.00000000000E+00 -0.00000000000E+00 -0.12253227889E+04  0.12253227889E+04  0.00000000000E+00 0. -1.
         25    2    1    2    0    0 -0.77992294073E+01 -0.14971274638E+03 -0.47760503884E+03  0.51595182147E+03  0.12499989818E+03 0.  0.
          2    1    1    2  501    0 -0.31185217686E+02  0.10700781934E+02 -0.71914905742E+03  0.71990443208E+03  0.00000000000E+00 0. -1.
          1    1    1    2  502    0  0.38984447093E+02  0.13901196444E+03  0.56885457658E+03  0.58688980453E+03  0.00000000000E+00 0. -1.
         22    1    3    3    0    0  0.36154823492E+02 -0.13103601566E+03 -0.41815882393E+03  0.43969809039E+03  0.00000000000E+00 0.  1.
         22    1    3    3    0    0 -0.43954052899E+02 -0.18676730714E+02 -0.59446214915E+02  0.76253731084E+02  0.00000000000E+00 0.  1.
</event>
<event>
 7    1  0.6103724E-006  0.1100541E+03  0.7818608E-02  0.1338946E+00
          2   -1    0    0  502    0  0.00000000000E+00  0.00000000000E+00  0.13215938214E+04  0.13215938214E+04  0.00000000000E+00 0. -1.
          1   -1    0    0  501    0 -0.00000000000E+00 -0.00000000000E+00 -0.51624866014E+03  0.51624866014E+03  0.00000000000E+00 0. -1.
         25    2    1    2    0    0 -0.98555723538E+02  0.36755015663E+02  0.28238000616E+03  0.32623185560E+03  0.12499837563E+03 0.  0.
          2    1    1    2  501    0  0.10931617502E+03  0.15482367991E+02 -0.48744577152E+03  0.49979306719E+03  0.00000000000E+00 0. -1.
          1    1    1    2  502    0 -0.10760451485E+02 -0.52237383654E+02  0.10104109266E+04  0.10118175587E+04  0.00000000000E+00 0. -1.
         22    1    3    3    0    0 -0.94456458511E+02  0.47891056217E+02  0.10733774208E+03  0.15078782011E+03  0.00000000000E+00 0. -1.
         22    1    3    3    0    0 -0.40992650264E+01 -0.11136040553E+02  0.17504226408E+03  0.17544403549E+03  0.00000000000E+00 0. -1.
</event>
<event>
 7    1  0.6461055E-006  0.7076780E+02  0.7818608E-02  0.1376120E+00
          2   -1    0    0  502    0  0.00000000000E+00  0.00000000000E+00  0.13647767395E+04  0.13647767395E+04  0.00000000000E+00 0. -1.
          1   -1    0    0  501    0 -0.00000000000E+00 -0.00000000000E+00 -0.19952228470E+04  0.19952228470E+04  0.00000000000E+00 0. -1.
         25    2    1    2    0    0 -0.37317737624E+02 -0.79714011085E+02 -0.20616689894E+03  0.25666618210E+03  0.12500320679E+03 0.  0.
          2    1    1    2  501    0 -0.28452771662E+02  0.53521582815E+02 -0.17623495322E+04  0.17633916167E+04  0.00000000000E+00 0. -1.
          1    1    1    2  502    0  0.65770509286E+02  0.26192428270E+02  0.13380703237E+04  0.13399417877E+04  0.00000000000E+00 0. -1.
         22    1    3    3    0    0 -0.80170242023E+02 -0.74814716891E+02 -0.15195141894E+03  0.18738661448E+03  0.00000000000E+00 0. -1.
         22    1    3    3    0    0  0.42852504399E+02 -0.48992941939E+01 -0.54215480003E+02  0.69279567614E+02  0.00000000000E+00 0. -1.
</event>
<event>
 7    1  0.6103724E-006  0.7589255E+02  0.7818608E-02  0.1445273E+00
          2   -1    0    0  502    0  0.00000000000E+00  0.00000000000E+00  0.16217061764E+04  0.16217061764E+04  0.00000000000E+00 0. -1.
          1   -1    0    0  501    0 -0.00000000000E+00 -0.00000000000E+00 -0.30969196060E+02  0.30969196060E+02  0.00000000000E+00 0. -1.
         25    2    1    2    0    0 -0.11001562940E+02 -0.82884576924E+02  0.29279651311E+03  0.32914951338E+03  0.12497486385E+03 0.  0.
          2    1    1    2  501    0 -0.20143720322E+02  0.72104950535E+02  0.98940608898E+02  0.12407311332E+03  0.00000000000E+00 0. -1.
          1    1    1    2  502    0  0.31145283262E+02  0.10779626388E+02  0.11989998583E+04  0.11994527457E+04  0.00000000000E+00 0. -1.
         22    1    3    3    0    0  0.20367107991E+02 -0.42960188083E+02  0.19850571590E+02  0.51521277551E+02  0.00000000000E+00 0. -1.
         22    1    3    3    0    0 -0.31368670931E+02 -0.39924388841E+02  0.27294594152E+03  0.27762823583E+03  0.00000000000E+00 0. -1.
</event>
<event>
 7    1  0.6103724E-006  0.5702788E+02  0.7818608E-02  0.1472224E+00
          2   -1    0    0  502    0  0.00000000000E+00  0.00000000000E+00  0.20323949097E+04  0.20323949097E+04  0.00000000000E+00 0. -1.
          1   -1    0    0  501    0 -0.00000000000E+00 -0.00000000000E+00 -0.77021793031E+02  0.77021793031E+02  0.00000000000E+00 0. -1.
         25    2    1    2    0    0  0.39601047504E+02 -0.56407919518E+02  0.10622012791E+04  0.10717495062E+04  0.12500140134E+03 0.  0.
          2    1    1    2  501    0 -0.35551026352E+01  0.56897236995E+02 -0.60608107453E+02  0.83206231866E+02  0.00000000000E+00 0. -1.
          1    1    1    2  502    0 -0.36045944869E+02 -0.48931747686E+00  0.95377994498E+03  0.95446096464E+03  0.00000000000E+00 0. -1.
         22    1    3    3    0    0  0.26831009832E+02  0.13860262472E+02  0.78222129144E+03  0.78280403598E+03  0.00000000000E+00 0. -1.
         22    1    3    3    0    0  0.12770037672E+02 -0.70268181990E+02  0.27997998769E+03  0.28894547024E+03  0.00000000000E+00 0. -1.
</event>
<event>
 7    1  0.6103724E-006  0.1159145E+03  0.7818608E-02  0.1269060E+00
          2   -1    0    0  502    0  0.00000000000E+00  0.00000000000E+00  0.17285775470E+03  0.17285775470E+03  0.00000000000E+00 0. -1.
          1   -1    0    0  501    0 -0.00000000000E+00 -0.00000000000E+00 -0.51966836135E+03  0.51966836135E+03  0.00000000000E+00 0. -1.
         25    2    1    2    0    0  0.14595037991E+02 -0.85341594387E+01 -0.56563979830E+02  0.13824599780E+03  0.12500650016E+03 0.  0.
          2    1    1    2  501    0 -0.12101342664E+02 -0.11528104775E+03 -0.38261394119E+03  0.39978693132E+03  0.00000000000E+00 0. -1.
          1    1    1    2  502    0 -0.24936953274E+01  0.12381520719E+03  0.92367314367E+02  0.15449318694E+03  0.00000000000E+00 0. -1.
         22    1    3    3    0    0 -0.55562309625E+02 -0.50283371332E+01 -0.27915906842E+02  0.62383910426E+02  0.00000000000E+00 0.  1.
         22    1    3    3    0    0  0.70157347616E+02 -0.35058223055E+01 -0.28648072987E+02  0.75862087372E+02  0.00000000000E+00 0.  1.
</event>
<event>
 7    1  0.6103724E-006  0.1141667E+03  0.7818608E-02  0.1267907E+00
          2   -1    0    0  502    0  0.00000000000E+00  0.00000000000E+00  0.83500890641E+02  0.83500890641E+02  0.00000000000E+00 0. -1.
          1   -1    0    0  501    0 -0.00000000000E+00 -0.00000000000E+00 -0.19348524085E+04  0.19348524085E+04  0.00000000000E+00 0. -1.
         25    2    1    2    0    0  0.40357850353E+02 -0.54766132903E+02 -0.23119748815E+03  0.27148708335E+03  0.12499949000E+03 0.  0.
          2    1    1    2  501    0 -0.10774094469E+03 -0.37761338089E+02 -0.16281278014E+04  0.16321256593E+04  0.00000000000E+00 0. -1.
          1    1    1    2  502    0  0.67383094338E+02  0.92527470993E+02  0.79737716729E+01  0.11474055659E+03  0.00000000000E+00 0. -1.
         22    1    3    3    0    0  0.58199473355E+02 -0.50475767669E+02 -0.55780257005E+02  0.95112664205E+02  0.00000000000E+00 0.  1.
         22    1    3    3    0    0 -0.17841623002E+02 -0.42903652346E+01 -0.17541723115E+03  0.17637441915E+03  0.00000000000E+00 0.  1.
</event>
<event>
 7    1  0.6103724E-006  0.6720381E+02  0.7818608E-02  0.1402039E+00
          2   -1    0    0  502    0  0.00000000000E+00  0.00000000000E+00  0.12603235246E+04  0.12603235246E+04  0.00000000000E+00 0. -1.
          1   -1    0    0  501    0 -0.00000000000E+00 -0.00000000000E+00 -0.95195221546E+02  0.95195221546E+02  0.00000000000E+00 0. -1.
         25    2    1    2    0    0 -0.82675214872E+02 -0.57144773589E+02  0.40484114848E+03  0.43545632565E+03  0.12500055897E+03 0.  0.
          2    1    1    2  501    0  0.51811872228E+02 -0.33647704049E+00 -0.70070157938E+02  0.87145914155E+02  0.00000000000E+00 0. -1.
          1    1    1    2  502    0  0.30863342644E+02  0.57481250630E+02  0.83035731256E+03  0.83291650639E+03  0.00000000000E+00 0. -1.
         22    1    3    3    0    0 -0.74629004914E+02  0.23292273067E+02  0.17064978026E+03  0.18770552965E+03  0.00000000000E+00 0. -1.
         22    1    3    3    0    0 -0.80462099576E+01 -0.80437046656E+02  0.23419136822E+03  0.24775079600E+03  0.00000000000E+00 0. -1.
</event>
<event>
 7    1  0.6103724E-006  0.1843873E+03  0.7818608E-02  0.1235220E+00
          2   -1    0    0  502    0  0.00000000000E+00  0.00000000000E+00  0.70426384926E+03  0.70426384926E+03  0.00000000000E+00 0. -1.
          1   -1    0    0  501    0 -0.00000000000E+00 -0.00000000000E+00 -0.44042129703E+03  0.44042129703E+03  0.00000000000E+00 0. -1.
         25    2    1    2    0    0  0.10949571327E+03 -0.33385278522E+02 -0.71788259074E+02  0.18407327571E+03  0.12500211455E+03 0.  0.
          2    1    1    2  501    0  0.82513386612E+02  0.18714722392E+02 -0.29204828873E+03  0.30405740043E+03  0.00000000000E+00 0. -1.
          1    1    1    2  502    0 -0.19200909989E+03  0.14670556130E+02  0.62767910003E+03  0.65655447015E+03  0.00000000000E+00 0. -1.
         22    1    3    3    0    0  0.70035388501E+02  0.25773019936E+02 -0.83516872768E+02  0.11200121533E+03  0.00000000000E+00 0.  1.
         22    1    3    3    0    0  0.39460324773E+02 -0.59158298458E+02  0.11728613694E+02  0.72072060376E+02  0.00000000000E+00 0.  1.
</event>
<event>
 7    1  0.6103724E-006  0.7568660E+02  0.7818608E-02  0.1385334E+00
          2   -1    0    0  502    0  0.00000000000E+00  0.00000000000E+00  0.27145518879E+02  0.27145518879E+02  0.00000000000E+00 0. -1.
          1   -1    0    0  501    0 -0.00000000000E+00 -0.00000000000E+00 -0.16708991977E+04  0.16708991977E+04  0.00000000000E+00 0. -1.
         25    2    1    2    0    0  0.14211579780E+02 -0.28984870472E+02 -0.11224838378E+04  0.11298840467E+04  0.12500360503E+03 0.  0.
          2    1    1    2  501    0  0.46592154200E+02  0.74055562753E+02 -0.46675655003E+03  0.47488602023E+03  0.00000000000E+00 0. -1.
          1    1    1    2  502    0 -0.60803733980E+02 -0.45070692281E+02 -0.54513291054E+02  0.93274649665E+02  0.00000000000E+00 0. -1.
         22    1    3    3    0    0 -0.46517361223E+02 -0.22726387188E+02 -0.25206813950E+03  0.25732994486E+03  0.00000000000E+00 0. -1.
         22    1    3    3    0    0  0.60728941003E+02 -0.62584832841E+01 -0.87041569827E+03  0.87255410187E+03  0.00000000000E+00 0. -1.
</event>
<event>
 7    1  0.6103724E-006  0.8397014E+02  0.7818608E-02  0.1397085E+00
          2   -1    0    0  502    0  0.00000000000E+00  0.00000000000E+00  0.62681283872E+03  0.62681283872E+03  0.00000000000E+00 0. -1.
          1   -1    0    0  501    0 -0.00000000000E+00 -0.00000000000E+00 -0.36981063017E+03  0.36981063017E+03  0.00000000000E+00 0. -1.
         25    2    1    2    0    0  0.78576273896E+02 -0.11557866526E+02  0.95846386023E+02  0.17640725386E+03  0.12500069761E+03 0.  0.
          2    1    1    2  501    0 -0.11772518263E+02 -0.41489549145E+02 -0.32438474985E+03  0.32723911870E+03  0.00000000000E+00 0. -1.
          1    1    1    2  502    0 -0.66803755633E+02  0.53047415670E+02  0.48554057238E+03  0.49297709633E+03  0.00000000000E+00 0. -1.
         22    1    3    3    0    0  0.40939190601E+02 -0.60947811226E+02  0.86748338830E+02  0.11364826136E+03  0.00000000000E+00 0.  1.
         22    1    3    3    0    0  0.37637083295E+02  0.49389944701E+02  0.90980471924E+01  0.62758992497E+02  0.00000000000E+00 0.  1.
</event>
<event>
 7    1  0.6103724E-006  0.1113275E+03  0.7818608E-02  0.1266546E+00
          2   -1    0    0  502    0  0.00000000000E+00  0.00000000000E+00  0.19815088327E+03  0.19815088327E+03  0.00000000000E+00 0. -1.
          1   -1    0    0  501    0 -0.00000000000E+00 -0.00000000000E+00 -0.10769352951E+04  0.10769352951E+04  0.00000000000E+00 0. -1.
         25    2    1    2    0    0 -0.13962370211E+03  0.47623472489E+02 -0.25084255229E+03  0.31671657461E+03  0.12499851708E+03 0.  0.
          2    1    1    2  501    0  0.88644732735E+02  0.51508595927E+02 -0.77056306483E+03  0.77735349808E+03  0.00000000000E+00 0. -1.
          1    1    1    2  502    0  0.50978969371E+02 -0.99132068415E+02  0.14262120531E+03  0.18101610566E+03  0.00000000000E+00 0. -1.
         22    1    3    3    0    0  0.20807881290E+02  0.22771193069E+02 -0.45020102937E+02  0.54573847455E+02  0.00000000000E+00 0. -1.
         22    1    3    3    0    0 -0.16043158340E+03  0.24852279420E+02 -0.20582244936E+03  0.26214272716E+03  0.00000000000E+00 0. -1.
</event>
<event>
 7    1  0.6103724E-006  0.1986472E+03  0.7818608E-02  0.1242895E+00
          2   -1    0    0  502    0  0.00000000000E+00  0.00000000000E+00  0.20641508328E+03  0.20641508328E+03  0.00000000000E+00 0. -1.
          1   -1    0    0  501    0 -0.00000000000E+00 -0.00000000000E+00 -0.22573815259E+04  0.22573815259E+04  0.00000000000E+00 0. -1.
         25    2    1    2    0    0 -0.14447482609E+03  0.13476635694E+03 -0.48578803506E+03  0.53911979421E+03  0.12500076466E+03 0.  0.
          2    1    1    2  501    0  0.88312943355E+02 -0.18083401481E+03 -0.17315152862E+04  0.17431710482E+04  0.00000000000E+00 0. -1.
          1    1    1    2  502    0  0.56161882734E+02  0.46067657875E+02  0.16633687865E+03  0.18150576678E+03  0.00000000000E+00 0. -1.
         22    1    3    3    0    0  0.19777581836E+02  0.11605872004E+01 -0.66754654195E+02  0.69632489275E+02  0.00000000000E+00 0.  1.
         22    1    3    3    0    0 -0.16425240793E+03  0.13360576974E+03 -0.41903338086E+03  0.46948730494E+03  0.00000000000E+00 0.  1.
</event>
<event>
 7    1  0.6103724E-006  0.3992457E+02  0.7818608E-02  0.1581113E+00
          2   -1    0    0  502    0  0.00000000000E+00  0.00000000000E+00  0.23279845110E+03  0.23279845110E+03  0.00000000000E+00 0. -1.
          1   -1    0    0  501    0 -0.00000000000E+00 -0.00000000000E+00 -0.22245623423E+03  0.22245623423E+03  0.00000000000E+00 0. -1.
         25    2    1    2    0    0  0.19291581346E+02  0.23289642517E+02 -0.35385378474E+02  0.13341886448E+03  0.12503557826E+03 0.  0.
          2    1    1    2  501    0 -0.18288858419E+02  0.17046242076E+02 -0.13467511657E+03  0.13697606994E+03  0.00000000000E+00 0. -1.
          1    1    1    2  502    0 -0.10027229274E+01 -0.40335884594E+02  0.18040271192E+03  0.18485975091E+03  0.00000000000E+00 0. -1.
         22    1    3    3    0    0  0.25061846153E+01  0.25536872067E+02  0.44711491160E+02  0.51551238957E+02  0.00000000000E+00 0. -1.
         22    1    3    3    0    0  0.16785396731E+02 -0.22472295497E+01 -0.80096869633E+02  0.81867625525E+02  0.00000000000E+00 0. -1.
</event>
<event>
 7    1  0.6103724E-006  0.8989073E+02  0.7818608E-02  0.1427018E+00
          2   -1    0    0  502    0  0.00000000000E+00  0.00000000000E+00  0.14695121961E+04  0.14695121961E+04  0.00000000000E+00 0. -1.
          1   -1    0    0  501    0 -0.00000000000E+00 -0.00000000000E+00 -0.38852050786E+03  0.38852050786E+03  0.00000000000E+00 0. -1.
         25    2    1    2    0    0  0.87510925138E+01 -0.74057913723E+02  0.29845703161E+03  0.33205472589E+03  0.12499033989E+03 0.  0.
          2    1    1    2  501    0  0.30608243102E+02 -0.90454581237E+01 -0.36920072431E+03  0.37057773771E+03  0.00000000000E+00 0. -1.
          1    1    1    2  502    0 -0.39359335616E+02  0.83103371846E+02  0.11517353809E+04  0.11554002403E+04  0.00000000000E+00 0. -1.
         22    1    3    3    0    0  0.44105541259E+01  0.22241989415E+02  0.16971171775E+03  0.17121981843E+03  0.00000000000E+00 0.  1.
         22    1    3    3    0    0  0.43405383879E+01 -0.96299903138E+02  0.12874531386E+03  0.16083490746E+03  0.00000000000E+00 0.  1.
</event>
<event>
 7    1  0.6103724E-006  0.8121646E+02  0.7818608E-02  0.1404305E+00
          2   -1    0    0  502    0  0.00000000000E+00  0.00000000000E+00  0.18533619062E+03  0.18533619062E+03  0.00000000000E+00 0. -1.
          1   -1    0    0  501    0 -0.00000000000E+00 -0.00000000000E+00 -0.11448877226E+04  0.11448877226E+04  0.00000000000E+00 0. -1.
         25    2    1    2    0    0 -0.41643134350E+02 -0.29535403925E+02 -0.12879095591E+03  0.18660046098E+03  0.12500452388E+03 0.  0.
          2    1    1    2  501    0  0.42532452914E+02  0.71640803780E+02 -0.98256215888E+03  0.98608813520E+03  0.00000000000E+00 0. -1.
          1    1    1    2  502    0 -0.88931856374E+00 -0.42105399856E+02  0.15180158279E+03  0.15753531706E+03  0.00000000000E+00 0. -1.
         22    1    3    3    0    0 -0.11070601157E+02  0.21665889791E+01  0.24572657650E+02  0.27038265879E+02  0.00000000000E+00 0.  1.
         22    1    3    3    0    0 -0.30572533193E+02 -0.31701992904E+02 -0.15336361356E+03  0.15956219510E+03  0.00000000000E+00 0.  1.
</event>
<event>
 7    1  0.6103724E-006  0.1334754E+03  0.7818608E-02  0.1227015E+00
          2   -1    0    0  502    0  0.00000000000E+00  0.00000000000E+00  0.94888618973E+03  0.94888618973E+03  0.00000000000E+00 0. -1.
          1   -1    0    0  501    0 -0.00000000000E+00 -0.00000000000E+00 -0.31855148161E+03  0.31855148161E+03  0.00000000000E+00 0. -1.
         25    2    1    2    0    0 -0.24119384303E+03  0.57733572636E+02  0.92611726597E+02  0.29276267068E+03  0.12500165645E+03 0.  0.
          2    1    1    2  501    0  0.11370554668E+03 -0.57005621952E+02 -0.19397189432E+03  0.23195622015E+03  0.00000000000E+00 0. -1.
          1    1    1    2  502    0  0.12748829634E+03 -0.72795068341E+00  0.73169487583E+03  0.74271878052E+03  0.00000000000E+00 0. -1.
         22    1    3    3    0    0 -0.20063292768E+02 -0.30638571291E+02  0.27759122247E+02  0.45954614953E+02  0.00000000000E+00 0.  1.
         22    1    3    3    0    0 -0.22113055026E+03  0.88372143927E+02  0.64852604350E+02  0.24680805572E+03  0.00000000000E+00 0.  1.
</event>
<event>
 7    1  0.6103724E-006  0.7906777E+02  0.7818608E-02  0.1435538E+00
          2   -1    0    0  502    0  0.00000000000E+00  0.00000000000E+00  0.22388027711E+04  0.22388027711E+04  0.00000000000E+00 0. -1.
          1   -1    0    0  501    0 -0.00000000000E+00 -0.00000000000E+00 -0.24575422576E+02  0.24575422576E+02  0.00000000000E+00 0. -1.
         25    2    1    2    0    0 -0.52293897555E+02  0.20882289354E+02  0.90168709293E+03  0.91204971360E+03  0.12499737919E+03 0.  0.
          2    1    1    2  501    0  0.61377463196E+02 -0.53667386609E+02  0.67565491059E+02  0.10588898411E+03  0.00000000000E+00 0. -1.
          1    1    1    2  502    0 -0.90835656408E+01  0.32785097255E+02  0.12449747646E+04  0.12454394960E+04  0.00000000000E+00 0. -1.
         22    1    3    3    0    0 -0.46540082748E+02 -0.44551626137E+02  0.30324571367E+03  0.31001417638E+03  0.00000000000E+00 0.  1.
         22    1    3    3    0    0 -0.57538148071E+01  0.65433915491E+02  0.59844137925E+03  0.60203553723E+03  0.00000000000E+00 0.  1.
</event>
<event>
 7    1  0.6103724E-006  0.1604718E+03  0.7818608E-02  0.1223632E+00
          2   -1    0    0  502    0  0.00000000000E+00  0.00000000000E+00  0.10918364156E+04  0.10918364156E+04  0.00000000000E+00 0. -1.
          1   -1    0    0  501    0 -0.00000000000E+00 -0.00000000000E+00 -0.15111991364E+04  0.15111991364E+04  0.00000000000E+00 0. -1.
         25    2    1    2    0    0  0.22620960559E+03  0.36012968322E+02  0.36058813152E+03  0.44510367083E+03  0.12500303055E+03 0.  0.
          2    1    1    2  501    0 -0.13148379879E+03 -0.91117074611E+02 -0.14601876693E+04  0.14689242119E+04  0.00000000000E+00 0. -1.
          1    1    1    2  502    0 -0.94725806801E+02  0.55104106289E+02  0.68023681706E+03  0.68900766925E+03  0.00000000000E+00 0. -1.
         22    1    3    3    0    0  0.16010302733E+01  0.87462105311E+01  0.98342561966E+02  0.98743703549E+02  0.00000000000E+00 0.  1.
         22    1    3    3    0    0  0.22460857532E+03  0.27266757791E+02  0.26224556955E+03  0.34635996729E+03  0.00000000000E+00 0.  1.
</event>
<event>
 7    1  0.6103724E-006  0.9304967E+02  0.7818608E-02  0.1460617E+00
          2   -1    0    0  502    0  0.00000000000E+00  0.00000000000E+00  0.11588068713E+04  0.11588068713E+04  0.00000000000E+00 0. -1.
          1   -1    0    0  501    0 -0.00000000000E+00 -0.00000000000E+00 -0.92551396821E+03  0.92551396821E+03  0.00000000000E+00 0. -1.
         25    2    1    2    0    0  0.85551780281E+02 -0.74289934194E+02 -0.19762357952E+03  0.25984367700E+03  0.12500222343E+03 0.  0.
          2    1    1    2  501    0 -0.63087756547E+02  0.65787926333E+02 -0.69367066008E+03  0.69963354760E+03  0.00000000000E+00 0. -1.
          1    1    1    2  502    0 -0.22464023735E+02  0.85020078613E+01  0.11245871427E+04  0.11248436149E+04  0.00000000000E+00 0. -1.
         22    1    3    3    0    0  0.26591072831E+02  0.28828906287E+02 -0.95332727701E+02  0.10308501328E+03  0.00000000000E+00 0. -1.
         22    1    3    3    0    0  0.58960707451E+02 -0.10311884048E+03 -0.10229085182E+03  0.15675866372E+03  0.00000000000E+00 0. -1.
</event>
<event>
 7    1  0.6103724E-006  0.4290502E+02  0.7818608E-02  0.1533604E+00
          2   -1    0    0  502    0  0.00000000000E+00  0.00000000000E+00  0.29738632600E+02  0.29738632600E+02  0.00000000000E+00 0. -1.
          1   -1    0    0  501    0 -0.00000000000E+00 -0.00000000000E+00 -0.66582321377E+03  0.66582321377E+03  0.00000000000E+00 0. -1.
         25    2    1    2    0    0 -0.48101527650E+01 -0.15157475606E+02 -0.27503137418E+03  0.30252404205E+03  0.12500261036E+03 0.  0.
          2    1    1    2  501    0 -0.22817591849E+01  0.45822583418E+02 -0.35853961313E+03  0.36146309598E+03  0.00000000000E+00 0. -1.
          1    1    1    2  502    0  0.70919119500E+01 -0.30665107812E+02 -0.25135938553E+01  0.31574708332E+02  0.00000000000E+00 0. -1.
         22    1    3    3    0    0  0.57222754891E+02 -0.24280431540E+02 -0.15731244498E+03  0.16914842115E+03  0.00000000000E+00 0. -1.
         22    1    3    3    0    0 -0.62032907656E+02  0.91229559333E+01 -0.11771892920E+03  0.13337562090E+03  0.00000000000E+00 0. -1.
</event>
<event>
 7    1  0.6103724E-006  0.8095105E+02  0.7818608E-02  0.1374431E+00
          2   -1    0    0  502    0  0.00000000000E+00  0.00000000000E+00  0.57313376920E+03  0.57313376920E+03  0.00000000000E+00 0. -1.
          1   -1    0    0  501    0 -0.00000000000E+00 -0.00000000000E+00 -0.13756864777E+04  0.13756864777E+04  0.00000000000E+00 0. -1.
         25    2    1    2    0    0 -0.11531250961E+03 -0.23349837251E+02 -0.24872164071E+03  0.30220705217E+03  0.12499783219E+03 0.  0.
          2    1    1    2  501    0  0.65871152338E+02  0.44383595238E+02 -0.10974624911E+04  0.11003330549E+04  0.00000000000E+00 0. -1.
          1    1    1    2  502    0  0.49441357276E+02 -0.21033757987E+02  0.54363142332E+03  0.54628013986E+03  0.00000000000E+00 0. -1.
         22    1    3    3    0    0  0.10065355471E+02  0.23304304198E+02 -0.95439172384E+02  0.98757468580E+02  0.00000000000E+00 0.  1.
         22    1    3    3    0    0 -0.12537786508E+03 -0.46654141449E+02 -0.15328246833E+03  0.20344958359E+03  0.00000000000E+00 0.  1.
</event>
<event>
 7    1  0.6103724E-006  0.3845911E+02  0.7818608E-02  0.1541215E+00
          2   -1    0    0  502    0  0.00000000000E+00  0.00000000000E+00  0.77733608952E+03  0.77733608952E+03  0.00000000000E+00 0. -1.
          1   -1    0    0  501    0 -0.00000000000E+00 -0.00000000000E+00 -0.16753776322E+03  0.16753776322E+03  0.00000000000E+00 0. -1.
         25    2    1    2    0    0  0.42922675911E+02  0.35494332861E+02  0.23410252515E+03  0.27116538662E+03  0.12499788336E+03 0.  0.
          2    1    1    2  501    0 -0.48098392029E+01 -0.33062125133E+02 -0.14642730061E+03  0.15019052246E+03  0.00000000000E+00 0. -1.
          1    1    1    2  502    0 -0.38112836708E+02 -0.24322077278E+01  0.52212310176E+03  0.52351794367E+03  0.00000000000E+00 0. -1.
         22    1    3    3    0    0  0.86142542276E+02  0.17367012880E+02  0.17417499940E+03  0.19508736797E+03  0.00000000000E+00 0. -1.
         22    1    3    3    0    0 -0.43219866365E+02  0.18127319981E+02  0.59927525749E+02  0.76078018643E+02  0.00000000000E+00 0. -1.
</event>
<event>
 7    1  0.6103724E-006  0.3032741E+02  0.7818608E-02  0.1658332E+00
          2   -1    0    0  502    0  0.00000000000E+00  0.00000000000E+00  0.95113277184E+02  0.95113277184E+02  0.00000000000E+00 0. -1.
          1   -1    0    0  501    0 -0.00000000000E+00 -0.00000000000E+00 -0.90825159866E+03  0.90825159866E+03  0.00000000000E+00 0. -1.
         25    2    1    2    0    0 -0.30085788686E+02  0.18035383846E+02 -0.60454092402E+02  0.14320518468E+03  0.12499039115E+03 0.  0.
          2    1    1    2  501    0  0.11692920593E+02 -0.27997930631E+02 -0.80408935784E+03  0.80466160832E+03  0.00000000000E+00 0. -1.
          1    1    1    2  502    0  0.18392868093E+02  0.99625467848E+01  0.51405128770E+02  0.55498082841E+02  0.00000000000E+00 0. -1.
         22    1    3    3    0    0 -0.65423907406E+02 -0.24160426522E+02 -0.13891328505E+02  0.71112466401E+02  0.00000000000E+00 0. -1.
         22    1    3    3    0    0  0.35338118720E+02  0.42195810368E+02 -0.46562763896E+02  0.72092718279E+02  0.00000000000E+00 0. -1.
</event>
<event>
 7    1  0.6103724E-006  0.1501491E+03  0.7818608E-02  0.1412613E+00
          2   -1    0    0  502    0  0.00000000000E+00  0.00000000000E+00  0.67132938444E+03  0.67132938444E+03  0.00000000000E+00 0. -1.
          1   -1    0    0  501    0 -0.00000000000E+00 -0.00000000000E+00 -0.10173621771E+04  0.10173621771E+04  0.00000000000E+00 0. -1.
         25    2    1    2    0    0  0.12219910813E+03  0.96392965242E+02  0.30964195809E+03  0.36841144815E+03  0.12499850856E+03 0.  0.
          2    1    1    2  501    0 -0.19223128936E+02  0.92827416469E+01 -0.97147519578E+03  0.97170970665E+03  0.00000000000E+00 0. -1.
          1    1    1    2  502    0 -0.10297597919E+03 -0.10567570689E+03  0.31580044506E+03  0.34857040669E+03  0.00000000000E+00 0. -1.
         22    1    3    3    0    0  0.12030678441E+03  0.11395165389E+03  0.21145207731E+03  0.26864601765E+03  0.00000000000E+00 0. -1.
         22    1    3    3    0    0  0.18923237142E+01 -0.17558688643E+02  0.98189880783E+02  0.99765430506E+02  0.00000000000E+00 0. -1.
</event>
<event>
 7    1  0.6103724E-006  0.1112224E+03  0.7818608E-02  0.1309110E+00
          2   -1    0    0  502    0  0.00000000000E+00  0.00000000000E+00  0.25876367611E+04  0.25876367611E+04  0.00000000000E+00 0. -1.
          1   -1    0    0  501    0 -0.00000000000E+00 -0.00000000000E+00 -0.12617476836E+04  0.12617476836E+04  0.00000000000E+00 0. -1.
         25    2    1    2    0    0  0.19442992110E+02 -0.48703497594E+02  0.11695332054E+04  0.11773626120E+04  0.12499896400E+03 0.  0.
          2    1    1    2  501    0  0.98882384458E+01  0.11091790836E+03 -0.12545288720E+04  0.12594614922E+04  0.00000000000E+00 0. -1.
          1    1    1    2  502    0 -0.29331230555E+02 -0.62214410766E+02  0.14108847441E+04  0.14125603404E+04  0.00000000000E+00 0. -1.
         22    1    3    3    0    0  0.73069386618E+00 -0.24279038301E+02  0.11107342436E+04  0.11109998044E+04  0.00000000000E+00 0. -1.
         22    1    3    3    0    0  0.18712298243E+02 -0.24424459294E+02  0.58798961868E+02  0.66362807611E+02  0.00000000000E+00 0. -1.
</event>
<event>
 7    1  0.6103724E-006  0.1885133E+03  0.7818608E-02  0.1265208E+00
          2   -1    0    0  502    0  0.00000000000E+00  0.00000000000E+00  0.19964617531E+04  0.19964617531E+04  0.00000000000E+00 0. -1.
          1   -1    0    0  501    0 -0.00000000000E+00 -0.00000000000E+00 -0.77416411770E+02  0.77416411770E+02  0.00000000000E+00 0. -1.
         25    2    1    2    0    0 -0.30703725082E+02  0.14072121641E+03  0.16055558002E+03  0.24929660199E+03  0.12500208800E+03 0.  0.
          2    1    1    2  501    0  0.29958403996E+02  0.53526084447E+02  0.63054571266E+01  0.61662845181E+02  0.00000000000E+00 0. -1.
          1    1    1    2  502    0  0.74532108597E+00 -0.19424730086E+03  0.17521843042E+04  0.17629187177E+04  0.00000000000E+00 0. -1.
         22    1    3    3    0    0  0.60203037809E+01  0.11418442659E+03  0.41046731598E+02  0.12148728949E+03  0.00000000000E+00 0. -1.
         22    1    3    3    0    0 -0.36724028863E+02  0.26536789826E+02  0.11950884842E+03  0.12780931250E+03  0.00000000000E+00 0. -1.
</event>
<event>
 7    1  0.6103724E-006  0.1021442E+03  0.7818608E-02  0.1451687E+00
          2   -1    0    0  502    0  0.00000000000E+00  0.00000000000E+00  0.12224664418E+03  0.12224664418E+03  0.00000000000E+00 0. -1.
          1   -1    0    0  501    0 -0.00000000000E+00 -0.00000000000E+00 -0.25886649784E+03  0.25886649784E+03  0.00000000000E+00 0. -1.
         25    2    1    2    0    0 -0.41040630170E+02  0.82759224429E+02 -0.48913587488E+01  0.15550893078E+03  0.12500271840E+03 0.  0.
          2    1    1    2  501    0 -0.21751860809E+02  0.85037014021E+01 -0.11033422614E+03  0.11277897784E+03  0.00000000000E+00 0. -1.
          1    1    1    2  502    0  0.62792490979E+02 -0.91262925831E+02 -0.21394268779E+02  0.11282523340E+03  0.00000000000E+00 0. -1.
         22    1    3    3    0    0 -0.14857301982E+02  0.83669782113E+02 -0.53409502807E+02  0.10036905325E+03  0.00000000000E+00 0. -1.
         22    1    3    3    0    0 -0.26183328188E+02 -0.91055768350E+00  0.48518144058E+02  0.55139877522E+02  0.00000000000E+00 0. -1.
</event>
<event>
 7    1  0.7929468E-006  0.1284095E+03  0.7818608E-02  0.1286007E+00
          2   -1    0    0  502    0  0.00000000000E+00  0.00000000000E+00  0.14198673672E+04  0.14198673672E+04  0.00000000000E+00 0. -1.
          1   -1    0    0  501    0 -0.00000000000E+00 -0.00000000000E+00 -0.14162453127E+04  0.14162453127E+04  0.00000000000E+00 0. -1.
         25    2    1    2    0    0 -0.19922242076E+03 -0.17168879088E+00 -0.43300753214E+03  0.49275753781E+03  0.12499946306E+03 0.  0.
          2    1    1    2  501    0  0.72186289503E+02 -0.15238792019E+02 -0.94898269660E+03  0.95184622687E+03  0.00000000000E+00 0. -1.
          1    1    1    2  502    0  0.12703613126E+03  0.15410480809E+02  0.13856122833E+04  0.13915089152E+04  0.00000000000E+00 0. -1.
         22    1    3    3    0    0 -0.18972142527E+03  0.23705305216E+02 -0.28930880777E+03  0.34677910398E+03  0.00000000000E+00 0.  1.
         22    1    3    3    0    0 -0.95009954917E+01 -0.23876994007E+02 -0.14369872437E+03  0.14597843383E+03  0.00000000000E+00 0.  1.
</event>
<event>
 7    1  0.6103724E-006  0.7006713E+02  0.7818608E-02  0.1385658E+00
          2   -1    0    0  502    0  0.00000000000E+00  0.00000000000E+00  0.81364523570E+03  0.81364523570E+03  0.00000000000E+00 0. -1.
          1   -1    0    0  501    0 -0.00000000000E+00 -0.00000000000E+00 -0.82985723142E+03  0.82985723142E+03  0.00000000000E+00 0. -1.
         25    2    1    2    0    0  0.11459786173E+03 -0.42187804718E+02 -0.21892981152E+03  0.28012512425E+03  0.12500936800E+03 0.  0.
          2    1    1    2  501    0 -0.65310926304E+02  0.14269442633E+02 -0.57737415819E+03  0.58123149660E+03  0.00000000000E+00 0. -1.
          1    1    1    2  502    0 -0.49286935422E+02  0.27918362085E+02  0.78009197399E+03  0.78214584627E+03  0.00000000000E+00 0. -1.
         22    1    3    3    0    0  0.13119526479E+03 -0.27562568891E+02 -0.22038423747E+03  0.25795562570E+03  0.00000000000E+00 0.  1.
         22    1    3    3    0    0 -0.16597403060E+02 -0.14625235827E+02  0.14544259465E+01  0.22169498555E+02  0.00000000000E+00 0.  1.
</event>
<event>
 7    1  0.6103724E-006  0.4106235E+02  0.7818608E-02  0.1547939E+00
          2   -1    0    0  502    0  0.00000000000E+00  0.00000000000E+00  0.76293836347E+02  0.76293836347E+02  0.00000000000E+00 0. -1.
          1   -1    0    0  501    0 -0.00000000000E+00 -0.00000000000E+00 -0.12178870897E+04  0.12178870897E+04  0.00000000000E+00 0. -1.
         25    2    1    2    0    0 -0.33608362053E+02  0.55196866888E+02 -0.12614620449E+03  0.18898100261E+03  0.12499895330E+03 0.  0.
          2    1    1    2  501    0  0.25220004707E+02 -0.16172597781E+02 -0.10511918372E+04  0.10516186952E+04  0.00000000000E+00 0. -1.
          1    1    1    2  502    0  0.83883573459E+01 -0.39024269107E+02  0.35744788364E+02  0.53581228182E+02  0.00000000000E+00 0. -1.
         22    1    3    3    0    0 -0.44634590182E+02 -0.21587301375E+02 -0.12069810383E+02  0.51028801123E+02  0.00000000000E+00 0. -1.
         22    1    3    3    0    0  0.11026228129E+02  0.76784168263E+02 -0.11407639410E+03  0.13795220148E+03  0.00000000000E+00 0. -1.
</event>
<event>
 7    1  0.6103724E-006  0.7519121E+02  0.7818608E-02  0.1476033E+00
          2   -1    0    0  502    0  0.00000000000E+00  0.00000000000E+00  0.18994230541E+04  0.18994230541E+04  0.00000000000E+00 0. -1.
          1   -1    0    0  501    0 -0.00000000000E+00 -0.00000000000E+00 -0.30180713994E+03  0.30180713994E+03  0.00000000000E+00 0. -1.
         25    2    1    2    0    0  0.16042186765E+02  0.54192684963E+02  0.87568843964E+03  0.88636790634E+03  0.12499449271E+03 0.  0.
          2    1    1    2  501    0 -0.52711359975E+01  0.26082046179E+02 -0.29425572556E+03  0.29545640970E+03  0.00000000000E+00 0. -1.
          1    1    1    2  502    0 -0.10771050767E+02 -0.80274731142E+02  0.10161832001E+04  0.10194058780E+04  0.00000000000E+00 0. -1.
         22    1    3    3    0    0 -0.25119623143E+02  0.12714308899E+02  0.71208900513E+03  0.71264535384E+03  0.00000000000E+00 0. -1.
         22    1    3    3    0    0  0.41161809908E+02  0.41478376064E+02  0.16359943451E+03  0.17372255250E+03  0.00000000000E+00 0. -1.
</event>
<event>
 7    1  0.6103724E-006  0.6779097E+02  0.7818608E-02  0.1381369E+00
          2   -1    0    0  502    0  0.00000000000E+00  0.00000000000E+00  0.82323292041E+03  0.82323292041E+03  0.00000000000E+00 0. -1.
          1   -1    0    0  501    0 -0.00000000000E+00 -0.00000000000E+00 -0.23516247827E+03  0.23516247827E+03  0.00000000000E+00 0. -1.
         25    2    1    2    0    0 -0.95802873965E+02  0.80165958265E+02  0.43341416687E+03  0.46805729490E+03  0.12500007896E+03 0.  0.
          2    1    1    2  501    0  0.41855816609E+02 -0.52516836494E+02 -0.21010361874E+03  0.22057528898E+03  0.00000000000E+00 0. -1.
          1    1    1    2  502    0  0.53947057357E+02 -0.27649121771E+02  0.36475989401E+03  0.36976281480E+03  0.00000000000E+00 0. -1.
         22    1    3    3    0    0 -0.15463989111E+01 -0.38068169099E+01  0.22046397665E+03  0.22050226349E+03  0.00000000000E+00 0.  1.
         22    1    3    3    0    0 -0.94256475054E+02  0.83972775174E+02  0.21295019022E+03  0.24755503141E+03  0.00000000000E+00 0.  1.
</event>
<event>
 7    1  0.6103724E-006  0.9610610E+02  0.7818608E-02  0.1295505E+00
          2   -1    0    0  502    0  0.00000000000E+00  0.00000000000E+00  0.63726422482E+02  0.63726422482E+02  0.00000000000E+00 0. -1.
          1   -1    0    0  501    0 -0.00000000000E+00 -0.00000000000E+00 -0.79420959206E+03  0.79420959206E+03  0.00000000000E+00 0. -1.
         25    2    1    2    0    0 -0.18838583892E+02  0.20133564867E+02 -0.27056332999E+03  0.29932040992E+03  0.12501175776E+03 0.  0.
          2    1    1    2  501    0 -0.87494282305E+02  0.21905920091E+02 -0.43145832414E+03  0.44078498640E+03  0.00000000000E+00 0. -1.
          1    1    1    2  502    0  0.10633286620E+03 -0.42039484958E+02 -0.28461515450E+02  0.11783061822E+03  0.00000000000E+00 0. -1.
         22    1    3    3    0    0 -0.24086487191E+02 -0.44806633025E+02 -0.18445788317E+03  0.19134394136E+03  0.00000000000E+00 0.  1.
         22    1    3    3    0    0  0.52479032990E+01  0.64940197893E+02 -0.86105446820E+02  0.10797646856E+03  0.00000000000E+00 0.  1.
</event>
<event>
 7    1  0.6103724E-006  0.5558538E+02  0.7818608E-02  0.1419166E+00
          2   -1    0    0  502    0  0.00000000000E+00  0.00000000000E+00  0.16546946633E+03  0.16546946633E+03  0.00000000000E+00 0. -1.
          1   -1    0    0  501    0 -0.00000000000E+00 -0.00000000000E+00 -0.11951392249E+04  0.11951392249E+04  0.00000000000E+00 0. -1.
         25    2    1    2    0    0 -0.55421524624E+01 -0.48309497678E+02 -0.41830490594E+02  0.14050033451E+03  0.12500412407E+03 0.  0.
          2    1    1    2  501    0 -0.46548007972E+02  0.31249371951E+02 -0.10967500983E+04  0.10981821426E+04  0.00000000000E+00 0. -1.
          1    1    1    2  502    0  0.52090160435E+02  0.17060125727E+02  0.10891083035E+03  0.12192621405E+03  0.00000000000E+00 0. -1.
         22    1    3    3    0    0  0.36615180778E+02  0.19781087149E+02 -0.43763690173E+02  0.60392246603E+02  0.00000000000E+00 0.  1.
         22    1    3    3    0    0 -0.42157333240E+02 -0.68090584827E+02  0.19331995791E+01  0.80108087910E+02  0.00000000000E+00 0.  1.
</event>
<event>
 7    1  0.6103724E-006  0.1890390E+03  0.7818608E-02  0.1271257E+00
          2   -1    0    0  502    0  0.00000000000E+00  0.00000000000E+00  0.10279912956E+04  0.10279912956E+04  0.00000000000E+00 0. -1.
          1   -1    0    0  501    0 -0.00000000000E+00 -0.00000000000E+00 -0.48120083955E+03  0.48120083955E+03  0.00000000000E+00 0. -1.
         25    2    1    2    0    0 -0.15603386419E+03 -0.50763925180E+02  0.40790309639E+03  0.45709051908E+03  0.12499305467E+03 0.  0.
          2    1    1    2  501    0  0.19044284704E+03  0.44663048753E+01 -0.43523022004E+03  0.47509343324E+03  0.00000000000E+00 0. -1.
          1    1    1    2  502    0 -0.34408982855E+02  0.46297620305E+02  0.57411757974E+03  0.57700818288E+03  0.00000000000E+00 0. -1.
         22    1    3    3    0    0 -0.14471029366E+03 -0.18104337821E+02  0.20687889696E+03  0.25311600926E+03  0.00000000000E+00 0. -1.
         22    1    3    3    0    0 -0.11323570522E+02 -0.32659587359E+02  0.20102419944E+03  0.20397450982E+03  0.00000000000E+00 0. -1.
</event>
<event>
 7    1  0.6103724E-006  0.7748361E+02  0.7818608E-02  0.1462889E+00
          2   -1    0    0  502    0  0.00000000000E+00  0.00000000000E+00  0.67022339948E+03  0.67022339948E+03  0.00000000000E+00 0. -1.
          1   -1    0    0  501    0 -0.00000000000E+00 -0.00000000000E+00 -0.96591265199E+03  0.96591265199E+03  0.00000000000E+00 0. -1.
         25    2    1    2    0    0 -0.19653856521E+02  0.10220927633E+03  0.10018703527E+03  0.19103883671E+03  0.12500153939E+03 0.  0.
          2    1    1    2  501    0  0.22154330052E+02 -0.73946275593E+02 -0.91848284430E+03  0.92172099970E+03  0.00000000000E+00 0. -1.
          1    1    1    2  502    0 -0.25004735313E+01 -0.28263000742E+02  0.52260655652E+03  0.52337621506E+03  0.00000000000E+00 0. -1.
         22    1    3    3    0    0  0.45025625481E+02  0.47961339214E+01  0.21718355399E+02  0.50219486376E+02  0.00000000000E+00 0. -1.
         22    1    3    3    0    0 -0.64679482002E+02  0.97413142413E+02  0.78468679870E+02  0.14081935033E+03  0.00000000000E+00 0. -1.
</event>
<event>
 7    1  0.6103724E-006  0.5831605E+02  0.7818608E-02  0.1484915E+00
          2   -1    0    0  502    0  0.00000000000E+00  0.00000000000E+00  0.10976907639E+04  0.10976907639E+04  0.00000000000E+00 0. -1.
          1   -1    0    0  501    0 -0.00000000000E+00 -0.00000000000E+00 -0.14606383479E+03  0.14606383479E+03  0.00000000000E+00 0. -1.
         25    2    1    2    0    0 -0.77832671612E-01  0.48532718197E+02  0.88417821982E+02  0.16061987166E+03  0.12500240452E+03 0.  0.
          2    1    1    2  501    0 -0.32219802329E+02  0.54184512549E+00 -0.10669392949E+03  0.11145404366E+03  0.00000000000E+00 0. -1.
          1    1    1    2  502    0  0.32297635001E+02 -0.49074563322E+02  0.96990303659E+03  0.97168068334E+03  0.00000000000E+00 0. -1.
         22    1    3    3    0    0  0.54540802815E+02  0.53187607051E+02  0.34153565043E+02  0.83487045227E+02  0.00000000000E+00 0. -1.
         22    1    3    3    0    0 -0.54618635487E+02 -0.46548888549E+01  0.54264256939E+02  0.77132826435E+02  0.00000000000E+00 0. -1.
</event>
<event>
 7    1  0.6103724E-006  0.7537794E+02  0.7818608E-02  0.1386678E+00
          2   -1    0    0  502    0  0.00000000000E+00  0.00000000000E+00  0.21283628875E+04  0.21283628875E+04  0.00000000000E+00 0. -1.
          1   -1    0    0  501    0 -0.00000000000E+00 -0.00000000000E+00 -0.94379595929E+03  0.94379595929E+03  0.00000000000E+00 0. -1.
         25    2    1    2    0    0  0.11126484216E+03 -0.52619837170E+02  0.48776635502E+03  0.51835407120E+03  0.12500485461E+03 0.  0.
          2    1    1    2  501    0 -0.41391339560E+02  0.31841241555E+02 -0.92694941315E+03  0.92841925992E+03  0.00000000000E+00 0. -1.
          1    1    1    2  502    0 -0.69873502599E+02  0.20778595615E+02  0.16237499864E+04  0.16253855157E+04  0.00000000000E+00 0. -1.
         22    1    3    3    0    0  0.23060767659E+02 -0.42400348286E+02  0.35725673474E+03  0.36050237594E+03  0.00000000000E+00 0.  1.
         22    1    3    3    0    0  0.88204074500E+02 -0.10219488884E+02  0.13050962028E+03  0.15785169526E+03  0.00000000000E+00 0.  1.
</event>
<event>
 7    1  0.6103724E-006  0.6915031E+02  0.7818608E-02  0.1366636E+00
          2   -1    0    0  502    0  0.00000000000E+00  0.00000000000E+00  0.99686953481E+03  0.99686953481E+03  0.00000000000E+00 0. -1.
          1   -1    0    0  501    0 -0.00000000000E+00 -0.00000000000E+00 -0.43578720129E+02  0.43578720129E+02  0.00000000000E+00 0. -1.
         25    2    1    2    0    0 -0.45777639468E+02 -0.81824925251E+02  0.39614244330E+03  0.42584618249E+03  0.12500090036E+03 0.  0.
          2    1    1    2  501    0 -0.20873703708E+02  0.63757756194E+02  0.15873826810E+02  0.68940128800E+02  0.00000000000E+00 0. -1.
          1    1    1    2  502    0  0.66651343176E+02  0.18067169057E+02  0.54127454457E+03  0.54566194365E+03  0.00000000000E+00 0. -1.
         22    1    3    3    0    0 -0.44897705037E+02 -0.87261569339E+02  0.40428003257E+03  0.41602010785E+03  0.00000000000E+00 0. -1.
         22    1    3    3    0    0 -0.87993443081E+00  0.54366440888E+01 -0.81375892744E+01  0.98260746358E+01  0.00000000000E+00 0. -1.
</event>
<event>
 7    1  0.6103724E-006  0.3468869E+02  0.7818608E-02  0.1617396E+00
          2   -1    0    0  502    0  0.00000000000E+00  0.00000000000E+00  0.29828083559E+02  0.29828083559E+02  0.00000000000E+00 0. -1.
          1   -1    0    0  501    0 -0.00000000000E+00 -0.00000000000E+00 -0.63003354753E+03  0.63003354753E+03  0.00000000000E+00 0. -1.
         25    2    1    2    0    0 -0.63252356897E-01  0.44093495087E+02 -0.23908170979E+03  0.27336697115E+03  0.12500078660E+03 0.  0.
          2    1    1    2  501    0  0.17983889611E+02 -0.29475859278E+02 -0.36171648914E+03  0.36336079189E+03  0.00000000000E+00 0. -1.
          1    1    1    2  502    0 -0.17920637254E+02 -0.14617635810E+02  0.59273495669E+00  0.23133868051E+02  0.00000000000E+00 0. -1.
         22    1    3    3    0    0 -0.14613014453E+02  0.69420520847E+02 -0.62995203466E+02  0.94874362004E+02  0.00000000000E+00 0. -1.
         22    1    3    3    0    0  0.14549762097E+02 -0.25327025759E+02 -0.17608650632E+03  0.17849260914E+03  0.00000000000E+00 0. -1.
</event>
<event>
 7    1  0.6103724E-006  0.1213801E+03  0.7818608E-02  0.1317600E+00
          2   -1    0    0  502    0  0.00000000000E+00  0.00000000000E+00  0.62665806400E+02  0.62665806400E+02  0.00000000000E+00 0. -1.
          1   -1    0    0  501    0 -0.00000000000E+00 -0.00000000000E+00 -0.15719331797E+04  0.15719331797E+04  0.00000000000E+00 0. -1.
         25    2    1    2    0    0  0.10972078764E+03  0.83238441777E+02 -0.36360627924E+03  0.40841213616E+03  0.12499462883E+03 0.  0.
          2    1    1    2  501    0 -0.11794858513E+03 -0.25445010439E+02 -0.11598512639E+04  0.11661107459E+04  0.00000000000E+00 0. -1.
          1    1    1    2  502    0  0.82277974816E+01 -0.57793431339E+02  0.14190169843E+02  0.60076104047E+02  0.00000000000E+00 0. -1.
         22    1    3    3    0    0  0.52868777743E+02  0.66393398397E+02 -0.73394848736E+02  0.11220514619E+03  0.00000000000E+00 0.  1.
         22    1    3    3    0    0  0.56852009902E+02  0.16845043381E+02 -0.29021143050E+03  0.29620698997E+03  0.00000000000E+00 0.  1.
</event>
<event>
 7    1  0.6103724E-006  0.1100740E+03  0.7818608E-02  0.1387399E+00
          2   -1    0    0  502    0  0.00000000000E+00  0.00000000000E+00  0.22963380985E+04  0.22963380985E+04  0.00000000000E+00 0. -1.
          1   -1    0    0  501    0 -0.00000000000E+00 -0.00000000000E+00 -0.25326052046E+03  0.25326052046E+03  0.00000000000E+00 0. -1.
         25    2    1    2    0    0 -0.67585548912E+02  0.33416771963E+02  0.26016208881E+02  0.14828417647E+03  0.12500746696E+03 0.  0.
          2    1    1    2  501    0 -0.30437148325E+02  0.18375328355E+02 -0.18907776411E+03  0.19239145919E+03  0.00000000000E+00 0. -1.
          1    1    1    2  502    0  0.98022697237E+02 -0.51792100318E+02  0.22061391333E+04  0.22089229833E+04  0.00000000000E+00 0. -1.
         22    1    3    3    0    0 -0.12398848155E+02 -0.17478481044E+02  0.61588484883E+02  0.65210200163E+02  0.00000000000E+00 0. -1.
         22    1    3    3    0    0 -0.55186700757E+02  0.50895253007E+02 -0.35572276002E+02  0.83073976304E+02  0.00000000000E+00 0. -1.
</event>
<event>
 7    1  0.6103724E-006  0.4413033E+02  0.7818608E-02  0.1559528E+00
          2   -1    0    0  502    0  0.00000000000E+00  0.00000000000E+00  0.16230116898E+03  0.16230116898E+03  0.00000000000E+00 0. -1.
          1   -1    0    0  501    0 -0.00000000000E+00 -0.00000000000E+00 -0.19797331876E+03  0.19797331876E+03  0.00000000000E+00 0. -1.
         25    2    1    2    0    0 -0.53028706003E+02 -0.19597434984E+02  0.73986653649E+02  0.15587751568E+03  0.12501068697E+03 0.  0.
          2    1    1    2  501    0  0.23594246513E+02 -0.10651232923E+02 -0.14625857608E+03  0.14853184274E+03  0.00000000000E+00 0. -1.
          1    1    1    2  502    0  0.29434459489E+02  0.30248667907E+02  0.36599772651E+02  0.55865129318E+02  0.00000000000E+00 0. -1.
         22    1    3    3    0    0 -0.54288883009E+02 -0.50535617705E+01  0.10682805182E+03  0.11993770867E+03  0.00000000000E+00 0. -1.
         22    1    3    3    0    0  0.12601770062E+01 -0.14543873214E+02 -0.32841398170E+02  0.35939807010E+02  0.00000000000E+00 0. -1.
</event>
<event>
 7    1  0.6103724E-006  0.1686459E+03  0.7818608E-02  0.1206133E+00
          2   -1    0    0  502    0  0.00000000000E+00  0.00000000000E+00  0.17665288272E+04  0.17665288272E+04  0.00000000000E+00 0. -1.
          1   -1    0    0  501    0 -0.00000000000E+00 -0.00000000000E+00 -0.28489089721E+03  0.28489089721E+03  0.00000000000E+00 0. -1.
         25    2    1    2    0    0 -0.16506189262E+03 -0.16323052872E+03  0.12920462434E+04  0.13186730440E+04  0.12500187142E+03 0.  0.
          2    1    1    2  501    0  0.11828118611E+03  0.41968211789E+02 -0.24708749291E+03  0.27713534409E+03  0.00000000000E+00 0. -1.
          1    1    1    2  502    0  0.46780706508E+02  0.12126231693E+03  0.43667917948E+03  0.45561133634E+03  0.00000000000E+00 0. -1.
         22    1    3    3    0    0 -0.44069143070E+02  0.17656176245E+01  0.44868687666E+03  0.45084933189E+03  0.00000000000E+00 0. -1.
         22    1    3    3    0    0 -0.12099274955E+03 -0.16499614634E+03  0.84335936674E+03  0.86782371207E+03  0.00000000000E+00 0. -1.
</event>
<event>
 7    1  0.6103724E-006  0.9925651E+02  0.7818608E-02  0.1429413E+00
          2   -1    0    0  502    0  0.00000000000E+00  0.00000000000E+00  0.92540457098E+02  0.92540457098E+02  0.00000000000E+00 0. -1.
          1   -1    0    0  501    0 -0.00000000000E+00 -0.00000000000E+00 -0.67042583003E+03  0.67042583003E+03  0.00000000000E+00 0. -1.
         25    2    1    2    0    0 -0.72943091329E+02 -0.96209498237E+02 -0.38676593680E+03  0.42401608191E+03  0.12499914290E+03 0.  0.
          2    1    1    2  501    0  0.28596765147E+01  0.28239276604E+02 -0.23154743987E+03  0.23328062801E+03  0.00000000000E+00 0. -1.
          1    1    1    2  502    0  0.70083414815E+02  0.67970221633E+02  0.40428003741E+02  0.10566957721E+03  0.00000000000E+00 0. -1.
         22    1    3    3    0    0  0.21264160459E+02 -0.25042994641E+02 -0.19421454728E+02  0.38164237244E+02  0.00000000000E+00 0.  1.
         22    1    3    3    0    0 -0.94207251789E+02 -0.71166503595E+02 -0.36734448207E+03  0.38585184467E+03  0.00000000000E+00 0.  1.
</event>
<event>
 7    1  0.6103724E-006  0.3070061E+02  0.7818608E-02  0.1617117E+00
          2   -1    0    0  502    0  0.00000000000E+00  0.00000000000E+00  0.34008196989E+03  0.34008196989E+03  0.00000000000E+00 0. -1.
          1   -1    0    0  501    0 -0.00000000000E+00 -0.00000000000E+00 -0.12346649727E+03  0.12346649727E+03  0.00000000000E+00 0. -1.
         25    2    1    2    0    0 -0.39585798891E+02  0.30664892837E+02  0.21474405111E+02  0.13636779793E+03  0.12501061999E+03 0.  0.
          2    1    1    2  501    0  0.29314314417E+02 -0.65912638390E+01 -0.61901912885E+02  0.68808579462E+02  0.00000000000E+00 0. -1.
          1    1    1    2  502    0  0.10271484474E+02 -0.24073628998E+02  0.25704298039E+03  0.25837208978E+03  0.00000000000E+00 0. -1.
         22    1    3    3    0    0 -0.62831075801E+02  0.59186034393E+02 -0.11349450322E+02  0.87060558097E+02  0.00000000000E+00 0.  1.
         22    1    3    3    0    0  0.23245276910E+02 -0.28521141556E+02  0.32823855433E+02  0.49307239831E+02  0.00000000000E+00 0.  1.
</event>
<event>
 7    1  0.6103724E-006  0.5506034E+02  0.7818608E-02  0.1507363E+00
          2   -1    0    0  502    0  0.00000000000E+00  0.00000000000E+00  0.17449319552E+03  0.17449319552E+03  0.00000000000E+00 0. -1.
          1   -1    0    0  501    0 -0.00000000000E+00 -0.00000000000E+00 -0.14521854562E+04  0.14521854562E+04  0.00000000000E+00 0. -1.
         25    2    1    2    0    0  0.70053890084E+02 -0.24857936895E+02  0.20400837657E+02  0.14685879960E+03  0.12500339315E+03 0.  0.
          2    1    1    2  501    0 -0.28174324274E+02 -0.77734919305E+01 -0.13810332917E+04  0.13813425254E+04  0.00000000000E+00 0. -1.
          1    1    1    2  502    0 -0.41879565810E+02  0.32631428825E+02  0.82940193423E+02  0.98477326653E+02  0.00000000000E+00 0. -1.
         22    1    3    3    0    0  0.55557566028E+01  0.21111317124E+02  0.55939107763E+02  0.60047796958E+02  0.00000000000E+00 0. -1.
         22    1    3    3    0    0  0.64498133481E+02 -0.45969254018E+02 -0.35538270106E+02  0.86811002642E+02  0.00000000000E+00 0. -1.
</event>
<event>
 7    1  0.6103724E-006  0.1936720E+03  0.7818608E-02  0.1213286E+00
          2   -1    0    0  502    0  0.00000000000E+00  0.00000000000E+00  0.97815535473E+03  0.97815535473E+03  0.00000000000E+00 0. -1.
          1   -1    0    0  501    0 -0.00000000000E+00 -0.00000000000E+00 -0.13082025673E+04  0.13082025673E+04  0.00000000000E+00 0. -1.
         25    2    1    2    0    0  0.21225454824E+03  0.98851421981E+02  0.93532816607E+02  0.28142078729E+03  0.12500269942E+03 0.  0.
          2    1    1    2  501    0 -0.19287990188E+03  0.52592916999E+00 -0.12033052101E+04  0.12186658122E+04  0.00000000000E+00 0. -1.
          1    1    1    2  502    0 -0.19374646358E+02 -0.99377351151E+02  0.77972518093E+03  0.78627132252E+03  0.00000000000E+00 0. -1.
         22    1    3    3    0    0  0.98856853244E+02  0.61170962868E+02 -0.18388791187E+02  0.11769754361E+03  0.00000000000E+00 0. -1.
         22    1    3    3    0    0  0.11339769500E+03  0.37680459113E+02  0.11192160779E+03  0.16372324368E+03  0.00000000000E+00 0. -1.
</event>
<event>
 7    1  0.6103724E-006  0.7049387E+02  0.7818608E-02  0.1376205E+00
          2   -1    0    0  502    0  0.00000000000E+00  0.00000000000E+00  0.33255296290E+03  0.33255296290E+03  0.00000000000E+00 0. -1.
          1   -1    0    0  501    0 -0.00000000000E+00 -0.00000000000E+00 -0.67035365539E+03  0.67035365539E+03  0.00000000000E+00 0. -1.
         25    2    1    2    0    0 -0.10075251249E+02  0.12963691811E+03 -0.23441266084E+03  0.29577168535E+03  0.12499741224E+03 0.  0.
          2    1    1    2  501    0 -0.19103898740E+00 -0.60807328677E+02 -0.39891597185E+03  0.40352387824E+03  0.00000000000E+00 0. -1.
          1    1    1    2  502    0  0.10266290236E+02 -0.68829589436E+02  0.29552794019E+03  0.30361105469E+03  0.00000000000E+00 0. -1.
         22    1    3    3    0    0 -0.10743010964E+02  0.16794888107E+02  0.13026938818E+02  0.23815576543E+02  0.00000000000E+00 0.  1.
         22    1    3    3    0    0  0.66775971501E+00  0.11284203001E+03 -0.24743959965E+03  0.27195610880E+03  0.00000000000E+00 0.  1.
</event>
<event>
 7    1  0.6103724E-006  0.7546475E+02  0.7818608E-02  0.1370941E+00
          2   -1    0    0  502    0  0.00000000000E+00  0.00000000000E+00  0.20752211359E+04  0.20752211359E+04  0.00000000000E+00 0. -1.
          1   -1    0    0  501    0 -0.00000000000E+00 -0.00000000000E+00 -0.64240876661E+03  0.64240876661E+03  0.00000000000E+00 0. -1.
         25    2    1    2    0    0 -0.52405468494E+02  0.93098247616E+02  0.10210415179E+04  0.10341975112E+04  0.12500037630E+03 0.  0.
          2    1    1    2  501    0 -0.10602264068E+02 -0.58363204748E+02 -0.63320762160E+03  0.63598000261E+03  0.00000000000E+00 0. -1.
          1    1    1    2  502    0  0.63007732562E+02 -0.34735042867E+02  0.10449784730E+04  0.10474523887E+04  0.00000000000E+00 0. -1.
         22    1    3    3    0    0 -0.69795658216E+02  0.25708778285E+02  0.77320497008E+03  0.77677429214E+03  0.00000000000E+00 0. -1.
         22    1    3    3    0    0  0.17390189721E+02  0.67389469331E+02  0.24783654782E+03  0.25742321906E+03  0.00000000000E+00 0. -1.
</event>
<event>
 7    1  0.6103724E-006  0.1154032E+03  0.7818608E-02  0.1280971E+00
          2   -1    0    0  502    0  0.00000000000E+00  0.00000000000E+00  0.85965161967E+03  0.85965161967E+03  0.00000000000E+00 0. -1.
          1   -1    0    0  501    0 -0.00000000000E+00 -0.00000000000E+00 -0.47674315575E+03  0.47674315575E+03  0.00000000000E+00 0. -1.
         25    2    1    2    0    0 -0.12043288844E+03 -0.14920355429E+03 -0.29810588864E+02  0.23082569277E+03  0.12500419194E+03 0.  0.
          2    1    1    2  501    0  0.81536111551E+02  0.72392594831E+02 -0.33531446229E+03  0.35259695673E+03  0.00000000000E+00 0. -1.
          1    1    1    2  502    0  0.38896776891E+02  0.76810959461E+02  0.74803351507E+03  0.75297212592E+03  0.00000000000E+00 0. -1.
         22    1    3    3    0    0 -0.97589262102E+02 -0.12716707634E+03  0.30032622245E+02  0.16308613608E+03  0.00000000000E+00 0.  1.
         22    1    3    3    0    0 -0.22843626341E+02 -0.22036477957E+02 -0.59843211109E+02  0.67739556693E+02  0.00000000000E+00 0.  1.
</event>
<event>
 7    1  0.6103724E-006  0.6315332E+02  0.7818608E-02  0.1514986E+00
          2   -1    0    0  502    0  0.00000000000E+00  0.00000000000E+00  0.15015544660E+04  0.15015544660E+04  0.00000000000E+00 0. -1.
          1   -1    0    0  501    0 -0.00000000000E+00 -0.00000000000E+00 -0.23411201477E+02  0.23411201477E+02  0.00000000000E+00 0. -1.
         25    2    1    2    0    0  0.48029441357E+02  0.59087537154E+01  0.26643723880E+03  0.29825434415E+03  0.12500044391E+03 0.  0.
          2    1    1    2  501    0 -0.71593403841E+02 -0.11422982435E+02  0.17112649090E+03  0.18585041267E+03  0.00000000000E+00 0. -1.
          1    1    1    2  502    0  0.23563962484E+02  0.55142287200E+01  0.10405795348E+04  0.10408609106E+04  0.00000000000E+00 0. -1.
         22    1    3    3    0    0  0.61854725616E+02  0.32144776946E+02  0.25824486606E+03  0.26748776535E+03  0.00000000000E+00 0. -1.
         22    1    3    3    0    0 -0.13825284259E+02 -0.26236023231E+02  0.81923727389E+01  0.30766578798E+02  0.00000000000E+00 0. -1.
</event>
<event>
 7    1  0.6103724E-006  0.1149163E+03  0.7818608E-02  0.1281920E+00
          2   -1    0    0  502    0  0.00000000000E+00  0.00000000000E+00  0.38318405778E+03  0.38318405778E+03  0.00000000000E+00 0. -1.
          1   -1    0    0  501    0 -0.00000000000E+00 -0.00000000000E+00 -0.80778187797E+03  0.80778187797E+03  0.00000000000E+00 0. -1.
         25    2    1    2    0    0  0.15402412343E+03 -0.12010439000E+03 -0.20250810411E+03  0.30786951429E+03  0.12500244199E+03 0.  0.
          2    1    1    2  501    0 -0.75750359158E+02  0.40052620927E+02 -0.53963292302E+03  0.54639365018E+03  0.00000000000E+00 0. -1.
          1    1    1    2  502    0 -0.78273764268E+02  0.80051769074E+02  0.31754320694E+03  0.33670277127E+03  0.00000000000E+00 0. -1.
         22    1    3    3    0    0 -0.95383565852E+01 -0.12298980469E+02  0.10270449265E+02  0.18647447413E+02  0.00000000000E+00 0.  1.
         22    1    3    3    0    0  0.16356248001E+03 -0.10780540953E+03 -0.21277855338E+03  0.28922206688E+03  0.00000000000E+00 0.  1.
</event>
<event>
 7    1  0.6103724E-006  0.4087846E+02  0.7818608E-02  0.1540943E+00
          2   -1    0    0  502    0  0.00000000000E+00  0.00000000000E+00  0.16138564494E+04  0.16138564494E+04  0.00000000000E+00 0. -1.
          1   -1    0    0  501    0 -0.00000000000E+00 -0.00000000000E+00 -0.39018479781E+02  0.39018479781E+02  0.00000000000E+00 0. -1.
         25    2    1    2    0    0  0.71652148924E+01 -0.13884204059E+02  0.41527647433E+03  0.43396290255E+03  0.12500055695E+03 0.  0.
          2    1    1    2  501    0  0.89894818236E+01  0.40912798055E+02 -0.14576046665E+02  0.44352327611E+02  0.00000000000E+00 0. -1.
          1    1    1    2  502    0 -0.16154696716E+02 -0.27028593996E+02  0.11741375420E+04  0.11745596991E+04  0.00000000000E+00 0. -1.
         22    1    3    3    0    0 -0.49201760916E+02 -0.42224875868E+01  0.31222592867E+03  0.31610705973E+03  0.00000000000E+00 0.  1.
         22    1    3    3    0    0  0.56366975808E+02 -0.96617164723E+01  0.10305054565E+03  0.11785584282E+03  0.00000000000E+00 0.  1.
</event>
<event>
 7    1  0.6103724E-006  0.1167381E+03  0.7818608E-02  0.1382165E+00
          2   -1    0    0  502    0  0.00000000000E+00  0.00000000000E+00  0.54988919027E+03  0.54988919027E+03  0.00000000000E+00 0. -1.
          1   -1    0    0  501    0 -0.00000000000E+00 -0.00000000000E+00 -0.47648669553E+03  0.47648669553E+03  0.00000000000E+00 0. -1.
         25    2    1    2    0    0 -0.37487644536E+02  0.73886597490E+02 -0.21737181470E+03  0.26408054563E+03  0.12499390375E+03 0.  0.
          2    1    1    2  501    0 -0.12161075970E+02  0.32793022078E+02 -0.22783545605E+03  0.23050437979E+03  0.00000000000E+00 0. -1.
          1    1    1    2  502    0  0.49648720506E+02 -0.10667961957E+03  0.51860976549E+03  0.53179096038E+03  0.00000000000E+00 0. -1.
         22    1    3    3    0    0  0.31198102556E+02  0.73995594451E+02 -0.10209770913E+03  0.12989461810E+03  0.00000000000E+00 0.  1.
         22    1    3    3    0    0 -0.68685747092E+02 -0.10899696049E+00 -0.11527410556E+03  0.13418592753E+03  0.00000000000E+00 0.  1.
</event>
<event>
 7    1  0.7369263E-006  0.7996189E+02  0.7818608E-02  0.1336854E+00
          2   -1    0    0  502    0  0.00000000000E+00  0.00000000000E+00  0.27460748490E+04  0.27460748490E+04  0.00000000000E+00 0. -1.
          1   -1    0    0  501    0 -0.00000000000E+00 -0.00000000000E+00 -0.16418864801E+04  0.16418864801E+04  0.00000000000E+00 0. -1.
         25    2    1    2    0    0 -0.68521846614E+02 -0.27647368577E+02 -0.94937891395E+02  0.17348436898E+03  0.12499601036E+03 0.  0.
          2    1    1    2  501    0  0.54423216676E+02 -0.51244082957E+02 -0.15061550220E+04  0.15080088836E+04  0.00000000000E+00 0. -1.
          1    1    1    2  502    0  0.14098629938E+02  0.78891451535E+02  0.27052812823E+04  0.27064680765E+04  0.00000000000E+00 0. -1.
         22    1    3    3    0    0 -0.26905433610E+02  0.24217213468E+02  0.19508944468E+02  0.41121462768E+02  0.00000000000E+00 0.  1.
         22    1    3    3    0    0 -0.41616413004E+02 -0.51864582045E+02 -0.11444683586E+03  0.13236290621E+03  0.00000000000E+00 0.  1.
</event>
<event>
 7    1  0.1005010E-005  0.6065670E+02  0.7818608E-02  0.1401028E+00
          2   -1    0    0  502    0  0.00000000000E+00  0.00000000000E+00  0.16490865731E+04  0.16490865731E+04  0.00000000000E+00 0. -1.
          1   -1    0    0  501    0 -0.00000000000E+00 -0.00000000000E+00 -0.45264639696E+03  0.45264639696E+03  0.00000000000E+00 0. -1.
         25    2    1    2    0    0  0.48046082699E+02  0.27139589075E+02 -0.12997666557E+03  0.18859310823E+03  0.12501377333E+03 0.  0.
          2    1    1    2  501    0 -0.47092798220E+02  0.33626865719E+02 -0.28993131914E+03  0.29564956885E+03  0.00000000000E+00 0. -1.
          1    1    1    2  502    0 -0.95328447951E+00 -0.60766454794E+02  0.16163481608E+04  0.16174902929E+04  0.00000000000E+00 0. -1.
         22    1    3    3    0    0  0.29471604182E+02 -0.43901394964E+02 -0.91535699569E+02  0.10571041684E+03  0.00000000000E+00 0.  1.
         22    1    3    3    0    0  0.18574478518E+02  0.71040984039E+02 -0.38440966004E+02  0.82882691395E+02  0.00000000000E+00 0.  1.
</event>
<event>
 7    1  0.6103724E-006  0.5577369E+02  0.7818608E-02  0.1468584E+00
          2   -1    0    0  502    0  0.00000000000E+00  0.00000000000E+00  0.36720207901E+03  0.36720207901E+03  0.00000000000E+00 0. -1.
          1   -1    0    0  501    0 -0.00000000000E+00 -0.00000000000E+00 -0.10452933070E+04  0.10452933070E+04  0.00000000000E+00 0. -1.
         25    2    1    2    0    0 -0.17285630842E+02 -0.18355687137E+02 -0.79561116185E+02  0.15030129928E+03  0.12499914029E+03 0.  0.
          2    1    1    2  501    0 -0.37538688669E+02  0.47097320811E+01 -0.92756891617E+03  0.92834014724E+03  0.00000000000E+00 0. -1.
          1    1    1    2  502    0  0.54824319511E+02  0.13645955056E+02  0.32903880439E+03  0.33385393946E+03  0.00000000000E+00 0. -1.
         22    1    3    3    0    0 -0.21436199447E+02  0.36293535320E+01  0.30797057766E+02  0.37698032055E+02  0.00000000000E+00 0. -1.
         22    1    3    3    0    0  0.41505686051E+01 -0.21985040669E+02 -0.11035817395E+03  0.11260326723E+03  0.00000000000E+00 0. -1.
</event>
<event>
 7    1  0.6103724E-006  0.5030356E+02  0.7818608E-02  0.1457037E+00
          2   -1    0    0  502    0  0.00000000000E+00  0.00000000000E+00  0.88182965885E+03  0.88182965885E+03  0.00000000000E+00 0. -1.
          1   -1    0    0  501    0 -0.00000000000E+00 -0.00000000000E+00 -0.83206958894E+03  0.83206958894E+03  0.00000000000E+00 0. -1.
         25    2    1    2    0    0  0.21885242860E+02  0.17376623477E+02  0.36349181745E+02  0.13314011333E+03  0.12499646341E+03 0.  0.
          2    1    1    2  501    0 -0.31930837707E+02  0.32557208986E+02 -0.78219567283E+03  0.78352384830E+03  0.00000000000E+00 0. -1.
          1    1    1    2  502    0  0.10045594847E+02 -0.49933832463E+02  0.79560656100E+03  0.79723528617E+03  0.00000000000E+00 0. -1.
         22    1    3    3    0    0 -0.46061865933E+02  0.27481076319E+01 -0.12951011298E+02  0.47926780430E+02  0.00000000000E+00 0. -1.
         22    1    3    3    0    0  0.67947108793E+02  0.14628515845E+02  0.49300193043E+02  0.85213332896E+02  0.00000000000E+00 0. -1.
</event>
<event>
 7    1  0.6103724E-006  0.6700843E+02  0.7818608E-02  0.1439257E+00
          2   -1    0    0  502    0  0.00000000000E+00  0.00000000000E+00  0.35530027037E+03  0.35530027037E+03  0.00000000000E+00 0. -1.
          1   -1    0    0  501    0 -0.00000000000E+00 -0.00000000000E+00 -0.24944806373E+04  0.24944806373E+04  0.00000000000E+00 0. -1.
         25    2    1    2    0    0 -0.21496933158E+02  0.56029347090E+02 -0.60575295770E+03  0.62142013921E+03  0.12499975110E+03 0.  0.
          2    1    1    2  501    0 -0.16131671942E+02 -0.66425983426E+02 -0.18791741853E+04  0.18804170444E+04  0.00000000000E+00 0. -1.
          1    1    1    2  502    0  0.37628605101E+02  0.10396636336E+02  0.34574677607E+03  0.34794372409E+03  0.00000000000E+00 0. -1.
         22    1    3    3    0    0 -0.13178288395E+01  0.78498265462E+02 -0.56639702062E+03  0.57181229378E+03  0.00000000000E+00 0.  1.
         22    1    3    3    0    0 -0.20179104319E+02 -0.22468918372E+02 -0.39355937083E+02  0.49607845424E+02  0.00000000000E+00 0.  1.
</event>
<event>
 7    1  0.6103724E-006  0.1043299E+03  0.7818608E-02  0.1451871E+00
          2   -1    0    0  502    0  0.00000000000E+00  0.00000000000E+00  0.16215845742E+04  0.16215845742E+04  0.00000000000E+00 0. -1.
          1   -1    0    0  501    0 -0.00000000000E+00 -0.00000000000E+00 -0.14378110015E+03  0.14378110015E+03  0.00000000000E+00 0. -1.
         25    2    1    2    0    0  0.55069408390E+02  0.61242350083E+02  0.63601268654E+02  0.16264480280E+03  0.12499978128E+03 0.  0.
          2    1    1    2  501    0  0.16512759791E+02  0.15772148338E+02 -0.91015001244E+02  0.93835826583E+02  0.00000000000E+00 0. -1.
          1    1    1    2  502    0 -0.71582168181E+02 -0.77014498421E+02  0.15052172067E+04  0.15088850450E+04  0.00000000000E+00 0. -1.
         22    1    3    3    0    0  0.88190666516E+02  0.72501884982E+02  0.42683606375E+02  0.12188522158E+03  0.00000000000E+00 0.  1.
         22    1    3    3    0    0 -0.33121258126E+02 -0.11259534899E+02  0.20917662279E+02  0.40759581220E+02  0.00000000000E+00 0.  1.
</event>
<event>
 7    1  0.6103724E-006  0.1694703E+03  0.7818608E-02  0.1296678E+00
          2   -1    0    0  502    0  0.00000000000E+00  0.00000000000E+00  0.13424714854E+04  0.13424714854E+04  0.00000000000E+00 0. -1.
          1   -1    0    0  501    0 -0.00000000000E+00 -0.00000000000E+00 -0.16676465289E+03  0.16676465289E+03  0.00000000000E+00 0. -1.
         25    2    1    2    0    0  0.71621457447E+02  0.17935335298E+03  0.98433202462E+03  0.10108573346E+04  0.12500303146E+03 0.  0.
          2    1    1    2  501    0 -0.14577188092E+02 -0.48450374751E+02 -0.13390080680E+03  0.14314104683E+03  0.00000000000E+00 0. -1.
          1    1    1    2  502    0 -0.57044269354E+02 -0.13090297822E+03  0.32527561467E+03  0.35523775683E+03  0.00000000000E+00 0. -1.
         22    1    3    3    0    0  0.84750333639E+02  0.81028723526E+02  0.69918638657E+03  0.70894984043E+03  0.00000000000E+00 0. -1.
         22    1    3    3    0    0 -0.13128876193E+02  0.98324629449E+02  0.28514563805E+03  0.30190749419E+03  0.00000000000E+00 0. -1.
</event>
<event>
 7    1  0.6103724E-006  0.3625923E+02  0.7818608E-02  0.1599180E+00
          2   -1    0    0  502    0  0.00000000000E+00  0.00000000000E+00  0.10875961201E+03  0.10875961201E+03  0.00000000000E+00 0. -1.
          1   -1    0    0  501    0 -0.00000000000E+00 -0.00000000000E+00 -0.13373153939E+03  0.13373153939E+03  0.00000000000E+00 0. -1.
         25    2    1    2    0    0 -0.30920007258E+02 -0.49823675821E+02 -0.57808080714E+02  0.14968397907E+03  0.12500029550E+03 0.  0.
          2    1    1    2  501    0  0.77849677051E+01  0.23397430497E+02 -0.18344887602E+02  0.30734026374E+02  0.00000000000E+00 0. -1.
          1    1    1    2  502    0  0.23135039553E+02  0.26426245323E+02  0.51181040934E+02  0.62073145950E+02  0.00000000000E+00 0. -1.
         22    1    3    3    0    0 -0.66468511114E+02  0.96053765786E+01 -0.40048263544E+02  0.78193283866E+02  0.00000000000E+00 0. -1.
         22    1    3    3    0    0  0.35548503856E+02 -0.59429052399E+02 -0.17759817170E+02  0.71490695209E+02  0.00000000000E+00 0. -1.
</event>
<event>
 7    1  0.6103724E-006  0.7902120E+02  0.7818608E-02  0.1421169E+00
          2   -1    0    0  502    0  0.00000000000E+00  0.00000000000E+00  0.16351303669E+04  0.16351303669E+04  0.00000000000E+00 0. -1.
          1   -1    0    0  501    0 -0.00000000000E+00 -0.00000000000E+00 -0.21439202529E+02  0.21439202529E+02  0.00000000000E+00 0. -1.
         25    2    1    2    0    0 -0.35601215854E+02  0.32719907657E+02  0.58166173638E+03  0.59690291862E+03  0.12499871905E+03 0.  0.
          2    1    1    2  501    0  0.61188682509E+02 -0.60769791082E+02  0.12510754867E+03  0.15195039029E+03  0.00000000000E+00 0. -1.
          1    1    1    2  502    0 -0.25587466656E+02  0.28049883425E+02  0.90692187937E+03  0.90771626057E+03  0.00000000000E+00 0. -1.
         22    1    3    3    0    0  0.30096961487E+02 -0.27301128438E+02  0.26011335499E+03  0.26326818294E+03  0.00000000000E+00 0.  1.
         22    1    3    3    0    0 -0.65698177340E+02  0.60021036095E+02  0.32154838139E+03  0.33363473568E+03  0.00000000000E+00 0.  1.
</event>
<event>
 7    1  0.6103724E-006  0.4430344E+02  0.7818608E-02  0.1490032E+00
          2   -1    0    0  502    0  0.00000000000E+00  0.00000000000E+00  0.24577551114E+03  0.24577551114E+03  0.00000000000E+00 0. -1.
          1   -1    0    0  501    0 -0.00000000000E+00 -0.00000000000E+00 -0.74231950042E+02  0.74231950042E+02  0.00000000000E+00 0. -1.
         25    2    1    2    0    0  0.68159524003E+01  0.21478058194E+02  0.63654329027E+02  0.14207006041E+03  0.12499705705E+03 0.  0.
          2    1    1    2  501    0 -0.44243815314E+02  0.22977310218E+01 -0.15410429227E+02  0.46907100639E+02  0.00000000000E+00 0. -1.
          1    1    1    2  502    0  0.37427862914E+02 -0.23775789216E+02  0.12329966130E+03  0.13103030012E+03  0.00000000000E+00 0. -1.
         22    1    3    3    0    0 -0.10889168514E+02  0.56547074424E+01  0.98852528328E+02  0.99611104120E+02  0.00000000000E+00 0. -1.
         22    1    3    3    0    0  0.17705120915E+02  0.15823350751E+02 -0.35198199301E+02  0.42458956295E+02  0.00000000000E+00 0. -1.
</event>
<event>
 7    1  0.6103724E-006  0.1330024E+03  0.7818608E-02  0.1255837E+00
          2   -1    0    0  502    0  0.00000000000E+00  0.00000000000E+00  0.25343590635E+03  0.25343590635E+03  0.00000000000E+00 0. -1.
          1   -1    0    0  501    0 -0.00000000000E+00 -0.00000000000E+00 -0.14688706488E+04  0.14688706488E+04  0.00000000000E+00 0. -1.
         25    2    1    2    0    0  0.21407889263E+03 -0.13076922890E+02 -0.12191320020E+02  0.24854482450E+03  0.12500049329E+03 0.  0.
          2    1    1    2  501    0 -0.12798486368E+03 -0.27835509660E+02 -0.13180501047E+04  0.13245418149E+04  0.00000000000E+00 0. -1.
          1    1    1    2  502    0 -0.86094028948E+02  0.40912432550E+02  0.11480668227E+03  0.14921991574E+03  0.00000000000E+00 0. -1.
         22    1    3    3    0    0  0.36102811684E+02 -0.54141030369E+02  0.38615821946E+01  0.65188772024E+02  0.00000000000E+00 0.  1.
         22    1    3    3    0    0  0.17797608094E+03  0.41064107480E+02 -0.16052902214E+02  0.18335605248E+03  0.00000000000E+00 0.  1.
</event>
<event>
 7    1  0.6103724E-006  0.5486223E+02  0.7818608E-02  0.1535152E+00
          2   -1    0    0  502    0  0.00000000000E+00  0.00000000000E+00  0.88004602758E+02  0.88004602758E+02  0.00000000000E+00 0. -1.
          1   -1    0    0  501    0 -0.00000000000E+00 -0.00000000000E+00 -0.14677064601E+04  0.14677064601E+04  0.00000000000E+00 0. -1.
         25    2    1    2    0    0 -0.38117444140E+02 -0.44923046751E+02 -0.86514326188E+03  0.87611164343E+03  0.12501091355E+03 0.  0.
          2    1    1    2  501    0  0.49644466225E+02  0.23455992923E+02 -0.59398614568E+03  0.59651848076E+03  0.00000000000E+00 0. -1.
          1    1    1    2  502    0 -0.11527022085E+02  0.21467053827E+02  0.79427550209E+02  0.83080938671E+02  0.00000000000E+00 0. -1.
         22    1    3    3    0    0  0.16171826226E+02 -0.74491332178E+02 -0.45715578456E+03  0.46346725655E+03  0.00000000000E+00 0. -1.
         22    1    3    3    0    0 -0.54289270367E+02  0.29568285427E+02 -0.40798747732E+03  0.41264438689E+03  0.00000000000E+00 0. -1.
</event>
<event>
 7    1  0.6103724E-006  0.4540919E+02  0.7818608E-02  0.1496890E+00
          2   -1    0    0  502    0  0.00000000000E+00  0.00000000000E+00  0.66644258070E+02  0.66644258070E+02  0.00000000000E+00 0. -1.
          1   -1    0    0  501    0 -0.00000000000E+00 -0.00000000000E+00 -0.15218442133E+04  0.15218442133E+04  0.00000000000E+00 0. -1.
         25    2    1    2    0    0  0.58064349650E+02 -0.55867229109E+02 -0.59486026050E+03  0.61316897949E+03  0.12499940758E+03 0.  0.
          2    1    1    2  501    0 -0.33365518132E+02  0.18343307016E+02 -0.90859379416E+03  0.90939123456E+03  0.00000000000E+00 0. -1.
          1    1    1    2  502    0 -0.24698831518E+02  0.37523922093E+02  0.48254099403E+02  0.65928257347E+02  0.00000000000E+00 0. -1.
         22    1    3    3    0    0  0.51274255959E+02 -0.93304596227E+02 -0.49467347256E+03  0.50600063385E+03  0.00000000000E+00 0. -1.
         22    1    3    3    0    0  0.67900936908E+01  0.37437367118E+02 -0.10018678795E+03  0.10716834564E+03  0.00000000000E+00 0. -1.
</event>
<event>
 7    1  0.6103724E-006  0.5571719E+02  0.7818608E-02  0.1434108E+00
          2   -1    0    0  502    0  0.00000000000E+00  0.00000000000E+00  0.69559159880E+03  0.69559159880E+03  0.00000000000E+00 0. -1.
          1   -1    0    0  501    0 -0.00000000000E+00 -0.00000000000E+00 -0.24413864781E+03  0.24413864781E+03  0.00000000000E+00 0. -1.
         25    2    1    2    0    0  0.48470303169E+01 -0.66532931112E+01 -0.82261384537E+02  0.14987776645E+03  0.12501459706E+03 0.  0.
          2    1    1    2  501    0  0.43794298797E+02 -0.21530044332E+02 -0.12217381105E+03  0.13155958165E+03  0.00000000000E+00 0. -1.
          1    1    1    2  502    0 -0.48641329114E+02  0.28183337443E+02  0.65588814658E+03  0.65829289851E+03  0.00000000000E+00 0. -1.
         22    1    3    3    0    0  0.29927369094E+02 -0.57545464691E+02 -0.61726757698E+02  0.89539491529E+02  0.00000000000E+00 0.  1.
         22    1    3    3    0    0 -0.25080338777E+02  0.50892171579E+02 -0.20534626840E+02  0.60338274923E+02  0.00000000000E+00 0.  1.
</event>
<event>
 7    1  0.6103724E-006  0.1849354E+03  0.7818608E-02  0.1277881E+00
          2   -1    0    0  502    0  0.00000000000E+00  0.00000000000E+00  0.20915936290E+04  0.20915936290E+04  0.00000000000E+00 0. -1.
          1   -1    0    0  501    0 -0.00000000000E+00 -0.00000000000E+00 -0.10268692105E+04  0.10268692105E+04  0.00000000000E+00 0. -1.
         25    2    1    2    0    0  0.19251186284E+03  0.31428184876E+02 -0.46300621774E+02  0.23625332294E+03  0.12499334737E+03 0.  0.
          2    1    1    2  501    0 -0.18319021981E+03  0.23112809854E+02 -0.87557853186E+03  0.89483552906E+03  0.00000000000E+00 0. -1.
          1    1    1    2  502    0 -0.93216430216E+01 -0.54540994730E+02  0.19866035722E+04  0.19873739875E+04  0.00000000000E+00 0. -1.
         22    1    3    3    0    0  0.50312807569E+02  0.31898657932E+02 -0.70187919876E+02  0.92061105141E+02  0.00000000000E+00 0. -1.
         22    1    3    3    0    0  0.14219905527E+03 -0.47047305610E+00  0.23887298102E+02  0.14419221780E+03  0.00000000000E+00 0. -1.
</event>
<event>
 7    1  0.6103724E-006  0.9459854E+02  0.7818608E-02  0.1378478E+00
          2   -1    0    0  502    0  0.00000000000E+00  0.00000000000E+00  0.90261927383E+02  0.90261927383E+02  0.00000000000E+00 0. -1.
          1   -1    0    0  501    0 -0.00000000000E+00 -0.00000000000E+00 -0.10377154524E+04  0.10377154524E+04  0.00000000000E+00 0. -1.
         25    2    1    2    0    0  0.81054045134E+02  0.94945251823E+02 -0.21238561751E+03  0.27625459960E+03  0.12499837679E+03 0.  0.
          2    1    1    2  501    0 -0.37871540174E+02 -0.84288559765E+02 -0.78178005494E+03  0.78722224890E+03  0.00000000000E+00 0. -1.
          1    1    1    2  502    0 -0.43182504960E+02 -0.10656692057E+02  0.46712147420E+02  0.64500531291E+02  0.00000000000E+00 0. -1.
         22    1    3    3    0    0  0.59321515603E+02  0.89007125847E+01 -0.18095655108E+02  0.62655547494E+02  0.00000000000E+00 0.  1.
         22    1    3    3    0    0  0.21732529531E+02  0.86044539238E+02 -0.19428996240E+03  0.21359905211E+03  0.00000000000E+00 0.  1.
</event>
<event>
 7    1  0.6103724E-006  0.5224281E+02  0.7818608E-02  0.1548243E+00
          2   -1    0    0  502    0  0.00000000000E+00  0.00000000000E+00  0.88420613187E+03  0.88420613187E+03  0.00000000000E+00 0. -1.
          1   -1    0    0  501    0 -0.00000000000E+00 -0.00000000000E+00 -0.54246347806E+02  0.54246347806E+02  0.00000000000E+00 0. -1.
         25    2    1    2    0    0  0.53918324503E+02  0.38724130295E+01  0.94606904032E+02  0.16582455186E+03  0.12500053763E+03 0.  0.
          2    1    1    2  501    0 -0.51817187840E+01 -0.22923870334E+02 -0.99273885771E+01  0.25512880759E+02  0.00000000000E+00 0. -1.
          1    1    1    2  502    0 -0.48736605719E+02  0.19051457305E+02  0.74528026861E+03  0.74711504706E+03  0.00000000000E+00 0. -1.
         22    1    3    3    0    0  0.31931947023E+02 -0.59591900552E+02  0.35532195566E+02  0.76376572153E+02  0.00000000000E+00 0.  1.
         22    1    3    3    0    0  0.21986377480E+02  0.63464313582E+02  0.59074708466E+02  0.89447979706E+02  0.00000000000E+00 0.  1.
</event>
<event>
 7    1  0.6103724E-006  0.7895413E+02  0.7818608E-02  0.1362512E+00
          2   -1    0    0  502    0  0.00000000000E+00  0.00000000000E+00  0.20863350409E+04  0.20863350409E+04  0.00000000000E+00 0. -1.
          1   -1    0    0  501    0 -0.00000000000E+00 -0.00000000000E+00 -0.37096014319E+02  0.37096014319E+02  0.00000000000E+00 0. -1.
         25    2    1    2    0    0 -0.49537780464E+02  0.57269807547E+02  0.37026022582E+03  0.39805980712E+03  0.12500061068E+03 0.  0.
          2    1    1    2  501    0  0.56234914522E+02  0.23153257423E+02  0.19403895247E+02  0.63835335758E+02  0.00000000000E+00 0. -1.
          1    1    1    2  502    0 -0.66971340576E+01 -0.80423064970E+02  0.16595749055E+04  0.16615359123E+04  0.00000000000E+00 0. -1.
         22    1    3    3    0    0 -0.95322565894E+01  0.41701918356E+02  0.34623222759E+03  0.34886482960E+03  0.00000000000E+00 0.  1.
         22    1    3    3    0    0 -0.40005523875E+02  0.15567889191E+02  0.24027998230E+02  0.49194977521E+02  0.00000000000E+00 0.  1.
</event>
<event>
 7    1  0.6103724E-006  0.1299622E+03  0.7818608E-02  0.1249966E+00
          2   -1    0    0  502    0  0.00000000000E+00  0.00000000000E+00  0.21149385161E+03  0.21149385161E+03  0.00000000000E+00 0. -1.
          1   -1    0    0  501    0 -0.00000000000E+00 -0.00000000000E+00 -0.94951938980E+03  0.94951938980E+03  0.00000000000E+00 0. -1.
         25    2    1    2    0    0 -0.99520607932E+02 -0.15891327675E+03 -0.26435293269E+03  0.34736972245E+03  0.12500188048E+03 0.  0.
          2    1    1    2  501    0  0.19331856733E+01  0.12469254446E+03 -0.62113692264E+03  0.63353219691E+03  0.00000000000E+00 0. -1.
          1    1    1    2  502    0  0.97587422259E+02  0.34220732290E+02  0.14746431714E+03  0.18011132205E+03  0.00000000000E+00 0. -1.
         22    1    3    3    0    0 -0.69662150663E+02 -0.87020206976E+02 -0.24190332788E+03  0.26635043025E+03  0.00000000000E+00 0. -1.
         22    1    3    3    0    0 -0.29858457269E+02 -0.71893069774E+02 -0.22449604814E+02  0.81019292199E+02  0.00000000000E+00 0. -1.
</event>
<event>
 7    1  0.6103724E-006  0.7543148E+02  0.7818608E-02  0.1508953E+00
          2   -1    0    0  502    0  0.00000000000E+00  0.00000000000E+00  0.30998239952E+03  0.30998239952E+03  0.00000000000E+00 0. -1.
          1   -1    0    0  501    0 -0.00000000000E+00 -0.00000000000E+00 -0.22651482665E+03  0.22651482665E+03  0.00000000000E+00 0. -1.
         25    2    1    2    0    0 -0.38271632207E+02  0.53900796571E+02 -0.58991051911E+02  0.15321572039E+03  0.12500039626E+03 0.  0.
          2    1    1    2  501    0 -0.20372203003E+02 -0.55120812011E+01 -0.11392436561E+03  0.11586272383E+03  0.00000000000E+00 0. -1.
          1    1    1    2  502    0  0.58643835211E+02 -0.48388715370E+02  0.25638299039E+03  0.26741878196E+03  0.00000000000E+00 0. -1.
         22    1    3    3    0    0 -0.77907735613E+02  0.62555442953E+02 -0.49713196637E+02  0.11159838991E+03  0.00000000000E+00 0. -1.
         22    1    3    3    0    0  0.39636103406E+02 -0.86546463818E+01 -0.92778552734E+01  0.41617330473E+02  0.00000000000E+00 0. -1.
</event>
<event>
 7    1  0.6103724E-006  0.8551359E+02  0.7818608E-02  0.1480571E+00
          2   -1    0    0  502    0  0.00000000000E+00  0.00000000000E+00  0.16245543228E+04  0.16245543228E+04  0.00000000000E+00 0. -1.
          1   -1    0    0  501    0 -0.00000000000E+00 -0.00000000000E+00 -0.73612230410E+03  0.73612230410E+03  0.00000000000E+00 0. -1.
         25    2    1    2    0    0 -0.93145276614E+02  0.31985643520E+02  0.17795278928E+02  0.16011923429E+03  0.12498949272E+03 0.  0.
          2    1    1    2  501    0  0.19624009630E+02  0.11325447145E+02 -0.66358141905E+03  0.66396812214E+03  0.00000000000E+00 0. -1.
          1    1    1    2  502    0  0.73521266985E+02 -0.43311090665E+02  0.15342181588E+04  0.15365892705E+04  0.00000000000E+00 0. -1.
         22    1    3    3    0    0 -0.18693786398E+02 -0.36933327024E+02  0.38548983334E+02  0.56564586192E+02  0.00000000000E+00 0.  1.
         22    1    3    3    0    0 -0.74451490216E+02  0.68918970544E+02 -0.20753704406E+02  0.10355464810E+03  0.00000000000E+00 0.  1.
</event>
<event>
 7    1  0.6103724E-006  0.7198233E+02  0.7818608E-02  0.1392135E+00
          2   -1    0    0  502    0  0.00000000000E+00  0.00000000000E+00  0.55903077140E+03  0.55903077140E+03  0.00000000000E+00 0. -1.
          1   -1    0    0  501    0 -0.00000000000E+00 -0.00000000000E+00 -0.95500224761E+03  0.95500224761E+03  0.00000000000E+00 0. -1.
         25    2    1    2    0    0  0.10598304175E+02 -0.20914214635E+02 -0.74767320940E+02  0.14753544467E+03  0.12500730670E+03 0.  0.
          2    1    1    2  501    0 -0.54767906019E+01 -0.52049959054E+02 -0.84047379440E+03  0.84210177090E+03  0.00000000000E+00 0. -1.
          1    1    1    2  502    0 -0.51215135736E+01  0.72964173688E+02  0.51926963913E+03  0.52439580344E+03  0.00000000000E+00 0. -1.
         22    1    3    3    0    0 -0.10558874892E+02 -0.60850229947E+02 -0.81058569649E+02  0.10190550543E+03  0.00000000000E+00 0.  1.
         22    1    3    3    0    0  0.21157179067E+02  0.39936015312E+02  0.62912487088E+01  0.45629939244E+02  0.00000000000E+00 0.  1.
</event>
<event>
 7    1  0.6103724E-006  0.1082878E+03  0.7818608E-02  0.1328904E+00
          2   -1    0    0  502    0  0.00000000000E+00  0.00000000000E+00  0.16768799631E+04  0.16768799631E+04  0.00000000000E+00 0. -1.
          1   -1    0    0  501    0 -0.00000000000E+00 -0.00000000000E+00 -0.31502892242E+02  0.31502892242E+02  0.00000000000E+00 0. -1.
         25    2    1    2    0    0  0.72500313162E+02 -0.13132417672E+03  0.63961202721E+03  0.66875314050E+03  0.12499953110E+03 0.  0.
          2    1    1    2  501    0 -0.24989054829E+02  0.96043049818E+02  0.13869928303E+03  0.17054680118E+03  0.00000000000E+00 0. -1.
          1    1    1    2  502    0 -0.47511258333E+02  0.35281126903E+02  0.86706576066E+03  0.86908291370E+03  0.00000000000E+00 0. -1.
         22    1    3    3    0    0  0.53286843714E+02 -0.12414191586E+03  0.30580295607E+03  0.33431444918E+03  0.00000000000E+00 0.  1.
         22    1    3    3    0    0  0.19213469448E+02 -0.71822608623E+01  0.33380907114E+03  0.33443869132E+03  0.00000000000E+00 0.  1.
</event>
<event>
 7    1  0.6103724E-006  0.9504659E+02  0.7818608E-02  0.1302863E+00
          2   -1    0    0  502    0  0.00000000000E+00  0.00000000000E+00  0.20092604002E+04  0.20092604002E+04  0.00000000000E+00 0. -1.
          1   -1    0    0  501    0 -0.00000000000E+00 -0.00000000000E+00 -0.10256857549E+04  0.10256857549E+04  0.00000000000E+00 0. -1.
         25    2    1    2    0    0  0.63938373347E+02  0.22064845006E+01  0.88151058345E+03  0.89262482686E+03  0.12500075449E+03 0.  0.
          2    1    1    2  501    0 -0.48927494896E+02  0.81673208646E+02 -0.10162828740E+04  0.10207327235E+04  0.00000000000E+00 0. -1.
          1    1    1    2  502    0 -0.15010878452E+02 -0.83879693147E+02  0.11183469358E+04  0.11215886047E+04  0.00000000000E+00 0. -1.
         22    1    3    3    0    0  0.89461289628E+02  0.71866479185E+01  0.83081754145E+03  0.83565109791E+03  0.00000000000E+00 0. -1.
         22    1    3    3    0    0 -0.25522916281E+02 -0.49801634180E+01  0.50693041998E+02  0.56973728947E+02  0.00000000000E+00 0. -1.
</event>
<event>
 7    1  0.6103724E-006  0.1005464E+03  0.7818608E-02  0.1338286E+00
          2   -1    0    0  502    0  0.00000000000E+00  0.00000000000E+00  0.93840120939E+03  0.93840120939E+03  0.00000000000E+00 0. -1.
          1   -1    0    0  501    0 -0.00000000000E+00 -0.00000000000E+00 -0.15083578513E+03  0.15083578513E+03  0.00000000000E+00 0. -1.
         25    2    1    2    0    0 -0.53865279819E+02 -0.14739738606E+02  0.26586280470E+03  0.29904333805E+03  0.12500063538E+03 0.  0.
          2    1    1    2  501    0 -0.53048449897E+02 -0.25160138961E+02 -0.12256268231E+03  0.13589989597E+03  0.00000000000E+00 0. -1.
          1    1    1    2  502    0  0.10691372972E+03  0.39899877567E+02  0.64426530187E+03  0.65429376050E+03  0.00000000000E+00 0. -1.
         22    1    3    3    0    0  0.53293352344E+01 -0.42746485204E+02  0.20554925161E+03  0.21001466294E+03  0.00000000000E+00 0. -1.
         22    1    3    3    0    0 -0.59194615053E+02  0.28006746598E+02  0.60313553093E+02  0.89028675117E+02  0.00000000000E+00 0. -1.
</event>
<event>
 7    1  0.6103724E-006  0.4703949E+02  0.7818608E-02  0.1473659E+00
          2   -1    0    0  502    0  0.00000000000E+00  0.00000000000E+00  0.34062714435E+03  0.34062714435E+03  0.00000000000E+00 0. -1.
          1   -1    0    0  501    0 -0.00000000000E+00 -0.00000000000E+00 -0.12943226347E+04  0.12943226347E+04  0.00000000000E+00 0. -1.
         25    2    1    2    0    0 -0.22592179181E+02 -0.13680038702E+01  0.53221895996E+02  0.13773047585E+03  0.12499934308E+03 0.  0.
          2    1    1    2  501    0  0.21797122198E+02 -0.41883602405E+02 -0.12497107056E+04  0.12506023342E+04  0.00000000000E+00 0. -1.
          1    1    1    2  502    0  0.79505698335E+00  0.43251606275E+02  0.24279331920E+03  0.24661696902E+03  0.00000000000E+00 0. -1.
         22    1    3    3    0    0 -0.81661954338E+01 -0.60692811129E+02  0.80149357356E+01  0.61761988839E+02  0.00000000000E+00 0.  1.
         22    1    3    3    0    0 -0.14425983748E+02  0.59324807258E+02  0.45206960260E+02  0.75968487015E+02  0.00000000000E+00 0.  1.
</event>
<event>
 7    1  0.6103724E-006  0.6913727E+02  0.7818608E-02  0.1440540E+00
          2   -1    0    0  502    0  0.00000000000E+00  0.00000000000E+00  0.69227729372E+03  0.69227729372E+03  0.00000000000E+00 0. -1.
          1   -1    0    0  501    0 -0.00000000000E+00 -0.00000000000E+00 -0.15918964312E+03  0.15918964312E+03  0.00000000000E+00 0. -1.
         25    2    1    2    0    0 -0.10742127352E+02  0.10048728210E+03  0.18172910952E+03  0.24261769151E+03  0.12499915130E+03 0.  0.
          2    1    1    2  501    0  0.15997917166E+02 -0.33889008631E+02 -0.12363036409E+03  0.12918539075E+03  0.00000000000E+00 0. -1.
          1    1    1    2  502    0 -0.52557898145E+01 -0.66598273469E+02  0.47498890517E+03  0.47966385458E+03  0.00000000000E+00 0. -1.
         22    1    3    3    0    0 -0.48955766623E-01  0.84043357666E+02  0.29409746451E+02  0.89040561266E+02  0.00000000000E+00 0. -1.
         22    1    3    3    0    0 -0.10693171585E+02  0.16443924435E+02  0.15231936307E+03  0.15357713025E+03  0.00000000000E+00 0. -1.
</event>
<event>
 7    1  0.6103724E-006  0.9485605E+02  0.7818608E-02  0.1360693E+00
          2   -1    0    0  502    0  0.00000000000E+00  0.00000000000E+00  0.42959955107E+03  0.42959955107E+03  0.00000000000E+00 0. -1.
          1   -1    0    0  501    0 -0.00000000000E+00 -0.00000000000E+00 -0.11073476202E+03  0.11073476202E+03  0.00000000000E+00 0. -1.
         25    2    1    2    0    0 -0.30293398770E+02 -0.61045992591E+02  0.30786613911E+02  0.14566388407E+03  0.12500339317E+03 0.  0.
          2    1    1    2  501    0  0.73015930011E+02  0.89620502614E+02  0.14732044963E+02  0.11653408803E+03  0.00000000000E+00 0. -1.
          1    1    1    2  502    0 -0.42722531241E+02 -0.28574510022E+02  0.27334613018E+03  0.27813634099E+03  0.00000000000E+00 0. -1.
         22    1    3    3    0    0  0.20311014347E+02 -0.75414468589E+02  0.46331805031E+02  0.90810327242E+02  0.00000000000E+00 0. -1.
         22    1    3    3    0    0 -0.50604413117E+02  0.14368475998E+02 -0.15545191120E+02  0.54853556825E+02  0.00000000000E+00 0. -1.
</event>
<event>
 7    1  0.6103724E-006  0.1193841E+03  0.7818608E-02  0.1256957E+00
          2   -1    0    0  502    0  0.00000000000E+00  0.00000000000E+00  0.20147974777E+04  0.20147974777E+04  0.00000000000E+00 0. -1.
          1   -1    0    0  501    0 -0.00000000000E+00 -0.00000000000E+00 -0.15972754955E+04  0.15972754955E+04  0.00000000000E+00 0. -1.
         25    2    1    2    0    0  0.12287485093E+03 -0.11994580707E+03 -0.75526344369E+03  0.78455973413E+03  0.12500352560E+03 0.  0.
          2    1    1    2  501    0 -0.10500660483E+03  0.19479142651E+01 -0.82224058646E+03  0.82892084269E+03  0.00000000000E+00 0. -1.
          1    1    1    2  502    0 -0.17868246102E+02  0.11799789280E+03  0.19950260123E+04  0.19985923964E+04  0.00000000000E+00 0. -1.
         22    1    3    3    0    0  0.98181574790E+02 -0.88468565430E+01 -0.34805633199E+03  0.36174728574E+03  0.00000000000E+00 0. -1.
         22    1    3    3    0    0  0.24693276138E+02 -0.11109895053E+03 -0.40720711170E+03  0.42281244839E+03  0.00000000000E+00 0. -1.
</event>
<event>
 7    1  0.6103724E-006  0.1464843E+03  0.7818608E-02  0.1324103E+00
          2   -1    0    0  502    0  0.00000000000E+00  0.00000000000E+00  0.19803565884E+04  0.19803565884E+04  0.00000000000E+00 0. -1.
          1   -1    0    0  501    0 -0.00000000000E+00 -0.00000000000E+00 -0.10605198423E+03  0.10605198423E+03  0.00000000000E+00 0. -1.
         25    2    1    2    0    0  0.17855908463E+03  0.37053695688E+02  0.79535299097E+03  0.82551146908E+03  0.12500592899E+03 0.  0.
          2    1    1    2  501    0 -0.45296255371E+02 -0.56331112694E+01 -0.80955542906E+02  0.92936981984E+02  0.00000000000E+00 0. -1.
          1    1    1    2  502    0 -0.13326282926E+03 -0.31420584419E+02  0.11599071561E+04  0.11679601216E+04  0.00000000000E+00 0. -1.
         22    1    3    3    0    0  0.17105685100E+03  0.20500936258E+02  0.78677278652E+03  0.80541427370E+03  0.00000000000E+00 0.  1.
         22    1    3    3    0    0  0.75022336280E+01  0.16552759431E+02  0.85802044453E+01  0.20097195389E+02  0.00000000000E+00 0.  1.
</event>
<event>
 7    1  0.6103724E-006  0.7844778E+02  0.7818608E-02  0.1413726E+00
          2   -1    0    0  502    0  0.00000000000E+00  0.00000000000E+00  0.11943516275E+04  0.11943516275E+04  0.00000000000E+00 0. -1.
          1   -1    0    0  501    0 -0.00000000000E+00 -0.00000000000E+00 -0.45527275979E+02  0.45527275979E+02  0.00000000000E+00 0. -1.
         25    2    1    2    0    0  0.25296765381E+02 -0.82260588953E+02  0.79421472909E+03  0.80858457643E+03  0.12500100200E+03 0.  0.
          2    1    1    2  501    0  0.14883018336E+02  0.77126277364E+02  0.43172161806E+01  0.78667688732E+02  0.00000000000E+00 0. -1.
          1    1    1    2  502    0 -0.40179783717E+02  0.51343115886E+01  0.35029240620E+03  0.35262663827E+03  0.00000000000E+00 0. -1.
         22    1    3    3    0    0  0.14218852540E+02 -0.11401687751E+03  0.67529472396E+03  0.68499999149E+03  0.00000000000E+00 0.  1.
         22    1    3    3    0    0  0.11077912841E+02  0.31756288556E+02  0.11892000513E+03  0.12358458494E+03  0.00000000000E+00 0.  1.
</event>
<event>
 7    1  0.6103724E-006  0.1433107E+03  0.7818608E-02  0.1365083E+00
          2   -1    0    0  502    0  0.00000000000E+00  0.00000000000E+00  0.13685238209E+04  0.13685238209E+04  0.00000000000E+00 0. -1.
          1   -1    0    0  501    0 -0.00000000000E+00 -0.00000000000E+00 -0.56168624147E+02  0.56168624147E+02  0.00000000000E+00 0. -1.
         25    2    1    2    0    0  0.38468939514E+02 -0.15479442468E+03  0.38147063837E+03  0.43195559204E+03  0.12499844933E+03 0.  0.
          2    1    1    2  501    0 -0.54788092405E+02  0.12635055196E+03  0.12439543201E+03  0.18558130443E+03  0.00000000000E+00 0. -1.
          1    1    1    2  502    0  0.16319152891E+02  0.28443872723E+02  0.80648912636E+03  0.80715554856E+03  0.00000000000E+00 0. -1.
         22    1    3    3    0    0  0.58827467292E+02 -0.23601947497E+02  0.76551636705E+02  0.99387503821E+02  0.00000000000E+00 0.  1.
         22    1    3    3    0    0 -0.20358527778E+02 -0.13119247718E+03  0.30491900167E+03  0.33256808822E+03  0.00000000000E+00 0.  1.
</event>
<event>
 7    1  0.6103724E-006  0.7037403E+02  0.7818608E-02  0.1426768E+00
          2   -1    0    0  502    0  0.00000000000E+00  0.00000000000E+00  0.12708700421E+04  0.12708700421E+04  0.00000000000E+00 0. -1.
          1   -1    0    0  501    0 -0.00000000000E+00 -0.00000000000E+00 -0.22247083220E+04  0.22247083220E+04  0.00000000000E+00 0. -1.
         25    2    1    2    0    0 -0.84255708148E+02  0.82212007378E+01  0.36389528216E+03  0.39396898168E+03  0.12500067861E+03 0.  0.
          2    1    1    2  501    0  0.64710586374E+02  0.27644763839E+02 -0.22086432025E+04  0.22097638989E+04  0.00000000000E+00 0. -1.
          1    1    1    2  502    0  0.19545121774E+02 -0.35865964576E+02  0.89090964037E+03  0.89184548354E+03  0.00000000000E+00 0. -1.
         22    1    3    3    0    0 -0.21542116881E+02 -0.47715624632E+02  0.64873203040E+02  0.83362918054E+02  0.00000000000E+00 0.  1.
         22    1    3    3    0    0 -0.62713591267E+02  0.55936825370E+02  0.29902207912E+03  0.31060606363E+03  0.00000000000E+00 0.  1.
</event>
<event>
 7    1  0.6103724E-006  0.6507151E+02  0.7818608E-02  0.1487376E+00
          2   -1    0    0  502    0  0.00000000000E+00  0.00000000000E+00  0.19177752695E+04  0.19177752695E+04  0.00000000000E+00 0. -1.
          1   -1    0    0  501    0 -0.00000000000E+00 -0.00000000000E+00 -0.31985962316E+03  0.31985962316E+03  0.00000000000E+00 0. -1.
         25    2    1    2    0    0 -0.11831358290E+02  0.57493612009E+02  0.15252339276E+04  0.15314728125E+04  0.12499978052E+03 0.  0.
          2    1    1    2  501    0 -0.15994378515E+02 -0.63102870572E+02 -0.31286806002E+03  0.31956879604E+03  0.00000000000E+00 0. -1.
          1    1    1    2  502    0  0.27825736805E+02  0.56092585632E+01  0.38554977884E+03  0.38659328418E+03  0.00000000000E+00 0. -1.
         22    1    3    3    0    0  0.29263716981E+01  0.47153983015E+02  0.17935060449E+03  0.18546886827E+03  0.00000000000E+00 0. -1.
         22    1    3    3    0    0 -0.14757729988E+02  0.10339628994E+02  0.13458833231E+04  0.13460039442E+04  0.00000000000E+00 0. -1.
</event>
<event>
 7    1  0.6103724E-006  0.7624397E+02  0.7818608E-02  0.1394739E+00
          2   -1    0    0  502    0  0.00000000000E+00  0.00000000000E+00  0.41013670785E+02  0.41013670785E+02  0.00000000000E+00 0. -1.
          1   -1    0    0  501    0 -0.00000000000E+00 -0.00000000000E+00 -0.41511806660E+04  0.41511806660E+04  0.00000000000E+00 0. -1.
         25    2    1    2    0    0 -0.95860546654E+02 -0.47123454147E+02 -0.66222013839E+03  0.68232476199E+03  0.12498681848E+03 0.  0.
          2    1    1    2  501    0  0.21224864984E+02  0.43491227014E+02 -0.34334021474E+04  0.34337431890E+04  0.00000000000E+00 0. -1.
          1    1    1    2  502    0  0.74635681670E+02  0.36322271325E+01 -0.14544709410E+02  0.76126385860E+02  0.00000000000E+00 0. -1.
         22    1    3    3    0    0  0.14984393899E+02  0.23702602924E+02 -0.19258083815E+03  0.19461172798E+03  0.00000000000E+00 0.  1.
         22    1    3    3    0    0 -0.11084494055E+03 -0.70826057071E+02 -0.46963930024E+03  0.48771303401E+03  0.00000000000E+00 0.  1.
</event>
<event>
 7    1  0.6103724E-006  0.3085913E+02  0.7818608E-02  0.1593278E+00
          2   -1    0    0  502    0  0.00000000000E+00  0.00000000000E+00  0.37967571550E+03  0.37967571550E+03  0.00000000000E+00 0. -1.
          1   -1    0    0  501    0 -0.00000000000E+00 -0.00000000000E+00 -0.95970335825E+03  0.95970335825E+03  0.00000000000E+00 0. -1.
         25    2    1    2    0    0  0.17042962781E+01 -0.11528865695E+02  0.13873184349E+03  0.18710143652E+03  0.12499841510E+03 0.  0.
          2    1    1    2  501    0  0.29501790797E+02  0.90515274053E+01 -0.93413220507E+03  0.93464178290E+03  0.00000000000E+00 0. -1.
          1    1    1    2  502    0 -0.31206087075E+02  0.24773382902E+01  0.21537271883E+03  0.21763585433E+03  0.00000000000E+00 0. -1.
         22    1    3    3    0    0 -0.54956460656E+02  0.18335423618E+02  0.88167179370E+02  0.10549811299E+03  0.00000000000E+00 0.  1.
         22    1    3    3    0    0  0.56660756934E+02 -0.29864289313E+02  0.50564664118E+02  0.81603323522E+02  0.00000000000E+00 0.  1.
</event>
<event>
 7    1  0.6103724E-006  0.6878615E+02  0.7818608E-02  0.1368368E+00
          2   -1    0    0  502    0  0.00000000000E+00  0.00000000000E+00  0.13975984661E+04  0.13975984661E+04  0.00000000000E+00 0. -1.
          1   -1    0    0  501    0 -0.00000000000E+00 -0.00000000000E+00 -0.40038566205E+03  0.40038566205E+03  0.00000000000E+00 0. -1.
         25    2    1    2    0    0  0.74466665245E+02  0.73610629299E+02 -0.34518611238E+02  0.16667608237E+03  0.12500229172E+03 0.  0.
          2    1    1    2  501    0 -0.67492951919E+02 -0.74980494910E+01 -0.29509976767E+03  0.30281247033E+03  0.00000000000E+00 0. -1.
          1    1    1    2  502    0 -0.69737133261E+01 -0.66112579808E+02  0.13268311830E+04  0.13284955754E+04  0.00000000000E+00 0. -1.
         22    1    3    3    0    0  0.82990770272E+02  0.64869048644E+02 -0.71778882526E+02  0.12746634614E+03  0.00000000000E+00 0.  1.
         22    1    3    3    0    0 -0.85241050266E+01  0.87415806546E+01  0.37260271288E+02  0.39209736231E+02  0.00000000000E+00 0.  1.
</event>
<event>
 7    1  0.6103724E-006  0.5269010E+02  0.7818608E-02  0.1542778E+00
          2   -1    0    0  502    0  0.00000000000E+00  0.00000000000E+00  0.30129451683E+04  0.30129451683E+04  0.00000000000E+00 0. -1.
          1   -1    0    0  501    0 -0.00000000000E+00 -0.00000000000E+00 -0.46055678776E+02  0.46055678776E+02  0.00000000000E+00 0. -1.
         25    2    1    2    0    0 -0.45518413645E+02  0.60624285065E+02  0.13081642538E+03  0.19617531236E+03  0.12499834443E+03 0.  0.
          2    1    1    2  501    0  0.18366259102E+02 -0.15666316247E+02 -0.20402085435E+01  0.24226336683E+02  0.00000000000E+00 0. -1.
          1    1    1    2  502    0  0.27152154543E+02 -0.44957968819E+02  0.28381132727E+04  0.28385991981E+04  0.00000000000E+00 0. -1.
         22    1    3    3    0    0 -0.74154776487E+02  0.70009208587E+02  0.13103020353E+03  0.16603955673E+03  0.00000000000E+00 0. -1.
         22    1    3    3    0    0  0.28636362842E+02 -0.93849235216E+01 -0.21377814945E+00  0.30135755630E+02  0.00000000000E+00 0. -1.
</event>
<event>
 7    1  0.6103724E-006  0.1785348E+03  0.7818608E-02  0.1263365E+00
          2   -1    0    0  502    0  0.00000000000E+00  0.00000000000E+00  0.92049131248E+03  0.92049131248E+03  0.00000000000E+00 0. -1.
          1   -1    0    0  501    0 -0.00000000000E+00 -0.00000000000E+00 -0.71118546628E+02  0.71118546628E+02  0.00000000000E+00 0. -1.
         25    2    1    2    0    0 -0.36301784233E+02  0.12756854853E+03  0.15966500021E+03  0.24230031811E+03  0.12499991100E+03 0.  0.
          2    1    1    2  501    0  0.75830623453E+01  0.65505608932E+02  0.56960517336E+02  0.87137753995E+02  0.00000000000E+00 0. -1.
          1    1    1    2  502    0  0.28718721887E+02 -0.19307415746E+03  0.63274724831E+03  0.66217178701E+03  0.00000000000E+00 0. -1.
         22    1    3    3    0    0 -0.64695286295E+02  0.21904123999E+02  0.88448976773E+02  0.11175192262E+03  0.00000000000E+00 0. -1.
         22    1    3    3    0    0  0.28393502062E+02  0.10566442453E+03  0.71216023440E+02  0.13054839549E+03  0.00000000000E+00 0. -1.
</event>
<event>
 7    1  0.6103724E-006  0.3929249E+02  0.7818608E-02  0.1541657E+00
          2   -1    0    0  502    0  0.00000000000E+00  0.00000000000E+00  0.25458794354E+04  0.25458794354E+04  0.00000000000E+00 0. -1.
          1   -1    0    0  501    0 -0.00000000000E+00 -0.00000000000E+00 -0.49921057671E+03  0.49921057671E+03  0.00000000000E+00 0. -1.
         25    2    1    2    0    0 -0.28229877822E+02  0.65576579425E+02  0.14974242886E+03  0.20771249735E+03  0.12499789112E+03 0.  0.
          2    1    1    2  501    0  0.12129259184E+02 -0.37221026210E+02 -0.46929823396E+03  0.47092818573E+03  0.00000000000E+00 0. -1.
          1    1    1    2  502    0  0.16100618638E+02 -0.28355553215E+02  0.23662246638E+04  0.23664493290E+04  0.00000000000E+00 0. -1.
         22    1    3    3    0    0 -0.31258025066E+01  0.10063363887E+03  0.10044221647E+03  0.14221652071E+03  0.00000000000E+00 0. -1.
         22    1    3    3    0    0 -0.25104075316E+02 -0.35057059447E+02  0.49300212389E+02  0.65495976641E+02  0.00000000000E+00 0. -1.
</event>
<event>
 7    1  0.6103724E-006  0.7888731E+02  0.7818608E-02  0.1486533E+00
          2   -1    0    0  502    0  0.00000000000E+00  0.00000000000E+00  0.65712333858E+03  0.65712333858E+03  0.00000000000E+00 0. -1.
          1   -1    0    0  501    0 -0.00000000000E+00 -0.00000000000E+00 -0.10553410944E+03  0.10553410944E+03  0.00000000000E+00 0. -1.
         25    2    1    2    0    0 -0.75065080089E+02  0.23459299818E+02  0.10800516627E+02  0.14807263380E+03  0.12499499480E+03 0.  0.
          2    1    1    2  501    0  0.80260007947E+02 -0.48655640599E+00  0.73179817480E+01  0.80594407186E+02  0.00000000000E+00 0. -1.
          1    1    1    2  502    0 -0.51949278579E+01 -0.22972743412E+02  0.53347073077E+03  0.53399040703E+03  0.00000000000E+00 0. -1.
         22    1    3    3    0    0 -0.87580245446E+02 -0.29738098979E+02  0.68096154369E+00  0.92493878889E+02  0.00000000000E+00 0.  1.
         22    1    3    3    0    0  0.12515165357E+02  0.53197398797E+02  0.10119555084E+02  0.55578754914E+02  0.00000000000E+00 0.  1.
</event>
<event>
 7    1  0.6103724E-006  0.5914605E+02  0.7818608E-02  0.1533165E+00
          2   -1    0    0  502    0  0.00000000000E+00  0.00000000000E+00  0.20305416884E+04  0.20305416884E+04  0.00000000000E+00 0. -1.
          1   -1    0    0  501    0 -0.00000000000E+00 -0.00000000000E+00 -0.69923751036E+02  0.69923751036E+02  0.00000000000E+00 0. -1.
         25    2    1    2    0    0  0.55111922739E+02  0.23598525094E+02  0.34871260734E+03  0.37526035123E+03  0.12500253705E+03 0.  0.
          2    1    1    2  501    0 -0.41697123690E+02 -0.42155237262E+02 -0.41033735813E+02  0.72107431152E+02  0.00000000000E+00 0. -1.
          1    1    1    2  502    0 -0.13414799049E+02  0.18556712168E+02  0.16529390658E+04  0.16530976570E+04  0.00000000000E+00 0. -1.
         22    1    3    3    0    0  0.70010797587E+02  0.16545391541E+02  0.35128613081E+03  0.35857664098E+03  0.00000000000E+00 0. -1.
         22    1    3    3    0    0 -0.14898874848E+02  0.70531335530E+01 -0.25735234624E+01  0.16683710248E+02  0.00000000000E+00 0. -1.
</event>
<event>
 7    1  0.6103724E-006  0.4579457E+02  0.7818608E-02  0.1576126E+00
          2   -1    0    0  502    0  0.00000000000E+00  0.00000000000E+00  0.15103114762E+04  0.15103114762E+04  0.00000000000E+00 0. -1.
          1   -1    0    0  501    0 -0.00000000000E+00 -0.00000000000E+00 -0.13110294930E+04  0.13110294930E+04  0.00000000000E+00 0. -1.
         25    2    1    2    0    0  0.41139121808E+02 -0.47494771805E+02  0.29099270301E+03  0.32287675997E+03  0.12499787291E+03 0.  0.
          2    1    1    2  501    0 -0.19497724517E+02  0.41415053548E+02 -0.12945779344E+04  0.12953869677E+04  0.00000000000E+00 0. -1.
          1    1    1    2  502    0 -0.21641397291E+02  0.60797182571E+01  0.12028672146E+04  0.12030772415E+04  0.00000000000E+00 0. -1.
         22    1    3    3    0    0  0.64840019266E+01 -0.16037099206E+02 -0.88309135038E+01  0.19422045856E+02  0.00000000000E+00 0.  1.
         22    1    3    3    0    0  0.34655119881E+02 -0.31457672600E+02  0.29982361652E+03  0.30345471412E+03  0.00000000000E+00 0.  1.
</event>
<event>
 7    1  0.6103724E-006  0.7636240E+02  0.7818608E-02  0.1419948E+00
          2   -1    0    0  502    0  0.00000000000E+00  0.00000000000E+00  0.28268066237E+04  0.28268066237E+04  0.00000000000E+00 0. -1.
          1   -1    0    0  501    0 -0.00000000000E+00 -0.00000000000E+00 -0.95865438300E+03  0.95865438300E+03  0.00000000000E+00 0. -1.
         25    2    1    2    0    0 -0.50713359559E+02 -0.41047138121E+02 -0.26800898661E+01  0.14102560472E+03  0.12499730365E+03 0.  0.
          2    1    1    2  501    0 -0.25098740770E+02  0.30707494440E+02 -0.88582702287E+03  0.88671439114E+03  0.00000000000E+00 0. -1.
          1    1    1    2  502    0  0.75812100329E+02  0.10339643681E+02  0.27566593534E+04  0.27577210108E+04  0.00000000000E+00 0. -1.
         22    1    3    3    0    0 -0.27340489265E+02 -0.86034962797E+02 -0.35867182161E+00  0.90275388796E+02  0.00000000000E+00 0.  1.
         22    1    3    3    0    0 -0.23372870293E+02  0.44987824676E+02 -0.23214180445E+01  0.50750215926E+02  0.00000000000E+00 0.  1.
</event>
<event>
 7    1  0.6103724E-006  0.8167428E+02  0.7818608E-02  0.1339876E+00
          2   -1    0    0  502    0  0.00000000000E+00  0.00000000000E+00  0.23049665724E+04  0.23049665724E+04  0.00000000000E+00 0. -1.
          1   -1    0    0  501    0 -0.00000000000E+00 -0.00000000000E+00 -0.69555973940E+03  0.69555973940E+03  0.00000000000E+00 0. -1.
         25    2    1    2    0    0 -0.14486383238E+02  0.15048997502E+03  0.18219293084E+03  0.26772409478E+03  0.12499935597E+03 0.  0.
          2    1    1    2  501    0  0.56183731434E+00 -0.71286890449E+02 -0.65006752164E+03  0.65396476901E+03  0.00000000000E+00 0. -1.
          1    1    1    2  502    0  0.13924545924E+02 -0.79203084575E+02  0.20772814238E+04  0.20788374480E+04  0.00000000000E+00 0. -1.
         22    1    3    3    0    0 -0.33969056233E+02  0.29753259955E+02 -0.35912055765E+01  0.45299558683E+02  0.00000000000E+00 0.  1.
         22    1    3    3    0    0  0.19482672995E+02  0.12073671507E+03  0.18578413642E+03  0.22242453609E+03  0.00000000000E+00 0.  1.
</event>
<event>
 7    1  0.6103724E-006  0.1272035E+03  0.7818608E-02  0.1299744E+00
          2   -1    0    0  502    0  0.00000000000E+00  0.00000000000E+00  0.13786604574E+04  0.13786604574E+04  0.00000000000E+00 0. -1.
          1   -1    0    0  501    0 -0.00000000000E+00 -0.00000000000E+00 -0.62865159721E+02  0.62865159721E+02  0.00000000000E+00 0. -1.
         25    2    1    2    0    0 -0.10436311109E+02 -0.14847716008E+03  0.48410163854E+03  0.52166374015E+03  0.12499711076E+03 0.  0.
          2    1    1    2  501    0  0.62574304483E+02  0.10878989574E+03  0.49472507480E+02  0.13490112673E+03  0.00000000000E+00 0. -1.
          1    1    1    2  502    0 -0.52137993374E+02  0.39687264342E+02  0.78222115163E+03  0.78496075021E+03  0.00000000000E+00 0. -1.
         22    1    3    3    0    0  0.20491795787E+02 -0.15853766789E+03  0.37089067192E+03  0.40387373813E+03  0.00000000000E+00 0.  1.
         22    1    3    3    0    0 -0.30928106896E+02  0.10060507809E+02  0.11321096662E+03  0.11779000202E+03  0.00000000000E+00 0.  1.
</event>
<event>
 7    1  0.6103724E-006  0.8727662E+02  0.7818608E-02  0.1345499E+00
          2   -1    0    0  502    0  0.00000000000E+00  0.00000000000E+00  0.52774926914E+03  0.52774926914E+03  0.00000000000E+00 0. -1.
          1   -1    0    0  501    0 -0.00000000000E+00 -0.00000000000E+00 -0.80352763493E+03  0.80352763493E+03  0.00000000000E+00 0. -1.
         25    2    1    2    0    0  0.54388756666E+02 -0.58459024108E+02 -0.26173215784E+03  0.30083900696E+03  0.12499916523E+03 0.  0.
          2    1    1    2  501    0 -0.92340250622E+02  0.74801895595E+01 -0.51611439402E+03  0.52436317838E+03  0.00000000000E+00 0. -1.
          1    1    1    2  502    0  0.37951493956E+02  0.50978834548E+02  0.50206818607E+03  0.50607471872E+03  0.00000000000E+00 0. -1.
         22    1    3    3    0    0  0.75911806047E+02 -0.15032387661E+02 -0.74440394760E+02  0.10737759239E+03  0.00000000000E+00 0.  1.
         22    1    3    3    0    0 -0.21523049381E+02 -0.43426636447E+02 -0.18729176308E+03  0.19346141457E+03  0.00000000000E+00 0.  1.
</event>
<event>
 7    1  0.6103724E-006  0.3750422E+02  0.7818608E-02  0.1531847E+00
          2   -1    0    0  502    0  0.00000000000E+00  0.00000000000E+00  0.46146039977E+03  0.46146039977E+03  0.00000000000E+00 0. -1.
          1   -1    0    0  501    0 -0.00000000000E+00 -0.00000000000E+00 -0.83227557447E+03  0.83227557447E+03  0.00000000000E+00 0. -1.
         25    2    1    2    0    0  0.20592617399E+02 -0.51205224933E+02  0.45728827785E+02  0.14409164007E+03  0.12500097638E+03 0.  0.
          2    1    1    2  501    0  0.12704522638E+02  0.34137780900E+02 -0.78171412379E+03  0.78256230698E+03  0.00000000000E+00 0. -1.
          1    1    1    2  502    0 -0.33297140037E+02  0.17067444034E+02  0.36517012131E+03  0.36708202718E+03  0.00000000000E+00 0. -1.
         22    1    3    3    0    0  0.10416775569E+02  0.35743645707E+02  0.42484310624E+02  0.56489238541E+02  0.00000000000E+00 0.  1.
         22    1    3    3    0    0  0.10175841830E+02 -0.86948870641E+02  0.32445171611E+01  0.87602401532E+02  0.00000000000E+00 0.  1.
</event>
<event>
 7    1  0.6103724E-006  0.7090427E+02  0.7818608E-02  0.1500775E+00
          2   -1    0    0  502    0  0.00000000000E+00  0.00000000000E+00  0.73544517080E+02  0.73544517080E+02  0.00000000000E+00 0. -1.
          1   -1    0    0  501    0 -0.00000000000E+00 -0.00000000000E+00 -0.97759960605E+03  0.97759960605E+03  0.00000000000E+00 0. -1.
         25    2    1    2    0    0  0.35608031406E+02 -0.77171731924E+02 -0.75444294030E+03  0.76943219808E+03  0.12497339380E+03 0.  0.
          2    1    1    2  501    0  0.86161390569E+01  0.22122499722E+02 -0.19586533244E+03  0.19729893892E+03  0.00000000000E+00 0. -1.
          1    1    1    2  502    0 -0.44224170463E+02  0.55049232202E+02  0.46253183772E+02  0.84412986134E+02  0.00000000000E+00 0. -1.
         22    1    3    3    0    0  0.24672152478E+02  0.32081148626E+02 -0.24169492819E+03  0.24505989782E+03  0.00000000000E+00 0. -1.
         22    1    3    3    0    0  0.10935878928E+02 -0.10925288055E+03 -0.51274801211E+03  0.52437230026E+03  0.00000000000E+00 0. -1.
</event>
<event>
 7    1  0.6103724E-006  0.7818619E+02  0.7818608E-02  0.1360858E+00
          2   -1    0    0  502    0  0.00000000000E+00  0.00000000000E+00  0.11627117826E+04  0.11627117826E+04  0.00000000000E+00 0. -1.
          1   -1    0    0  501    0 -0.00000000000E+00 -0.00000000000E+00 -0.70116660925E+03  0.70116660925E+03  0.00000000000E+00 0. -1.
         25    2    1    2    0    0  0.41045744868E+02 -0.10237693236E+01 -0.39891452100E+02  0.13744056469E+03  0.12495110883E+03 0.  0.
          2    1    1    2  501    0 -0.54683432536E+02 -0.59733916746E+02 -0.60894756055E+03  0.61430900213E+03  0.00000000000E+00 0. -1.
          1    1    1    2  502    0  0.13637687668E+02  0.60757686070E+02  0.11103841860E+04  0.11121288250E+04  0.00000000000E+00 0. -1.
         22    1    3    3    0    0  0.71670508962E+02  0.38100049603E+02 -0.31428938915E+02  0.87040529846E+02  0.00000000000E+00 0. -1.
         22    1    3    3    0    0 -0.30624764094E+02 -0.39123818927E+02 -0.84625131856E+01  0.50400034847E+02  0.00000000000E+00 0. -1.
</event>
<event>
 7    1  0.6103724E-006  0.9720862E+02  0.7818608E-02  0.1472593E+00
          2   -1    0    0  502    0  0.00000000000E+00  0.00000000000E+00  0.35010312520E+04  0.35010312520E+04  0.00000000000E+00 0. -1.
          1   -1    0    0  501    0 -0.00000000000E+00 -0.00000000000E+00 -0.63305530405E+03  0.63305530405E+03  0.00000000000E+00 0. -1.
         25    2    1    2    0    0 -0.44015582910E+02  0.67472345611E+02 -0.41125807326E+03  0.43731890887E+03  0.12499894511E+03 0.  0.
          2    1    1    2  501    0 -0.20398140674E+02  0.53687534177E+01 -0.20755451601E+03  0.20862354798E+03  0.00000000000E+00 0. -1.
          1    1    1    2  502    0  0.64413723584E+02 -0.72841099029E+02  0.34867885372E+04  0.34881440992E+04  0.00000000000E+00 0. -1.
         22    1    3    3    0    0  0.54266959525E+01  0.17278315813E+02  0.18877574284E+01  0.18208592873E+02  0.00000000000E+00 0.  1.
         22    1    3    3    0    0 -0.49442278862E+02  0.50194029798E+02 -0.41314583068E+03  0.41911031600E+03  0.00000000000E+00 0.  1.
</event>
<event>
 7    1  0.6103724E-006  0.4099795E+02  0.7818608E-02  0.1599677E+00
          2   -1    0    0  502    0  0.00000000000E+00  0.00000000000E+00  0.95013114871E+03  0.95013114871E+03  0.00000000000E+00 0. -1.
          1   -1    0    0  501    0 -0.00000000000E+00 -0.00000000000E+00 -0.19997814498E+03  0.19997814498E+03  0.00000000000E+00 0. -1.
         25    2    1    2    0    0  0.42698101825E+02  0.38381341721E+02  0.89084450493E+01  0.13783349324E+03  0.12498982428E+03 0.  0.
          2    1    1    2  501    0 -0.21337697145E+02 -0.34319110891E+02 -0.13236458982E+03  0.13839611024E+03  0.00000000000E+00 0. -1.
          1    1    1    2  502    0 -0.21360404680E+02 -0.40622308303E+01  0.87360914850E+03  0.87387969020E+03  0.00000000000E+00 0. -1.
         22    1    3    3    0    0  0.45990488836E+02  0.61688735179E+01  0.60911867976E+02  0.76573074407E+02  0.00000000000E+00 0. -1.
         22    1    3    3    0    0 -0.32923870109E+01  0.32212468203E+02 -0.52003422926E+02  0.61260418837E+02  0.00000000000E+00 0. -1.
</event>
<event>
 7    1  0.6103724E-006  0.3121105E+02  0.7818608E-02  0.1595051E+00
          2   -1    0    0  502    0  0.00000000000E+00  0.00000000000E+00  0.18988413133E+03  0.18988413133E+03  0.00000000000E+00 0. -1.
          1   -1    0    0  501    0 -0.00000000000E+00 -0.00000000000E+00 -0.12567821586E+04  0.12567821586E+04  0.00000000000E+00 0. -1.
         25    2    1    2    0    0 -0.57205602583E+02 -0.16958790157E+02 -0.36722514960E+03  0.39248315919E+03  0.12501455203E+03 0.  0.
          2    1    1    2  501    0  0.30079048308E+02  0.56999573332E+01 -0.87544197553E+03  0.87597710654E+03  0.00000000000E+00 0. -1.
          1    1    1    2  502    0  0.27126554276E+02  0.11258832824E+02  0.17576909791E+03  0.17820602415E+03  0.00000000000E+00 0. -1.
         22    1    3    3    0    0 -0.16015566969E+02 -0.69638650912E+02 -0.17926834213E+03  0.19298491800E+03  0.00000000000E+00 0.  1.
         22    1    3    3    0    0 -0.41190035615E+02  0.52679860755E+02 -0.18795680747E+03  0.19949824119E+03  0.00000000000E+00 0.  1.
</event>
<event>
 7    1  0.6103724E-006  0.1048557E+03  0.7818608E-02  0.1360190E+00
          2   -1    0    0  502    0  0.00000000000E+00  0.00000000000E+00  0.55566258897E+03  0.55566258897E+03  0.00000000000E+00 0. -1.
          1   -1    0    0  501    0 -0.00000000000E+00 -0.00000000000E+00 -0.13036620233E+04  0.13036620233E+04  0.00000000000E+00 0. -1.
         25    2    1    2    0    0  0.73921965785E+02 -0.48944189093E+02 -0.14420536394E+03  0.21042997801E+03  0.12500239192E+03 0.  0.
          2    1    1    2  501    0 -0.10569777279E+03  0.14731089754E+02 -0.11227659733E+04  0.11278264294E+04  0.00000000000E+00 0. -1.
          1    1    1    2  502    0  0.31775807007E+02  0.34213099339E+02  0.51897190290E+03  0.52106820482E+03  0.00000000000E+00 0. -1.
         22    1    3    3    0    0 -0.19198989612E+02 -0.49847223050E+02 -0.83974650528E+02  0.99524312503E+02  0.00000000000E+00 0. -1.
         22    1    3    3    0    0  0.93120955396E+02  0.90303395737E+00 -0.60230713413E+02  0.11090566551E+03  0.00000000000E+00 0. -1.
</event>
<event>
 7    1  0.6103724E-006  0.2317800E+03  0.7818608E-02  0.1170590E+00
          2   -1    0    0  502    0  0.00000000000E+00  0.00000000000E+00  0.15655479889E+04  0.15655479889E+04  0.00000000000E+00 0. -1.
          1   -1    0    0  501    0 -0.00000000000E+00 -0.00000000000E+00 -0.71529977145E+03  0.71529977145E+03  0.00000000000E+00 0. -1.
         25    2    1    2    0    0 -0.30391963788E+03 -0.14596978697E+03  0.28601890781E+02  0.36071767736E+03  0.12499939842E+03 0.  0.
          2    1    1    2  501    0  0.21663389734E+03  0.42464377406E+02 -0.52352316679E+03  0.56816368679E+03  0.00000000000E+00 0. -1.
          1    1    1    2  502    0  0.87285740541E+02  0.10350540957E+03  0.13451694935E+04  0.13519663962E+04  0.00000000000E+00 0. -1.
         22    1    3    3    0    0 -0.96715273056E+02 -0.11348071442E+03  0.47274481509E+00  0.14910378960E+03  0.00000000000E+00 0.  1.
         22    1    3    3    0    0 -0.20720436483E+03 -0.32489072559E+02  0.28129145966E+02  0.21161388776E+03  0.00000000000E+00 0.  1.
</event>
<event>
 7    1  0.6103724E-006  0.6433462E+02  0.7818608E-02  0.1477284E+00
          2   -1    0    0  502    0  0.00000000000E+00  0.00000000000E+00  0.88880351655E+03  0.88880351655E+03  0.00000000000E+00 0. -1.
          1   -1    0    0  501    0 -0.00000000000E+00 -0.00000000000E+00 -0.79633904714E+03  0.79633904714E+03  0.00000000000E+00 0. -1.
         25    2    1    2    0    0 -0.79882263633E+01 -0.34880613019E+02 -0.28389899604E+03  0.31225700392E+03  0.12500131046E+03 0.  0.
          2    1    1    2  501    0  0.87133728508E+01 -0.29567684800E+02 -0.49659511726E+03  0.49755088316E+03  0.00000000000E+00 0. -1.
          1    1    1    2  502    0 -0.72514648754E+00  0.64448297820E+02  0.87295858271E+03  0.87533467660E+03  0.00000000000E+00 0. -1.
         22    1    3    3    0    0 -0.51626654513E+02  0.52252212931E+01 -0.21592449771E+03  0.22207206737E+03  0.00000000000E+00 0. -1.
         22    1    3    3    0    0  0.43638428149E+02 -0.40105834313E+02 -0.67974498331E+02  0.90184936550E+02  0.00000000000E+00 0. -1.
</event>
<event>
 7    1  0.6103724E-006  0.3815639E+03  0.7818608E-02  0.1303661E+00
          2   -1    0    0  502    0  0.00000000000E+00  0.00000000000E+00  0.19012682024E+04  0.19012682024E+04  0.00000000000E+00 0. -1.
          1   -1    0    0  501    0 -0.00000000000E+00 -0.00000000000E+00 -0.29654996005E+03  0.29654996005E+03  0.00000000000E+00 0. -1.
         25    2    1    2    0    0  0.12465747390E+03  0.35295720056E+03  0.95572533803E+03  0.10339992129E+04  0.12500071748E+03 0.  0.
          2    1    1    2  501    0 -0.14571073382E+03 -0.35383284036E+03 -0.11497505066E+03  0.39956045743E+03  0.00000000000E+00 0. -1.
          1    1    1    2  502    0  0.21053259917E+02  0.87563979738E+00  0.76396795501E+03  0.76425849213E+03  0.00000000000E+00 0. -1.
         22    1    3    3    0    0  0.24121294599E+02 -0.10949598901E+01  0.35820931111E+02  0.43199246475E+02  0.00000000000E+00 0.  1.
         22    1    3    3    0    0  0.10053617930E+03  0.35405216045E+03  0.91990440692E+03  0.99079996646E+03  0.00000000000E+00 0.  1.
</event>
<event>
 7    1  0.6103724E-006  0.4669497E+02  0.7818608E-02  0.1497015E+00
          2   -1    0    0  502    0  0.00000000000E+00  0.00000000000E+00  0.15879318759E+02  0.15879318759E+02  0.00000000000E+00 0. -1.
          1   -1    0    0  501    0 -0.00000000000E+00 -0.00000000000E+00 -0.15740577988E+04  0.15740577988E+04  0.00000000000E+00 0. -1.
         25    2    1    2    0    0  0.14821658617E+02  0.44601051159E+02 -0.10143645249E+04  0.10231176370E+04  0.12500149743E+03 0.  0.
          2    1    1    2  501    0  0.22172681365E+02 -0.44402928532E+02 -0.52099386785E+03  0.52335251810E+03  0.00000000000E+00 0. -1.
          1    1    1    2  502    0 -0.36994339982E+02 -0.19812262647E+00 -0.22820087249E+02  0.43466962458E+02  0.00000000000E+00 0. -1.
         22    1    3    3    0    0  0.10585642859E+02 -0.33878525363E+02 -0.11567513871E+03  0.12099813234E+03  0.00000000000E+00 0.  1.
         22    1    3    3    0    0  0.42360157584E+01  0.78479576521E+02 -0.89868938621E+03  0.90211950463E+03  0.00000000000E+00 0.  1.
</event>
<event>
 7    1  0.6103724E-006  0.4387179E+02  0.7818608E-02  0.1511539E+00
          2   -1    0    0  502    0  0.00000000000E+00  0.00000000000E+00  0.76369846933E+03  0.76369846933E+03  0.00000000000E+00 0. -1.
          1   -1    0    0  501    0 -0.00000000000E+00 -0.00000000000E+00 -0.95482582285E+03  0.95482582285E+03  0.00000000000E+00 0. -1.
         25    2    1    2    0    0  0.42317903016E+01  0.15144121814E+02 -0.73244808430E+01  0.12620261813E+03  0.12500480122E+03 0.  0.
          2    1    1    2  501    0  0.23734109490E+02 -0.37263829113E+02 -0.88706084246E+03  0.88816036791E+03  0.00000000000E+00 0. -1.
          1    1    1    2  502    0 -0.27965899792E+02  0.22119707299E+02  0.70325796978E+03  0.70416130614E+03  0.00000000000E+00 0. -1.
         22    1    3    3    0    0 -0.15422251439E+02 -0.39965475079E+02  0.33900109070E+02  0.54628769277E+02  0.00000000000E+00 0. -1.
         22    1    3    3    0    0  0.19654041741E+02  0.55109596893E+02 -0.41224589913E+02  0.71573848855E+02  0.00000000000E+00 0. -1.
</event>
<event>
 7    1  0.6103724E-006  0.1058535E+03  0.7818608E-02  0.1358389E+00
          2   -1    0    0  502    0  0.00000000000E+00  0.00000000000E+00  0.66693622047E+03  0.66693622047E+03  0.00000000000E+00 0. -1.
          1   -1    0    0  501    0 -0.00000000000E+00 -0.00000000000E+00 -0.15167086036E+03  0.15167086036E+03  0.00000000000E+00 0. -1.
         25    2    1    2    0    0 -0.14261164685E+03  0.13213331381E+02  0.29948517942E+03  0.35472449967E+03  0.12500169611E+03 0.  0.
          2    1    1    2  501    0  0.46275882704E+02 -0.79792748607E+01 -0.11240003648E+03  0.12181500050E+03  0.00000000000E+00 0. -1.
          1    1    1    2  502    0  0.96335764143E+02 -0.52340565201E+01  0.32818021716E+03  0.34206758066E+03  0.00000000000E+00 0. -1.
         22    1    3    3    0    0 -0.75711187418E+01  0.25335684546E+02  0.51576157975E+00  0.26447774205E+02  0.00000000000E+00 0.  1.
         22    1    3    3    0    0 -0.13504052811E+03 -0.12122353165E+02  0.29896941784E+03  0.32827672546E+03  0.00000000000E+00 0.  1.
</event>
<event>
 7    1  0.6103724E-006  0.8589746E+02  0.7818608E-02  0.1487897E+00
          2   -1    0    0  502    0  0.00000000000E+00  0.00000000000E+00  0.90741608838E+03  0.90741608838E+03  0.00000000000E+00 0. -1.
          1   -1    0    0  501    0 -0.00000000000E+00 -0.00000000000E+00 -0.20932596754E+03  0.20932596754E+03  0.00000000000E+00 0. -1.
         25    2    1    2    0    0  0.63048937502E+02  0.86437670486E+02 -0.93516954998E+02  0.18925658150E+03  0.12500397342E+03 0.  0.
          2    1    1    2  501    0 -0.13203626837E+02 -0.16873102750E+02 -0.64060800501E+02  0.67548675182E+02  0.00000000000E+00 0. -1.
          1    1    1    2  502    0 -0.49845310665E+02 -0.69564567736E+02  0.85566787634E+03  0.85993679924E+03  0.00000000000E+00 0. -1.
         22    1    3    3    0    0  0.55963746233E+02  0.10456046945E+03 -0.11148648289E+03  0.16276998658E+03  0.00000000000E+00 0. -1.
         22    1    3    3    0    0  0.70851912694E+01 -0.18122798969E+02  0.17969527893E+02  0.26486594920E+02  0.00000000000E+00 0. -1.
</event>
<event>
 7    1  0.6103724E-006  0.2987961E+02  0.7818608E-02  0.1611265E+00
          2   -1    0    0  502    0  0.00000000000E+00  0.00000000000E+00  0.56650344126E+02  0.56650344126E+02  0.00000000000E+00 0. -1.
          1   -1    0    0  501    0 -0.00000000000E+00 -0.00000000000E+00 -0.27650600616E+03  0.27650600616E+03  0.00000000000E+00 0. -1.
         25    2    1    2    0    0  0.31619719754E+02 -0.44382133157E+02 -0.11965990540E+03  0.18142044764E+03  0.12500122175E+03 0.  0.
          2    1    1    2  501    0 -0.22001161857E+02  0.18258209067E+02 -0.11617235230E+03  0.11963874272E+03  0.00000000000E+00 0. -1.
          1    1    1    2  502    0 -0.96185578970E+01  0.26123924090E+02  0.15976595669E+02  0.32097159922E+02  0.00000000000E+00 0. -1.
         22    1    3    3    0    0 -0.42908523444E+02 -0.40376309557E+02 -0.71269939839E+02  0.92470493035E+02  0.00000000000E+00 0. -1.
         22    1    3    3    0    0  0.74528243198E+02 -0.40058235999E+01 -0.48389965563E+02  0.88949954604E+02  0.00000000000E+00 0. -1.
</event>
<event>
 7    1  0.6103724E-006  0.1866086E+03  0.7818608E-02  0.1308344E+00
          2   -1    0    0  502    0  0.00000000000E+00  0.00000000000E+00  0.40344656178E+03  0.40344656178E+03  0.00000000000E+00 0. -1.
          1   -1    0    0  501    0 -0.00000000000E+00 -0.00000000000E+00 -0.31162219943E+03  0.31162219943E+03  0.00000000000E+00 0. -1.
         25    2    1    2    0    0 -0.42341321163E+02  0.14986784186E+03 -0.16084555456E+03  0.25641565175E+03  0.12499814614E+03 0.  0.
          2    1    1    2  501    0 -0.32546929143E+02  0.25394727495E+02 -0.71525656100E+02  0.82583983082E+02  0.00000000000E+00 0. -1.
          1    1    1    2  502    0  0.74888250307E+02 -0.17526256936E+03  0.32419557301E+03  0.37606912637E+03  0.00000000000E+00 0. -1.
         22    1    3    3    0    0 -0.40318463679E+02  0.17349585498E+02  0.49351980537E+01  0.44169478266E+02  0.00000000000E+00 0. -1.
         22    1    3    3    0    0 -0.20228574841E+01  0.13251825636E+03 -0.16578075261E+03  0.21224617348E+03  0.00000000000E+00 0. -1.
</event>
<event>
 7    1  0.6103724E-006  0.7632195E+02  0.7818608E-02  0.1348337E+00
          2   -1    0    0  502    0  0.00000000000E+00  0.00000000000E+00  0.37438009243E+03  0.37438009243E+03  0.00000000000E+00 0. -1.
          1   -1    0    0  501    0 -0.00000000000E+00 -0.00000000000E+00 -0.23725456797E+04  0.23725456797E+04  0.00000000000E+00 0. -1.
         25    2    1    2    0    0 -0.15955979622E+01  0.38799628527E+01  0.33249642073E+02  0.12941636777E+03  0.12500183000E+03 0.  0.
          2    1    1    2  501    0  0.47550538585E+02  0.59699133749E+02 -0.23185729842E+04  0.23198288134E+04  0.00000000000E+00 0. -1.
          1    1    1    2  502    0 -0.45954940623E+02 -0.63579096602E+02  0.28715775484E+03  0.29768059100E+03  0.00000000000E+00 0. -1.
         22    1    3    3    0    0  0.22449474871E+02 -0.14488670830E+02 -0.41170137421E+02  0.49080349628E+02  0.00000000000E+00 0. -1.
         22    1    3    3    0    0 -0.24045072833E+02  0.18368633683E+02  0.74419779494E+02  0.80336018142E+02  0.00000000000E+00 0. -1.
</event>
<event>
 7    1  0.6103724E-006  0.3779224E+02  0.7818608E-02  0.1543136E+00
          2   -1    0    0  502    0  0.00000000000E+00  0.00000000000E+00  0.27548004131E+03  0.27548004131E+03  0.00000000000E+00 0. -1.
          1   -1    0    0  501    0 -0.00000000000E+00 -0.00000000000E+00 -0.17627280544E+03  0.17627280544E+03  0.00000000000E+00 0. -1.
         25    2    1    2    0    0 -0.42036102876E+02 -0.85541967702E+01  0.11666750694E+03  0.17628257809E+03  0.12499612768E+03 0.  0.
          2    1    1    2  501    0  0.22639164771E+02 -0.24798780729E+02 -0.14157196647E+03  0.14549959793E+03  0.00000000000E+00 0. -1.
          1    1    1    2  502    0  0.19396938104E+02  0.33352977499E+02  0.12411169540E+03  0.12997067073E+03  0.00000000000E+00 0. -1.
         22    1    3    3    0    0 -0.69991589947E+01 -0.58941618724E+02  0.21675031000E+02  0.63189473913E+02  0.00000000000E+00 0. -1.
         22    1    3    3    0    0 -0.35036943881E+02  0.50387421954E+02  0.94992475943E+02  0.11309310418E+03  0.00000000000E+00 0. -1.
</event>
<event>
 7    1  0.6103724E-006  0.9775077E+02  0.7818608E-02  0.1362338E+00
          2   -1    0    0  502    0  0.00000000000E+00  0.00000000000E+00  0.10710526451E+04  0.10710526451E+04  0.00000000000E+00 0. -1.
          1   -1    0    0  501    0 -0.00000000000E+00 -0.00000000000E+00 -0.38040724110E+03  0.38040724110E+03  0.00000000000E+00 0. -1.
         25    2    1    2    0    0  0.10923067061E+02  0.63539130242E+02  0.29011108559E+03  0.32240787331E+03  0.12500344125E+03 0.  0.
          2    1    1    2  501    0 -0.57147027773E+02 -0.80368315170E+02 -0.35677178245E+03  0.37014990695E+03  0.00000000000E+00 0. -1.
          1    1    1    2  502    0  0.46223960712E+02  0.16829184928E+02  0.75730610086E+03  0.75890210594E+03  0.00000000000E+00 0. -1.
         22    1    3    3    0    0 -0.35844015614E+02  0.24833578009E+02  0.24644165296E+02  0.50088271434E+02  0.00000000000E+00 0.  1.
         22    1    3    3    0    0  0.46767082675E+02  0.38705552233E+02  0.26546692029E+03  0.27231960187E+03  0.00000000000E+00 0.  1.
</event>
<event>
 7    1  0.6103724E-006  0.6765987E+02  0.7818608E-02  0.1390893E+00
          2   -1    0    0  502    0  0.00000000000E+00  0.00000000000E+00  0.29086553592E+04  0.29086553592E+04  0.00000000000E+00 0. -1.
          1   -1    0    0  501    0 -0.00000000000E+00 -0.00000000000E+00 -0.88932699375E+03  0.88932699375E+03  0.00000000000E+00 0. -1.
         25    2    1    2    0    0  0.94507192493E+02  0.28715340581E+02  0.25187770350E+04  0.25238103272E+04  0.12499854084E+03 0.  0.
          2    1    1    2  501    0 -0.43304900584E+02 -0.51976040114E+02 -0.88346907218E+03  0.88605554265E+03  0.00000000000E+00 0. -1.
          1    1    1    2  502    0 -0.51202291909E+02  0.23260699533E+02  0.38402040263E+03  0.38811648312E+03  0.00000000000E+00 0. -1.
         22    1    3    3    0    0  0.31052554739E+02  0.38757254375E+02  0.29842971135E+03  0.30253376429E+03  0.00000000000E+00 0.  1.
         22    1    3    3    0    0  0.63454637754E+02 -0.10041913794E+02  0.22203473237E+04  0.22212765629E+04  0.00000000000E+00 0.  1.
</event>
<event>
 7    1  0.6103724E-006  0.1277047E+03  0.7818608E-02  0.1324485E+00
          2   -1    0    0  502    0  0.00000000000E+00  0.00000000000E+00  0.95583117260E+02  0.95583117260E+02  0.00000000000E+00 0. -1.
          1   -1    0    0  501    0 -0.00000000000E+00 -0.00000000000E+00 -0.16552998221E+04  0.16552998221E+04  0.00000000000E+00 0. -1.
         25    2    1    2    0    0 -0.88045525109E+01 -0.96301972118E+02 -0.35816827479E+03  0.39148902017E+03  0.12501019906E+03 0.  0.
          2    1    1    2  501    0 -0.29189583907E+02  0.13206815864E+03 -0.12678373693E+04  0.12750316173E+04  0.00000000000E+00 0. -1.
          1    1    1    2  502    0  0.37994136418E+02 -0.35766186520E+02  0.66288939245E+02  0.84362301809E+02  0.00000000000E+00 0. -1.
         22    1    3    3    0    0 -0.21895853990E+02 -0.11882411706E+03 -0.22103087012E+03  0.25189927503E+03  0.00000000000E+00 0.  1.
         22    1    3    3    0    0  0.13091301479E+02  0.22522144944E+02 -0.13713740468E+03  0.13958974514E+03  0.00000000000E+00 0.  1.
</event>
<event>
 7    1  0.6103724E-006  0.1817456E+03  0.7818608E-02  0.1239735E+00
          2   -1    0    0  502    0  0.00000000000E+00  0.00000000000E+00  0.52050530066E+03  0.52050530066E+03  0.00000000000E+00 0. -1.
          1   -1    0    0  501    0 -0.00000000000E+00 -0.00000000000E+00 -0.76458495585E+03  0.76458495585E+03  0.00000000000E+00 0. -1.
         25    2    1    2    0    0 -0.96185509545E+02  0.12513911868E+03 -0.24342731968E+03  0.31590362784E+03  0.12500716318E+03 0.  0.
          2    1    1    2  501    0  0.17401526999E+03 -0.99396839563E+02 -0.46043310883E+03  0.50215504937E+03  0.00000000000E+00 0. -1.
          1    1    1    2  502    0 -0.77829760449E+02 -0.25742279121E+02  0.45978077332E+03  0.46703157930E+03  0.00000000000E+00 0. -1.
         22    1    3    3    0    0 -0.10461229213E+02 -0.23581345749E+02 -0.13953018018E+02  0.29329232785E+02  0.00000000000E+00 0.  1.
         22    1    3    3    0    0 -0.85724280332E+02  0.14872046443E+03 -0.22947430166E+03  0.28657439506E+03  0.00000000000E+00 0.  1.
</event>
<event>
 7    1  0.6103724E-006  0.8813485E+02  0.7818608E-02  0.1363364E+00
          2   -1    0    0  502    0  0.00000000000E+00  0.00000000000E+00  0.73363107904E+03  0.73363107904E+03  0.00000000000E+00 0. -1.
          1   -1    0    0  501    0 -0.00000000000E+00 -0.00000000000E+00 -0.28619254302E+03  0.28619254302E+03  0.00000000000E+00 0. -1.
         25    2    1    2    0    0 -0.36772949766E+02 -0.55534298757E+02 -0.14900332847E+03  0.20558045369E+03  0.12500009148E+03 0.  0.
          2    1    1    2  501    0  0.42902234487E+02 -0.32946418062E+02 -0.99189398012E+02  0.11298055083E+03  0.00000000000E+00 0. -1.
          1    1    1    2  502    0 -0.61292847208E+01  0.88480716819E+02  0.69563126251E+03  0.70126261754E+03  0.00000000000E+00 0. -1.
         22    1    3    3    0    0  0.28109557179E+02 -0.53683646607E+02 -0.12011125810E+03  0.13453176368E+03  0.00000000000E+00 0. -1.
         22    1    3    3    0    0 -0.64882506945E+02 -0.18506521506E+01 -0.28892070372E+02  0.71048690003E+02  0.00000000000E+00 0. -1.
</event>
<event>
 7    1  0.6103724E-006  0.1704669E+03  0.7818608E-02  0.1312740E+00
          2   -1    0    0  502    0  0.00000000000E+00  0.00000000000E+00  0.14186438187E+04  0.14186438187E+04  0.00000000000E+00 0. -1.
          1   -1    0    0  501    0 -0.00000000000E+00 -0.00000000000E+00 -0.10736064806E+03  0.10736064806E+03  0.00000000000E+00 0. -1.
         25    2    1    2    0    0  0.12014856473E+03  0.65745841128E+02  0.25296149695E+03  0.31364270122E+03  0.12499612736E+03 0.  0.
          2    1    1    2  501    0  0.42951138325E+02  0.63983569755E+01 -0.63237321079E+02  0.76711785487E+02  0.00000000000E+00 0. -1.
          1    1    1    2  502    0 -0.16309970305E+03 -0.72144198103E+02  0.11215589948E+04  0.11356499801E+04  0.00000000000E+00 0. -1.
         22    1    3    3    0    0  0.12065035916E+02  0.57509205279E+02  0.30563101429E+02  0.66234258148E+02  0.00000000000E+00 0.  1.
         22    1    3    3    0    0  0.10808352881E+03  0.82366358492E+01  0.22239839552E+03  0.24740844307E+03  0.00000000000E+00 0.  1.
</event>
<event>
 7    1  0.6103724E-006  0.1245293E+03  0.7818608E-02  0.1279849E+00
          2   -1    0    0  502    0  0.00000000000E+00  0.00000000000E+00  0.14301319017E+04  0.14301319017E+04  0.00000000000E+00 0. -1.
          1   -1    0    0  501    0 -0.00000000000E+00 -0.00000000000E+00 -0.49621563514E+03  0.49621563514E+03  0.00000000000E+00 0. -1.
         25    2    1    2    0    0 -0.73179066620E+02  0.13323436499E+03 -0.91069646692E+02  0.21685191754E+03  0.12499800713E+03 0.  0.
          2    1    1    2  501    0  0.10733342895E+03 -0.60179520925E+02 -0.32995656851E+03  0.35215533051E+03  0.00000000000E+00 0. -1.
          1    1    1    2  502    0 -0.34154362326E+02 -0.73054844068E+02  0.13549424818E+04  0.13573402888E+04  0.00000000000E+00 0. -1.
         22    1    3    3    0    0 -0.34828070893E+02  0.14863032150E+03 -0.86005708257E+02  0.17521686233E+03  0.00000000000E+00 0.  1.
         22    1    3    3    0    0 -0.38350995727E+02 -0.15395956506E+02 -0.50639384354E+01  0.41635055212E+02  0.00000000000E+00 0.  1.
</event>
<event>
 7    1  0.6103724E-006  0.9484157E+02  0.7818608E-02  0.1372034E+00
          2   -1    0    0  502    0  0.00000000000E+00  0.00000000000E+00  0.10499096223E+04  0.10499096223E+04  0.00000000000E+00 0. -1.
          1   -1    0    0  501    0 -0.00000000000E+00 -0.00000000000E+00 -0.65746296033E+02  0.65746296033E+02  0.00000000000E+00 0. -1.
         25    2    1    2    0    0  0.13693274702E+03 -0.73088851022E+01  0.46902458349E+03  0.50439306991E+03  0.12499724815E+03 0.  0.
          2    1    1    2  501    0 -0.90331256564E+02  0.11336922895E+02 -0.29297551625E+01  0.91087019923E+02  0.00000000000E+00 0. -1.
          1    1    1    2  502    0 -0.46601490455E+02 -0.40280377929E+01  0.51806849791E+03  0.52017582848E+03  0.00000000000E+00 0. -1.
         22    1    3    3    0    0  0.94425069221E+02 -0.28946980132E+02  0.13659643080E+03  0.16856039352E+03  0.00000000000E+00 0.  1.
         22    1    3    3    0    0  0.42507677799E+02  0.21638095030E+02  0.33242815269E+03  0.33583267639E+03  0.00000000000E+00 0.  1.
</event>
<event>
 7    1  0.7714193E-006  0.7007380E+02  0.7818608E-02  0.1377536E+00
          2   -1    0    0  502    0  0.00000000000E+00  0.00000000000E+00  0.71467310463E+03  0.71467310463E+03  0.00000000000E+00 0. -1.
          1   -1    0    0  501    0 -0.00000000000E+00 -0.00000000000E+00 -0.19822750830E+04  0.19822750830E+04  0.00000000000E+00 0. -1.
         25    2    1    2    0    0 -0.10758117090E+03  0.48535779340E+02 -0.34337917393E+03  0.38400783599E+03  0.12499332302E+03 0.  0.
          2    1    1    2  501    0  0.60431798983E+02  0.30516362739E+01 -0.16162554407E+04  0.16173876977E+04  0.00000000000E+00 0. -1.
          1    1    1    2  502    0  0.47149371916E+02 -0.51587415614E+02  0.69203263631E+03  0.69555265397E+03  0.00000000000E+00 0. -1.
         22    1    3    3    0    0 -0.13657278794E+02 -0.13822119734E+02  0.30739530346E+01  0.19672860627E+02  0.00000000000E+00 0. -1.
         22    1    3    3    0    0 -0.93923892105E+02  0.62357899074E+02 -0.34645312697E+03  0.36433497536E+03  0.00000000000E+00 0. -1.
</event>
<event>
 7    1  0.6103724E-006  0.4228873E+02  0.7818608E-02  0.1519658E+00
          2   -1    0    0  502    0  0.00000000000E+00  0.00000000000E+00  0.12019215223E+04  0.12019215223E+04  0.00000000000E+00 0. -1.
          1   -1    0    0  501    0 -0.00000000000E+00 -0.00000000000E+00 -0.91449584113E+02  0.91449584113E+02  0.00000000000E+00 0. -1.
         25    2    1    2    0    0 -0.64481467352E+02  0.24177527294E+02  0.46747876768E+02  0.15018169186E+03  0.12500705632E+03 0.  0.
          2    1    1    2  501    0  0.22441345222E+02 -0.26891432499E+02 -0.31529394577E+02  0.47126063273E+02  0.00000000000E+00 0. -1.
          1    1    1    2  502    0  0.42040122131E+02  0.27139052045E+01  0.10952534560E+04  0.10960633513E+04  0.00000000000E+00 0. -1.
         22    1    3    3    0    0 -0.19051455305E+00 -0.46407042680E+02  0.23015239035E+02  0.51801072710E+02  0.00000000000E+00 0. -1.
         22    1    3    3    0    0 -0.64290952799E+02  0.70584569974E+02  0.23732637732E+02  0.98380619148E+02  0.00000000000E+00 0. -1.
</event>
<event>
 7    1  0.6103724E-006  0.9097896E+02  0.7818608E-02  0.1344969E+00
          2   -1    0    0  502    0  0.00000000000E+00  0.00000000000E+00  0.82371482762E+03  0.82371482762E+03  0.00000000000E+00 0. -1.
          1   -1    0    0  501    0 -0.00000000000E+00 -0.00000000000E+00 -0.20113879119E+03  0.20113879119E+03  0.00000000000E+00 0. -1.
         25    2    1    2    0    0  0.12253514356E+03  0.84218030276E+02  0.11011956113E+03  0.22329066688E+03  0.12499946456E+03 0.  0.
          2    1    1    2  501    0 -0.53699055037E+02 -0.29453641556E+02 -0.13495532998E+03  0.14820272131E+03  0.00000000000E+00 0. -1.
          1    1    1    2  502    0 -0.68836088528E+02 -0.54764388720E+02  0.64741180527E+03  0.65336023063E+03  0.00000000000E+00 0. -1.
         22    1    3    3    0    0  0.10661989699E+03  0.59822793871E+02  0.13702602375E+03  0.18363741527E+03  0.00000000000E+00 0.  1.
         22    1    3    3    0    0  0.15915246571E+02  0.24395236406E+02 -0.26906462619E+02  0.39653251611E+02  0.00000000000E+00 0.  1.
</event>
<event>
 7    1  0.6103724E-006  0.8337974E+02  0.7818608E-02  0.1406327E+00
          2   -1    0    0  502    0  0.00000000000E+00  0.00000000000E+00  0.10031641890E+04  0.10031641890E+04  0.00000000000E+00 0. -1.
          1   -1    0    0  501    0 -0.00000000000E+00 -0.00000000000E+00 -0.43031670307E+03  0.43031670307E+03  0.00000000000E+00 0. -1.
         25    2    1    2    0    0 -0.54227880014E+02 -0.82735685832E+02  0.64058647369E+02  0.17181596821E+03  0.12502543721E+03 0.  0.
          2    1    1    2  501    0  0.13860617401E+02  0.81919767309E+02 -0.37138521838E+03  0.38056529718E+03  0.00000000000E+00 0. -1.
          1    1    1    2  502    0  0.40367262613E+02  0.81591852354E+00  0.88017405694E+03  0.88109962668E+03  0.00000000000E+00 0. -1.
         22    1    3    3    0    0 -0.42070445181E+02  0.17561042140E+02  0.53417329577E+02  0.70226231979E+02  0.00000000000E+00 0. -1.
         22    1    3    3    0    0 -0.12157434832E+02 -0.10029672797E+03  0.10641317792E+02  0.10158973623E+03  0.00000000000E+00 0. -1.
</event>
<event>
 7    1  0.6103724E-006  0.2679638E+03  0.7818608E-02  0.1162109E+00
          2   -1    0    0  502    0  0.00000000000E+00  0.00000000000E+00  0.13069974445E+04  0.13069974445E+04  0.00000000000E+00 0. -1.
          1   -1    0    0  501    0 -0.00000000000E+00 -0.00000000000E+00 -0.74231502174E+03  0.74231502174E+03  0.00000000000E+00 0. -1.
         25    2    1    2    0    0  0.18499173264E+03  0.12968886019E+03  0.47669162794E+03  0.54212440431E+03  0.12499127969E+03 0.  0.
          2    1    1    2  501    0 -0.30827680954E+01  0.12908617137E+03 -0.67184538169E+03  0.68414103809E+03  0.00000000000E+00 0. -1.
          1    1    1    2  502    0 -0.18190896454E+03 -0.25877503156E+03  0.75983617653E+03  0.82304702387E+03  0.00000000000E+00 0. -1.
         22    1    3    3    0    0  0.54547071661E+02  0.68995196254E+02  0.30849730971E+03  0.32079013424E+03  0.00000000000E+00 0. -1.
         22    1    3    3    0    0  0.13044466098E+03  0.60693663932E+02  0.16819431823E+03  0.22133427006E+03  0.00000000000E+00 0. -1.
</event>
<event>
 7    1  0.6103724E-006  0.5128519E+02  0.7818608E-02  0.1523763E+00
          2   -1    0    0  502    0  0.00000000000E+00  0.00000000000E+00  0.52844754443E+02  0.52844754443E+02  0.00000000000E+00 0. -1.
          1   -1    0    0  501    0 -0.00000000000E+00 -0.00000000000E+00 -0.12071312595E+04  0.12071312595E+04  0.00000000000E+00 0. -1.
         25    2    1    2    0    0  0.27213317066E+02  0.31582533463E+02 -0.59016790522E+03  0.60469986159E+03  0.12500298081E+03 0.  0.
          2    1    1    2  501    0  0.22372218072E+02 -0.17004354454E+02 -0.59460627553E+03  0.59526992794E+03  0.00000000000E+00 0. -1.
          1    1    1    2  502    0 -0.49585535138E+02 -0.14578179008E+02  0.30487675696E+02  0.60006224406E+02  0.00000000000E+00 0. -1.
         22    1    3    3    0    0  0.72656342126E+02  0.96493129726E+01 -0.44539516585E+03  0.45138554147E+03  0.00000000000E+00 0. -1.
         22    1    3    3    0    0 -0.45443025060E+02  0.21933220490E+02 -0.14477273937E+03  0.15331432012E+03  0.00000000000E+00 0. -1.
</event>
<event>
 7    1  0.6103724E-006  0.1089889E+03  0.7818608E-02  0.1324173E+00
          2   -1    0    0  502    0  0.00000000000E+00  0.00000000000E+00  0.32343408709E+03  0.32343408709E+03  0.00000000000E+00 0. -1.
          1   -1    0    0  501    0 -0.00000000000E+00 -0.00000000000E+00 -0.37719952954E+03  0.37719952954E+03  0.00000000000E+00 0. -1.
         25    2    1    2    0    0  0.52576675742E+02 -0.41354359700E+02 -0.12510605238E+03  0.18908012953E+03  0.12500112456E+03 0.  0.
          2    1    1    2  501    0  0.57870470068E+02  0.20246998226E+02 -0.20459622167E+03  0.21358498581E+03  0.00000000000E+00 0. -1.
          1    1    1    2  502    0 -0.11044714581E+03  0.21107361474E+02  0.27593683160E+03  0.29796850129E+03  0.00000000000E+00 0. -1.
         22    1    3    3    0    0  0.41522584338E+02 -0.67766455883E+02 -0.22565663149E+02  0.82617351122E+02  0.00000000000E+00 0.  1.
         22    1    3    3    0    0  0.11054091404E+02  0.26412096183E+02 -0.10254038923E+03  0.10646277840E+03  0.00000000000E+00 0.  1.
</event>
<event>
 7    1  0.6103724E-006  0.1115744E+03  0.7818608E-02  0.1260800E+00
          2   -1    0    0  502    0  0.00000000000E+00  0.00000000000E+00  0.11254932450E+04  0.11254932450E+04  0.00000000000E+00 0. -1.
          1   -1    0    0  501    0 -0.00000000000E+00 -0.00000000000E+00 -0.10085772029E+04  0.10085772029E+04  0.00000000000E+00 0. -1.
         25    2    1    2    0    0 -0.39265925068E+02  0.18421563178E+03  0.25295347137E+03  0.33924846585E+03  0.12500740393E+03 0.  0.
          2    1    1    2  501    0 -0.34868691559E+02 -0.10540012210E+03 -0.95868364332E+03  0.96509032704E+03  0.00000000000E+00 0. -1.
          1    1    1    2  502    0  0.74134616627E+02 -0.78815509680E+02  0.82264621398E+03  0.82973165501E+03  0.00000000000E+00 0. -1.
         22    1    3    3    0    0 -0.82670986809E+02  0.96164616165E+02  0.15884465587E+03  0.20325784157E+03  0.00000000000E+00 0. -1.
         22    1    3    3    0    0  0.43405061740E+02  0.88051015615E+02  0.94108815503E+02  0.13599062428E+03  0.00000000000E+00 0. -1.
</event>
<event>
 7    1  0.6103724E-006  0.6659180E+02  0.7818608E-02  0.1520146E+00
          2   -1    0    0  502    0  0.00000000000E+00  0.00000000000E+00  0.54320089603E+02  0.54320089603E+02  0.00000000000E+00 0. -1.
          1   -1    0    0  501    0 -0.00000000000E+00 -0.00000000000E+00 -0.15301506056E+04  0.15301506056E+04  0.00000000000E+00 0. -1.
         25    2    1    2    0    0  0.72640516898E+02 -0.39248649429E+02 -0.11834566983E+03  0.19091720777E+03  0.12500632575E+03 0.  0.
          2    1    1    2  501    0 -0.16434839150E+02  0.14879901260E+02 -0.13231324181E+04  0.13233181444E+04  0.00000000000E+00 0. -1.
          1    1    1    2  502    0 -0.56205677748E+02  0.24368748170E+02 -0.34352428040E+02  0.70235343031E+02  0.00000000000E+00 0. -1.
         22    1    3    3    0    0  0.10144271976E+03 -0.14543861407E+02 -0.11307926768E+03  0.15260756887E+03  0.00000000000E+00 0.  1.
         22    1    3    3    0    0 -0.28802202864E+02 -0.24704788022E+02 -0.52664021486E+01  0.38309638900E+02  0.00000000000E+00 0.  1.
</event>
<event>
 7    1  0.6103724E-006  0.1777349E+03  0.7818608E-02  0.1170813E+00
          2   -1    0    0  502    0  0.00000000000E+00  0.00000000000E+00  0.10422986341E+04  0.10422986341E+04  0.00000000000E+00 0. -1.
          1   -1    0    0  501    0 -0.00000000000E+00 -0.00000000000E+00 -0.21166068548E+03  0.21166068548E+03  0.00000000000E+00 0. -1.
         25    2    1    2    0    0  0.73685699784E+02 -0.13879527718E+02  0.35078579838E+02  0.14992208575E+03  0.12499560548E+03 0.  0.
          2    1    1    2  501    0 -0.47533635256E+01 -0.17767129797E+03 -0.87295127703E+02  0.19801546381E+03  0.00000000000E+00 0. -1.
          1    1    1    2  502    0 -0.68932336258E+02  0.19155082569E+03  0.88285449653E+03  0.90602177007E+03  0.00000000000E+00 0. -1.
         22    1    3    3    0    0  0.68512589609E+02 -0.60565212940E+02  0.44995471247E+02  0.10191522156E+03  0.00000000000E+00 0.  1.
         22    1    3    3    0    0  0.51731101747E+01  0.46685685222E+02 -0.99168914090E+01  0.48006864183E+02  0.00000000000E+00 0.  1.
</event>
<event>
 7    1  0.6103724E-006  0.8569994E+02  0.7818608E-02  0.1441547E+00
          2   -1    0    0  502    0  0.00000000000E+00  0.00000000000E+00  0.38980026138E+03  0.38980026138E+03  0.00000000000E+00 0. -1.
          1   -1    0    0  501    0 -0.00000000000E+00 -0.00000000000E+00 -0.96038699878E+03  0.96038699878E+03  0.00000000000E+00 0. -1.
         25    2    1    2    0    0 -0.22829567910E+02 -0.51215557764E+02 -0.37077650635E+03  0.39527628069E+03  0.12499559145E+03 0.  0.
          2    1    1    2  501    0 -0.12242984169E+02 -0.27395228722E+02 -0.57205581416E+03  0.57284225031E+03  0.00000000000E+00 0. -1.
          1    1    1    2  502    0  0.35072552079E+02  0.78610786486E+02  0.37224558311E+03  0.38206872917E+03  0.00000000000E+00 0. -1.
         22    1    3    3    0    0  0.18471021759E+02 -0.51083039497E+02 -0.33857707863E+03  0.34290682954E+03  0.00000000000E+00 0. -1.
         22    1    3    3    0    0 -0.41300589669E+02 -0.13251826726E+00 -0.32199427721E+02  0.52369451149E+02  0.00000000000E+00 0. -1.
</event>
<event>
 7    1  0.6103724E-006  0.1156183E+03  0.7818608E-02  0.1302556E+00
          2   -1    0    0  502    0  0.00000000000E+00  0.00000000000E+00  0.87622007798E+03  0.87622007798E+03  0.00000000000E+00 0. -1.
          1   -1    0    0  501    0 -0.00000000000E+00 -0.00000000000E+00 -0.56933379070E+03  0.56933379070E+03  0.00000000000E+00 0. -1.
         25    2    1    2    0    0  0.13888043177E+03 -0.67744161079E+02 -0.32919129478E+03  0.38454207904E+03  0.12501462437E+03 0.  0.
          2    1    1    2  501    0 -0.68929884358E+02  0.74206834931E+02 -0.19883759510E+03  0.22314652704E+03  0.00000000000E+00 0. -1.
          1    1    1    2  502    0 -0.69950547408E+02 -0.64626738519E+01  0.83491517715E+03  0.83786526260E+03  0.00000000000E+00 0. -1.
         22    1    3    3    0    0  0.90111175828E+01  0.33021264325E+02 -0.51165169898E+02  0.61558742258E+02  0.00000000000E+00 0.  1.
         22    1    3    3    0    0  0.12986931418E+03 -0.10076542540E+03 -0.27802612488E+03  0.32298333678E+03  0.00000000000E+00 0.  1.
</event>
<event>
 7    1  0.6103724E-006  0.1404604E+03  0.7818608E-02  0.1422008E+00
          2   -1    0    0  502    0  0.00000000000E+00  0.00000000000E+00  0.59619826392E+03  0.59619826392E+03  0.00000000000E+00 0. -1.
          1   -1    0    0  501    0 -0.00000000000E+00 -0.00000000000E+00 -0.70649869864E+03  0.70649869864E+03  0.00000000000E+00 0. -1.
         25    2    1    2    0    0  0.49282000720E+02 -0.14846874382E+03  0.73908761303E+02  0.21344643642E+03  0.12500077094E+03 0.  0.
          2    1    1    2  501    0 -0.15417345727E+02  0.14584708270E+02 -0.62600945419E+03  0.62636909646E+03  0.00000000000E+00 0. -1.
          1    1    1    2  502    0 -0.33864654993E+02  0.13388403555E+03  0.44180025817E+03  0.46288142969E+03  0.00000000000E+00 0. -1.
         22    1    3    3    0    0 -0.75766047227E+01 -0.29927073974E+02  0.75922053894E+02  0.81958483168E+02  0.00000000000E+00 0.  1.
         22    1    3    3    0    0  0.56858605443E+02 -0.11854166984E+03 -0.20132925913E+01  0.13148795325E+03  0.00000000000E+00 0.  1.
</event>
<event>
 7    1  0.6103724E-006  0.8706329E+02  0.7818608E-02  0.1321940E+00
          2   -1    0    0  502    0  0.00000000000E+00  0.00000000000E+00  0.96232148350E+03  0.96232148350E+03  0.00000000000E+00 0. -1.
          1   -1    0    0  501    0 -0.00000000000E+00 -0.00000000000E+00 -0.43449888315E+03  0.43449888315E+03  0.00000000000E+00 0. -1.
         25    2    1    2    0    0  0.11593890676E+02 -0.10919162019E+03 -0.12333047862E+03  0.20709786079E+03  0.12498755444E+03 0.  0.
          2    1    1    2  501    0  0.56253205060E+02  0.54450394732E+02 -0.26147302634E+03  0.27294214052E+03  0.00000000000E+00 0. -1.
          1    1    1    2  502    0 -0.67847095736E+02  0.54741225463E+02  0.91262610531E+03  0.91678036534E+03  0.00000000000E+00 0. -1.
         22    1    3    3    0    0 -0.29248464685E+02 -0.30943158065E+02  0.13149164471E+02  0.44562902102E+02  0.00000000000E+00 0. -1.
         22    1    3    3    0    0  0.40842355361E+02 -0.78248462130E+02 -0.13647964309E+03  0.16253495869E+03  0.00000000000E+00 0. -1.
</event>
<event>
 7    1  0.6103724E-006  0.1420296E+03  0.7818608E-02  0.1301793E+00
          2   -1    0    0  502    0  0.00000000000E+00  0.00000000000E+00  0.53578253983E+03  0.53578253983E+03  0.00000000000E+00 0. -1.
          1   -1    0    0  501    0 -0.00000000000E+00 -0.00000000000E+00 -0.33678068499E+03  0.33678068499E+03  0.00000000000E+00 0. -1.
         25    2    1    2    0    0 -0.87057631711E+02  0.12222582755E+03  0.95352065879E+02  0.21733621807E+03  0.12499932424E+03 0.  0.
          2    1    1    2  501    0 -0.33606782104E+02 -0.46764688710E+02 -0.25917115427E+03  0.26549206979E+03  0.00000000000E+00 0. -1.
          1    1    1    2  502    0  0.12066441382E+03 -0.75461138839E+02  0.36282094324E+03  0.38973493696E+03  0.00000000000E+00 0. -1.
         22    1    3    3    0    0 -0.72106706888E+02  0.65159804524E+02  0.11912009849E+03  0.15373605682E+03  0.00000000000E+00 0.  1.
         22    1    3    3    0    0 -0.14950924824E+02  0.57066023025E+02 -0.23768032611E+02  0.63600161251E+02  0.00000000000E+00 0.  1.
</event>
<event>
 7    1  0.6103724E-006  0.6833717E+02  0.7818608E-02  0.1521713E+00
          2   -1    0    0  502    0  0.00000000000E+00  0.00000000000E+00  0.27372893329E+04  0.27372893329E+04  0.00000000000E+00 0. -1.
          1   -1    0    0  501    0 -0.00000000000E+00 -0.00000000000E+00 -0.29194066866E+03  0.29194066866E+03  0.00000000000E+00 0. -1.
         25    2    1    2    0    0 -0.71987600931E+01 -0.67553108357E+02  0.85224133976E+03  0.86403505019E+03  0.12500408862E+03 0.  0.
          2    1    1    2  501    0  0.21376328040E+02  0.33117729412E+00 -0.28501542105E+03  0.28581610752E+03  0.00000000000E+00 0. -1.
          1    1    1    2  502    0 -0.14177567947E+02  0.67221931063E+02  0.18781227455E+04  0.18793788438E+04  0.00000000000E+00 0. -1.
         22    1    3    3    0    0  0.56715006122E+02 -0.14277370205E+02  0.39079210127E+03  0.39514415298E+03  0.00000000000E+00 0.  1.
         22    1    3    3    0    0 -0.63913766215E+02 -0.53275738152E+02  0.46144923849E+03  0.46889089721E+03  0.00000000000E+00 0.  1.
</event>
<event>
 7    1  0.6103724E-006  0.7080625E+02  0.7818608E-02  0.1466686E+00
          2   -1    0    0  502    0  0.00000000000E+00  0.00000000000E+00  0.76485899752E+03  0.76485899752E+03  0.00000000000E+00 0. -1.
          1   -1    0    0  501    0 -0.00000000000E+00 -0.00000000000E+00 -0.40334855462E+03  0.40334855462E+03  0.00000000000E+00 0. -1.
         25    2    1    2    0    0 -0.48393159205E+02  0.16746442649E+02  0.58730337856E+03  0.60263771760E+03  0.12499847601E+03 0.  0.
          2    1    1    2  501    0  0.70846350371E+02  0.34650295203E+01 -0.39112281131E+03  0.39750253498E+03  0.00000000000E+00 0. -1.
          1    1    1    2  502    0 -0.22453191166E+02 -0.20211472169E+02  0.16532987564E+03  0.16806729956E+03  0.00000000000E+00 0. -1.
         22    1    3    3    0    0  0.27223737221E+02 -0.33405312387E+02  0.15275124585E+03  0.15871354660E+03  0.00000000000E+00 0. -1.
         22    1    3    3    0    0 -0.75616896426E+02  0.50151755036E+02  0.43455213271E+03  0.44392417100E+03  0.00000000000E+00 0. -1.
</event>
<event>
 7    1  0.6103724E-006  0.1434315E+03  0.7818608E-02  0.1252718E+00
          2   -1    0    0  502    0  0.00000000000E+00  0.00000000000E+00  0.19700475121E+04  0.19700475121E+04  0.00000000000E+00 0. -1.
          1   -1    0    0  501    0 -0.00000000000E+00 -0.00000000000E+00 -0.58166057251E+02  0.58166057251E+02  0.00000000000E+00 0. -1.
         25    2    1    2    0    0  0.34709702434E+02  0.15477543845E+03  0.93484802589E+03  0.95640856177E+03  0.12496521805E+03 0.  0.
          2    1    1    2  501    0  0.71764001824E+02 -0.56225981893E+02  0.74982400360E+01  0.91474896017E+02  0.00000000000E+00 0. -1.
          1    1    1    2  502    0 -0.10647370426E+03 -0.98549456552E+02  0.96953518892E+03  0.98033011156E+03  0.00000000000E+00 0. -1.
         22    1    3    3    0    0  0.32322969765E+02  0.11590962179E+03  0.88505565550E+03  0.89319836998E+03  0.00000000000E+00 0. -1.
         22    1    3    3    0    0  0.23867326685E+01  0.38865816653E+02  0.49792370388E+02  0.63210191787E+02  0.00000000000E+00 0. -1.
</event>
<event>
 7    1  0.6103724E-006  0.2113018E+03  0.7818608E-02  0.1335702E+00
          2   -1    0    0  502    0  0.00000000000E+00  0.00000000000E+00  0.19852303589E+03  0.19852303589E+03  0.00000000000E+00 0. -1.
          1   -1    0    0  501    0 -0.00000000000E+00 -0.00000000000E+00 -0.84723470176E+03  0.84723470176E+03  0.00000000000E+00 0. -1.
         25    2    1    2    0    0 -0.22132736881E+03 -0.57487394230E+02 -0.69647776507E+03  0.74363759244E+03  0.12499994787E+03 0.  0.
          2    1    1    2  501    0  0.24370006409E+02 -0.14918055289E+02 -0.59827036537E+02  0.66300225391E+02  0.00000000000E+00 0. -1.
          1    1    1    2  502    0  0.19695736240E+03  0.72405449520E+02  0.10759313574E+03  0.23581991982E+03  0.00000000000E+00 0. -1.
         22    1    3    3    0    0 -0.20795925692E+03 -0.87231021546E+02 -0.63798246390E+03  0.67666677759E+03  0.00000000000E+00 0.  1.
         22    1    3    3    0    0 -0.13368111893E+02  0.29743627315E+02 -0.58495301177E+02  0.66970814846E+02  0.00000000000E+00 0.  1.
</event>
<event>
 7    1  0.6103724E-006  0.6529252E+02  0.7818608E-02  0.1424959E+00
          2   -1    0    0  502    0  0.00000000000E+00  0.00000000000E+00  0.27823317008E+03  0.27823317008E+03  0.00000000000E+00 0. -1.
          1   -1    0    0  501    0 -0.00000000000E+00 -0.00000000000E+00 -0.74344630631E+03  0.74344630631E+03  0.00000000000E+00 0. -1.
         25    2    1    2    0    0 -0.77049287365E+02 -0.60545392628E+02 -0.12635588341E+03  0.20296028671E+03  0.12499892582E+03 0.  0.
          2    1    1    2  501    0  0.61237183877E+02  0.18803556897E+02 -0.57491778659E+03  0.57847560690E+03  0.00000000000E+00 0. -1.
          1    1    1    2  502    0  0.15812103488E+02  0.41741835731E+02  0.23606053376E+03  0.24024358278E+03  0.00000000000E+00 0. -1.
         22    1    3    3    0    0 -0.84334473340E+02 -0.33978939331E+02 -0.20001634299E+02  0.93096386000E+02  0.00000000000E+00 0. -1.
         22    1    3    3    0    0  0.72851859751E+01 -0.26566453297E+02 -0.10635424911E+03  0.10986390071E+03  0.00000000000E+00 0. -1.
</event>
<event>
 7    1  0.6103724E-006  0.7402071E+02  0.7818608E-02  0.1379109E+00
          2   -1    0    0  502    0  0.00000000000E+00  0.00000000000E+00  0.40980054699E+03  0.40980054699E+03  0.00000000000E+00 0. -1.
          1   -1    0    0  501    0 -0.00000000000E+00 -0.00000000000E+00 -0.11458198347E+04  0.11458198347E+04  0.00000000000E+00 0. -1.
         25    2    1    2    0    0  0.85363780116E+02  0.21667702523E+02 -0.65372020133E+02  0.16629907908E+03  0.12500167357E+03 0.  0.
          2    1    1    2  501    0 -0.66999320574E+02  0.31817879035E+02 -0.10264128795E+04  0.10290892505E+04  0.00000000000E+00 0. -1.
          1    1    1    2  502    0 -0.18364459542E+02 -0.53485581558E+02  0.35576561186E+03  0.36023205214E+03  0.00000000000E+00 0. -1.
         22    1    3    3    0    0 -0.22492998884E+02 -0.82721699023E+01  0.15201428832E+02  0.28380402256E+02  0.00000000000E+00 0.  1.
         22    1    3    3    0    0  0.10785677900E+03  0.29939872425E+02 -0.80573448965E+02  0.13791867682E+03  0.00000000000E+00 0.  1.
</event>
<event>
 7    1  0.6103724E-006  0.1050070E+03  0.7818608E-02  0.1462777E+00
          2   -1    0    0  502    0  0.00000000000E+00  0.00000000000E+00  0.17607319334E+03  0.17607319334E+03  0.00000000000E+00 0. -1.
          1   -1    0    0  501    0 -0.00000000000E+00 -0.00000000000E+00 -0.15690747298E+04  0.15690747298E+04  0.00000000000E+00 0. -1.
         25    2    1    2    0    0 -0.85842675723E+02 -0.28049663595E+02 -0.56288467454E+03  0.58362505922E+03  0.12499321709E+03 0.  0.
          2    1    1    2  501    0 -0.84627545999E+01 -0.19168306766E+02 -0.97891478171E+03  0.97913900548E+03  0.00000000000E+00 0. -1.
          1    1    1    2  502    0  0.94305430323E+02  0.47217970361E+02  0.14879791974E+03  0.18238385848E+03  0.00000000000E+00 0. -1.
         22    1    3    3    0    0  0.73555251508E+00 -0.61384070499E+01  0.54952539450E+01  0.82715714669E+01  0.00000000000E+00 0. -1.
         22    1    3    3    0    0 -0.86578228238E+02 -0.21911256545E+02 -0.56837992848E+03  0.57535348775E+03  0.00000000000E+00 0. -1.
</event>
<event>
 7    1  0.6103724E-006  0.7506090E+02  0.7818608E-02  0.1470743E+00
          2   -1    0    0  502    0  0.00000000000E+00  0.00000000000E+00  0.14280225002E+04  0.14280225002E+04  0.00000000000E+00 0. -1.
          1   -1    0    0  501    0 -0.00000000000E+00 -0.00000000000E+00 -0.53497267227E+03  0.53497267227E+03  0.00000000000E+00 0. -1.
         25    2    1    2    0    0 -0.15960865363E+02 -0.46158773031E+02  0.17931049988E+03  0.22396782559E+03  0.12499579986E+03 0.  0.
          2    1    1    2  501    0 -0.68914075204E+01 -0.26808366036E+02 -0.51107732999E+03  0.51182635455E+03  0.00000000000E+00 0. -1.
          1    1    1    2  502    0  0.22852272883E+02  0.72967139067E+02  0.12248166581E+04  0.12272009923E+04  0.00000000000E+00 0. -1.
         22    1    3    3    0    0  0.35498402631E+02 -0.42938127267E+02  0.15912756354E+03  0.16859834175E+03  0.00000000000E+00 0. -1.
         22    1    3    3    0    0 -0.51459267994E+02 -0.32206457636E+01  0.20182936338E+02  0.55369483841E+02  0.00000000000E+00 0. -1.
</event>
<event>
 7    1  0.6103724E-006  0.8722173E+02  0.7818608E-02  0.1369590E+00
          2   -1    0    0  502    0  0.00000000000E+00  0.00000000000E+00  0.83410960396E+03  0.83410960396E+03  0.00000000000E+00 0. -1.
          1   -1    0    0  501    0 -0.00000000000E+00 -0.00000000000E+00 -0.75355253021E+03  0.75355253021E+03  0.00000000000E+00 0. -1.
         25    2    1    2    0    0 -0.41510275724E+02  0.28054551941E+02 -0.78860116243E+02  0.15605702215E+03  0.12499886141E+03 0.  0.
          2    1    1    2  501    0  0.40731488974E+01  0.51739583345E+02 -0.63258657244E+03  0.63471201868E+03  0.00000000000E+00 0. -1.
          1    1    1    2  502    0  0.37437126827E+02 -0.79794135286E+02  0.79200376244E+03  0.79689309334E+03  0.00000000000E+00 0. -1.
         22    1    3    3    0    0 -0.40362540946E+02 -0.99723855037E+01 -0.10294921879E+03  0.11102758591E+03  0.00000000000E+00 0.  1.
         22    1    3    3    0    0 -0.11477347782E+01  0.38026937445E+02  0.24089102546E+02  0.45029436239E+02  0.00000000000E+00 0.  1.
</event>
<event>
 7    1  0.6103724E-006  0.9014971E+02  0.7818608E-02  0.1447724E+00
          2   -1    0    0  502    0  0.00000000000E+00  0.00000000000E+00  0.83167669684E+02  0.83167669684E+02  0.00000000000E+00 0. -1.
          1   -1    0    0  501    0 -0.00000000000E+00 -0.00000000000E+00 -0.34655741134E+03  0.34655741134E+03  0.00000000000E+00 0. -1.
         25    2    1    2    0    0  0.23074803043E+02  0.11031381467E+03 -0.16011370331E+03  0.23229844719E+03  0.12499834534E+03 0.  0.
          2    1    1    2  501    0 -0.72121822010E+01 -0.26274939930E+02 -0.10837919685E+03  0.11175168164E+03  0.00000000000E+00 0. -1.
          1    1    1    2  502    0 -0.15862620842E+02 -0.84038874738E+02  0.51031584965E+01  0.85674952197E+02  0.00000000000E+00 0. -1.
         22    1    3    3    0    0 -0.38816306668E+02  0.93435912428E+02 -0.11856629438E+03  0.15586834688E+03  0.00000000000E+00 0.  1.
         22    1    3    3    0    0  0.61891109711E+02  0.16877902240E+02 -0.41547408926E+02  0.76430100313E+02  0.00000000000E+00 0.  1.
</event>
<event>
 7    1  0.6103724E-006  0.1096514E+03  0.7818608E-02  0.1358897E+00
          2   -1    0    0  502    0  0.00000000000E+00  0.00000000000E+00  0.73197348824E+03  0.73197348824E+03  0.00000000000E+00 0. -1.
          1   -1    0    0  501    0 -0.00000000000E+00 -0.00000000000E+00 -0.20127848224E+04  0.20127848224E+04  0.00000000000E+00 0. -1.
         25    2    1    2    0    0 -0.12269316599E+03  0.40863878072E+02 -0.29352274541E+03  0.34424425045E+03  0.12500012952E+03 0.  0.
          2    1    1    2  501    0  0.36464100868E+02  0.26606061774E+02 -0.16893568104E+04  0.16899597469E+04  0.00000000000E+00 0. -1.
          1    1    1    2  502    0  0.86229065117E+02 -0.67469939845E+02  0.70206822161E+03  0.71055431337E+03  0.00000000000E+00 0. -1.
         22    1    3    3    0    0 -0.21486158588E+01  0.55283936556E+02 -0.64057117663E+02  0.84641860296E+02  0.00000000000E+00 0. -1.
         22    1    3    3    0    0 -0.12054455013E+03 -0.14420058484E+02 -0.22946562775E+03  0.25960239015E+03  0.00000000000E+00 0. -1.
</event>
<event>
 7    1  0.6103724E-006  0.9181288E+02  0.7818608E-02  0.1397982E+00
          2   -1    0    0  502    0  0.00000000000E+00  0.00000000000E+00  0.18906925487E+03  0.18906925487E+03  0.00000000000E+00 0. -1.
          1   -1    0    0  501    0 -0.00000000000E+00 -0.00000000000E+00 -0.95300947718E+03  0.95300947718E+03  0.00000000000E+00 0. -1.
         25    2    1    2    0    0 -0.39963389561E+02 -0.44706691800E+02 -0.17725191502E+03  0.22503215606E+03  0.12500187632E+03 0.  0.
          2    1    1    2  501    0 -0.38500207774E+02 -0.71773580891E+01 -0.73791367464E+03  0.73895221205E+03  0.00000000000E+00 0. -1.
          1    1    1    2  502    0  0.78463597335E+02  0.51884049889E+02  0.15122536735E+03  0.17809436395E+03  0.00000000000E+00 0. -1.
         22    1    3    3    0    0 -0.55818814862E+02 -0.17066685329E+02 -0.15806189990E+02  0.60471873484E+02  0.00000000000E+00 0.  1.
         22    1    3    3    0    0  0.15855425301E+02 -0.27640006471E+02 -0.16144572503E+03  0.16456028257E+03  0.00000000000E+00 0.  1.
</event>
<event>
 7    1  0.6103724E-006  0.3393144E+02  0.7818608E-02  0.1560124E+00
          2   -1    0    0  502    0  0.00000000000E+00  0.00000000000E+00  0.28709954895E+04  0.28709954895E+04  0.00000000000E+00 0. -1.
          1   -1    0    0  501    0 -0.00000000000E+00 -0.00000000000E+00 -0.21525036589E+02  0.21525036589E+02  0.00000000000E+00 0. -1.
         25    2    1    2    0    0 -0.42690663429E+02 -0.48893254641E+02  0.41828500946E+03  0.44136101017E+03  0.12499659619E+03 0.  0.
          2    1    1    2  501    0  0.14788399760E+02  0.30104686825E+02  0.18625991905E+02  0.38365564126E+02  0.00000000000E+00 0. -1.
          1    1    1    2  502    0  0.27902263669E+02  0.18788567817E+02  0.24125594515E+04  0.24127939518E+04  0.00000000000E+00 0. -1.
         22    1    3    3    0    0 -0.34873118395E+02 -0.71971542364E+02  0.13412881379E+03  0.15616201838E+03  0.00000000000E+00 0. -1.
         22    1    3    3    0    0 -0.78175450339E+01  0.23078287722E+02  0.28415619567E+03  0.28519899178E+03  0.00000000000E+00 0. -1.
</event>
<event>
 7    1  0.6103724E-006  0.1380909E+03  0.7818608E-02  0.1219163E+00
          2   -1    0    0  502    0  0.00000000000E+00  0.00000000000E+00  0.64711764746E+03  0.64711764746E+03  0.00000000000E+00 0. -1.
          1   -1    0    0  501    0 -0.00000000000E+00 -0.00000000000E+00 -0.79134247744E+03  0.79134247744E+03  0.00000000000E+00 0. -1.
         25    2    1    2    0    0  0.10514607773E+03 -0.45898352903E+02 -0.62108961194E+02  0.18067903616E+03  0.12500013835E+03 0.  0.
          2    1    1    2  501    0 -0.18600645081E+02  0.14748178288E+03 -0.65392392165E+03  0.67060670708E+03  0.00000000000E+00 0. -1.
          1    1    1    2  502    0 -0.86545432645E+02 -0.10158342997E+03  0.57180805286E+03  0.58717438166E+03  0.00000000000E+00 0. -1.
         22    1    3    3    0    0  0.25014765500E+02 -0.79074967266E+02 -0.29789454905E+02  0.88124914551E+02  0.00000000000E+00 0.  1.
         22    1    3    3    0    0  0.80131312226E+02  0.33176614364E+02 -0.32319506289E+02  0.92554121607E+02  0.00000000000E+00 0.  1.
</event>
<event>
 7    1  0.6103724E-006  0.1124454E+03  0.7818608E-02  0.1406622E+00
          2   -1    0    0  502    0  0.00000000000E+00  0.00000000000E+00  0.60520780262E+03  0.60520780262E+03  0.00000000000E+00 0. -1.
          1   -1    0    0  501    0 -0.00000000000E+00 -0.00000000000E+00 -0.92244063934E+02  0.92244063934E+02  0.00000000000E+00 0. -1.
         25    2    1    2    0    0 -0.74808167796E+02  0.54041535285E+02  0.13150979465E+03  0.20358125119E+03  0.12503499607E+03 0.  0.
          2    1    1    2  501    0 -0.29832516059E+02 -0.14908736033E+01 -0.43673990398E+02  0.52911427459E+02  0.00000000000E+00 0. -1.
          1    1    1    2  502    0  0.10464068385E+03 -0.52550661682E+02  0.42512793444E+03  0.44095918791E+03  0.00000000000E+00 0. -1.
         22    1    3    3    0    0 -0.43697573611E+02  0.34508140402E+02 -0.10703940972E+02  0.56699771127E+02  0.00000000000E+00 0. -1.
         22    1    3    3    0    0 -0.31110594185E+02  0.19533394884E+02  0.14221373562E+03  0.14688148006E+03  0.00000000000E+00 0. -1.
</event>
<event>
 7    1  0.6103724E-006  0.8858519E+02  0.7818608E-02  0.1324254E+00
          2   -1    0    0  502    0  0.00000000000E+00  0.00000000000E+00  0.21839829600E+04  0.21839829600E+04  0.00000000000E+00 0. -1.
          1   -1    0    0  501    0 -0.00000000000E+00 -0.00000000000E+00 -0.45364835055E+02  0.45364835055E+02  0.00000000000E+00 0. -1.
         25    2    1    2    0    0  0.80086444992E+02  0.43429437751E+02  0.58757451184E+03  0.60759272922E+03  0.12500065162E+03 0.  0.
          2    1    1    2  501    0 -0.59504486749E+02  0.46271035771E+02  0.78116448472E+01  0.75781359779E+02  0.00000000000E+00 0. -1.
          1    1    1    2  502    0 -0.20581958242E+02 -0.89700473522E+02  0.15432319682E+04  0.15459737060E+04  0.00000000000E+00 0. -1.
         22    1    3    3    0    0  0.10458708218E+03  0.60914362050E+02  0.41023533551E+03  0.42771725212E+03  0.00000000000E+00 0.  1.
         22    1    3    3    0    0 -0.24500637190E+02 -0.17484924299E+02  0.17733917633E+03  0.17987547710E+03  0.00000000000E+00 0.  1.
</event>
<event>
 7    1  0.6103724E-006  0.6973013E+02  0.7818608E-02  0.1489173E+00
          2   -1    0    0  502    0  0.00000000000E+00  0.00000000000E+00  0.20302732473E+04  0.20302732473E+04  0.00000000000E+00 0. -1.
          1   -1    0    0  501    0 -0.00000000000E+00 -0.00000000000E+00 -0.17255835302E+03  0.17255835302E+03  0.00000000000E+00 0. -1.
         25    2    1    2    0    0  0.51887253944E+02 -0.12300320589E+02  0.19391975950E+03  0.23680493183E+03  0.12501246981E+03 0.  0.
          2    1    1    2  501    0 -0.70166706586E+02 -0.64116782245E+01 -0.14280289602E+03  0.15923926477E+03  0.00000000000E+00 0. -1.
          1    1    1    2  502    0  0.18279452643E+02  0.18711998813E+02  0.18065980308E+04  0.18067874037E+04  0.00000000000E+00 0. -1.
         22    1    3    3    0    0 -0.17691003397E+02  0.35791161839E+02  0.11261698337E+03  0.11948457562E+03  0.00000000000E+00 0. -1.
         22    1    3    3    0    0  0.69578257341E+02 -0.48091482428E+02  0.81302776130E+02  0.11732035622E+03  0.00000000000E+00 0. -1.
</event>
<event>
 7    1  0.6103724E-006  0.6672617E+02  0.7818608E-02  0.1421764E+00
          2   -1    0    0  502    0  0.00000000000E+00  0.00000000000E+00  0.57701442128E+03  0.57701442128E+03  0.00000000000E+00 0. -1.
          1   -1    0    0  501    0 -0.00000000000E+00 -0.00000000000E+00 -0.13466426042E+04  0.13466426042E+04  0.00000000000E+00 0. -1.
         25    2    1    2    0    0 -0.36796201427E+02  0.97855814544E+02  0.62059256218E+02  0.17437423822E+03  0.12500121117E+03 0.  0.
          2    1    1    2  501    0 -0.11883788992E+01 -0.44742750739E+02 -0.12877709772E+04  0.12885485694E+04  0.00000000000E+00 0. -1.
          1    1    1    2  502    0  0.37984580326E+02 -0.53113063806E+02  0.45608353802E+03  0.46073421790E+03  0.00000000000E+00 0. -1.
         22    1    3    3    0    0 -0.53413453079E+02  0.11761043985E+03  0.70572094950E+02  0.14719250361E+03  0.00000000000E+00 0. -1.
         22    1    3    3    0    0  0.16617251652E+02 -0.19754625309E+02 -0.85128387324E+01  0.27181734618E+02  0.00000000000E+00 0. -1.
</event>
<event>
 7    1  0.6103724E-006  0.3278017E+02  0.7818608E-02  0.1575387E+00
          2   -1    0    0  502    0  0.00000000000E+00  0.00000000000E+00  0.51527334167E+03  0.51527334167E+03  0.00000000000E+00 0. -1.
          1   -1    0    0  501    0 -0.00000000000E+00 -0.00000000000E+00 -0.17653094188E+03  0.17653094188E+03  0.00000000000E+00 0. -1.
         25    2    1    2    0    0 -0.15285426067E+02  0.12263929568E+02 -0.12736209509E+03  0.17952645036E+03  0.12499837957E+03 0.  0.
          2    1    1    2  501    0  0.16915017048E+02 -0.43770146713E+02  0.18590614086E+01  0.46961682831E+02  0.00000000000E+00 0. -1.
          1    1    1    2  502    0 -0.16295909812E+01  0.31506217145E+02  0.46424543347E+03  0.46531615036E+03  0.00000000000E+00 0. -1.
         22    1    3    3    0    0 -0.55303965939E+02 -0.21346876523E+02 -0.10910296767E+03  0.12416793201E+03  0.00000000000E+00 0.  1.
         22    1    3    3    0    0  0.40018539872E+02  0.33610806091E+02 -0.18259127418E+02  0.55358518347E+02  0.00000000000E+00 0.  1.
</event>
<event>
 7    1  0.6103724E-006  0.4192547E+02  0.7818608E-02  0.1521963E+00
          2   -1    0    0  502    0  0.00000000000E+00  0.00000000000E+00  0.11535477067E+04  0.11535477067E+04  0.00000000000E+00 0. -1.
          1   -1    0    0  501    0 -0.00000000000E+00 -0.00000000000E+00 -0.66954256402E+02  0.66954256402E+02  0.00000000000E+00 0. -1.
         25    2    1    2    0    0  0.82080584335E+01  0.92632264167E+01  0.33583127654E+03  0.35855681411E+03  0.12500865193E+03 0.  0.
          2    1    1    2  501    0  0.34745591789E+02 -0.17367178444E+01 -0.49496396902E+02  0.60499302839E+02  0.00000000000E+00 0. -1.
          1    1    1    2  502    0 -0.42953650223E+02 -0.75265085723E+01  0.80025857066E+03  0.80144584615E+03  0.00000000000E+00 0. -1.
         22    1    3    3    0    0  0.61761047261E+02  0.20615297675E+02  0.12762909098E+03  0.14327805945E+03  0.00000000000E+00 0.  1.
         22    1    3    3    0    0 -0.53552988828E+02 -0.11352071258E+02  0.20820218556E+03  0.21527875466E+03  0.00000000000E+00 0.  1.
</event>
<event>
 7    1  0.6103724E-006  0.1220855E+03  0.7818608E-02  0.1341894E+00
          2   -1    0    0  502    0  0.00000000000E+00  0.00000000000E+00  0.44423867281E+03  0.44423867281E+03  0.00000000000E+00 0. -1.
          1   -1    0    0  501    0 -0.00000000000E+00 -0.00000000000E+00 -0.15753697555E+04  0.15753697555E+04  0.00000000000E+00 0. -1.
         25    2    1    2    0    0  0.41871732368E+02 -0.65235689789E+02  0.30340773607E+03  0.33718081795E+03  0.12500284995E+03 0.  0.
          2    1    1    2  501    0 -0.79646159531E+02  0.92977062176E+02 -0.15515536260E+04  0.15563762074E+04  0.00000000000E+00 0. -1.
          1    1    1    2  502    0  0.37774427163E+02 -0.27741372387E+02  0.11701480717E+03  0.12605140296E+03  0.00000000000E+00 0. -1.
         22    1    3    3    0    0 -0.60302952735E+01 -0.46688340521E+02  0.23531633803E+02  0.52629871661E+02  0.00000000000E+00 0. -1.
         22    1    3    3    0    0  0.47902027642E+02 -0.18547349268E+02  0.27987610226E+03  0.28455094629E+03  0.00000000000E+00 0. -1.
</event>
<event>
 7    1  0.6103724E-006  0.5180457E+02  0.7818608E-02  0.1494246E+00
          2   -1    0    0  502    0  0.00000000000E+00  0.00000000000E+00  0.95239907806E+03  0.95239907806E+03  0.00000000000E+00 0. -1.
          1   -1    0    0  501    0 -0.00000000000E+00 -0.00000000000E+00 -0.12378947388E+03  0.12378947388E+03  0.00000000000E+00 0. -1.
         25    2    1    2    0    0  0.31967655417E+02 -0.16875012437E+02  0.27474292363E+03  0.30400241950E+03  0.12500839948E+03 0.  0.
          2    1    1    2  501    0 -0.19579334554E+02  0.48527636477E+02 -0.10242326772E+03  0.11501655365E+03  0.00000000000E+00 0. -1.
          1    1    1    2  502    0 -0.12388320863E+02 -0.31652624039E+02  0.65628994826E+03  0.65716957880E+03  0.00000000000E+00 0. -1.
         22    1    3    3    0    0 -0.20842567547E+02  0.76594523097E+00 -0.26973055802E+01  0.21030329323E+02  0.00000000000E+00 0. -1.
         22    1    3    3    0    0  0.52810222964E+02 -0.17640957668E+02  0.27744022921E+03  0.28297209018E+03  0.00000000000E+00 0. -1.
</event>
<event>
 7    1  0.6103724E-006  0.7845749E+02  0.7818608E-02  0.1414478E+00
          2   -1    0    0  502    0  0.00000000000E+00  0.00000000000E+00  0.19050256925E+04  0.19050256925E+04  0.00000000000E+00 0. -1.
          1   -1    0    0  501    0 -0.00000000000E+00 -0.00000000000E+00 -0.21395347342E+02  0.21395347342E+02  0.00000000000E+00 0. -1.
         25    2    1    2    0    0 -0.42238231294E+02  0.25463797294E+02  0.12663502772E+04  0.12734595061E+04  0.12499446388E+03 0.  0.
          2    1    1    2  501    0  0.80082236816E+02 -0.11709556311E+02  0.78736097608E+02  0.11291435440E+03  0.00000000000E+00 0. -1.
          1    1    1    2  502    0 -0.37844005522E+02 -0.13754240983E+02  0.53854397036E+03  0.54004717934E+03  0.00000000000E+00 0. -1.
         22    1    3    3    0    0 -0.43883190921E+02 -0.41980794574E+02  0.41228542703E+03  0.41673420174E+03  0.00000000000E+00 0.  1.
         22    1    3    3    0    0  0.16449596273E+01  0.67444591868E+02  0.85406485015E+03  0.85672530436E+03  0.00000000000E+00 0.  1.
</event>
<event>
 7    1  0.6103724E-006  0.7292944E+02  0.7818608E-02  0.1395514E+00
          2   -1    0    0  502    0  0.00000000000E+00  0.00000000000E+00  0.23245170111E+04  0.23245170111E+04  0.00000000000E+00 0. -1.
          1   -1    0    0  501    0 -0.00000000000E+00 -0.00000000000E+00 -0.37508825009E+02  0.37508825009E+02  0.00000000000E+00 0. -1.
         25    2    1    2    0    0  0.70904269067E+02 -0.97002661730E+02  0.38134045098E+03  0.41890678851E+03  0.12500170460E+03 0.  0.
          2    1    1    2  501    0 -0.36497922567E+02  0.34585023172E+02  0.16956606057E+02  0.53063628490E+02  0.00000000000E+00 0. -1.
          1    1    1    2  502    0 -0.34406346500E+02  0.62417638558E+02  0.18887111290E+04  0.18900554191E+04  0.00000000000E+00 0. -1.
         22    1    3    3    0    0  0.10351972209E+03 -0.76258861011E+02  0.23875109996E+03  0.27117122723E+03  0.00000000000E+00 0.  1.
         22    1    3    3    0    0 -0.32615453020E+02 -0.20743800719E+02  0.14258935102E+03  0.14773556128E+03  0.00000000000E+00 0.  1.
</event>
<event>
 7    1  0.6103724E-006  0.2629871E+03  0.7818608E-02  0.1168399E+00
          2   -1    0    0  502    0  0.00000000000E+00  0.00000000000E+00  0.74769467815E+03  0.74769467815E+03  0.00000000000E+00 0. -1.
          1   -1    0    0  501    0 -0.00000000000E+00 -0.00000000000E+00 -0.56374659260E+03  0.56374659260E+03  0.00000000000E+00 0. -1.
         25    2    1    2    0    0 -0.21345225521E+03  0.72035983032E+02 -0.21355983156E+03  0.33462492014E+03  0.12495994325E+03 0.  0.
          2    1    1    2  501    0 -0.52683435559E+02 -0.11043765065E+03 -0.24854935929E+03  0.27703574330E+03  0.00000000000E+00 0. -1.
          1    1    1    2  502    0  0.26613569077E+03  0.38401667620E+02  0.64605727640E+03  0.69978060731E+03  0.00000000000E+00 0. -1.
         22    1    3    3    0    0  0.33315252704E+01 -0.20409270041E+02 -0.27226676190E+02  0.34189607493E+02  0.00000000000E+00 0.  1.
         22    1    3    3    0    0 -0.21678378048E+03  0.92445253072E+02 -0.18633315537E+03  0.30043531265E+03  0.00000000000E+00 0.  1.
</event>
<event>
 7    1  0.6103724E-006  0.8434400E+02  0.7818608E-02  0.1343301E+00
          2   -1    0    0  502    0  0.00000000000E+00  0.00000000000E+00  0.26546796427E+04  0.26546796427E+04  0.00000000000E+00 0. -1.
          1   -1    0    0  501    0 -0.00000000000E+00 -0.00000000000E+00 -0.42857912896E+03  0.42857912896E+03  0.00000000000E+00 0. -1.
         25    2    1    2    0    0 -0.18111417302E+02  0.27870145691E+02  0.20598664031E+03  0.24322853940E+03  0.12499943175E+03 0.  0.
          2    1    1    2  501    0 -0.19565555285E+02 -0.83296557830E+02 -0.40502563383E+03  0.41396484338E+03  0.00000000000E+00 0. -1.
          1    1    1    2  502    0  0.37676972586E+02  0.55426412139E+02  0.24251395073E+04  0.24260653889E+04  0.00000000000E+00 0. -1.
         22    1    3    3    0    0  0.14353313901E+02  0.33077460632E+02  0.20721219004E+03  0.21032600344E+03  0.00000000000E+00 0. -1.
         22    1    3    3    0    0 -0.32464731203E+02 -0.52073149417E+01 -0.12255497275E+01  0.32902535968E+02  0.00000000000E+00 0. -1.
</event>
<event>
 7    1  0.6103724E-006  0.5986537E+02  0.7818608E-02  0.1443695E+00
          2   -1    0    0  502    0  0.00000000000E+00  0.00000000000E+00  0.30493810085E+03  0.30493810085E+03  0.00000000000E+00 0. -1.
          1   -1    0    0  501    0 -0.00000000000E+00 -0.00000000000E+00 -0.24553094085E+03  0.24553094085E+03  0.00000000000E+00 0. -1.
         25    2    1    2    0    0  0.21857176517E+02 -0.17683735835E+02  0.12305763235E+03  0.17764769644E+03  0.12500028998E+03 0.  0.
          2    1    1    2  501    0  0.20704249363E+02 -0.36856702161E+02 -0.20826426777E+03  0.21251138244E+03  0.00000000000E+00 0. -1.
          1    1    1    2  502    0 -0.42561425880E+02  0.54540437997E+02  0.14461379543E+03  0.16030996282E+03  0.00000000000E+00 0. -1.
         22    1    3    3    0    0  0.68475357630E+02 -0.12571438372E+02  0.10780706140E+03  0.12833268544E+03  0.00000000000E+00 0.  1.
         22    1    3    3    0    0 -0.46618181113E+02 -0.51122974628E+01  0.15250570947E+02  0.49315010999E+02  0.00000000000E+00 0.  1.
</event>
<event>
 7    1  0.6103724E-006  0.5953118E+02  0.7818608E-02  0.1488366E+00
          2   -1    0    0  502    0  0.00000000000E+00  0.00000000000E+00  0.20889964239E+03  0.20889964239E+03  0.00000000000E+00 0. -1.
          1   -1    0    0  501    0 -0.00000000000E+00 -0.00000000000E+00 -0.75693964519E+02  0.75693964519E+02  0.00000000000E+00 0. -1.
         25    2    1    2    0    0  0.27276357178E+02 -0.25067496866E+02  0.13242485739E+03  0.18585174427E+03  0.12502859246E+03 0.  0.
          2    1    1    2  501    0 -0.30371949201E+02  0.55724970762E+02 -0.13333203701E+02  0.64849841832E+02  0.00000000000E+00 0. -1.
          1    1    1    2  502    0  0.30955920235E+01 -0.30657473896E+02  0.14114024179E+02  0.33892020804E+02  0.00000000000E+00 0. -1.
         22    1    3    3    0    0 -0.36744149838E+02 -0.43080764590E+02  0.30961936772E+02  0.64534691087E+02  0.00000000000E+00 0.  1.
         22    1    3    3    0    0  0.64020507016E+02  0.18013267724E+02  0.10146292062E+03  0.12131705318E+03  0.00000000000E+00 0.  1.
</event>
<event>
 7    1  0.6103724E-006  0.7122451E+02  0.7818608E-02  0.1491381E+00
          2   -1    0    0  502    0  0.00000000000E+00  0.00000000000E+00  0.53952061632E+03  0.53952061632E+03  0.00000000000E+00 0. -1.
          1   -1    0    0  501    0 -0.00000000000E+00 -0.00000000000E+00 -0.41545831270E+03  0.41545831270E+03  0.00000000000E+00 0. -1.
         25    2    1    2    0    0  0.89709514077E+02  0.26641175534E+02 -0.20741464307E+03  0.25962203139E+03  0.12500086348E+03 0.  0.
          2    1    1    2  501    0 -0.25070969048E+02  0.27292099225E+01 -0.17859532706E+03  0.18036710599E+03  0.00000000000E+00 0. -1.
          1    1    1    2  502    0 -0.64638545029E+02 -0.29370385456E+02  0.51007227375E+03  0.51498979164E+03  0.00000000000E+00 0. -1.
         22    1    3    3    0    0  0.10180707341E+03  0.22663699933E+02 -0.21889696718E+03  0.24247516518E+03  0.00000000000E+00 0. -1.
         22    1    3    3    0    0 -0.12097559331E+02  0.39774756004E+01  0.11482324104E+02  0.17146866208E+02  0.00000000000E+00 0. -1.
</event>
<event>
 7    1  0.6103724E-006  0.7801401E+02  0.7818608E-02  0.1345760E+00
          2   -1    0    0  502    0  0.00000000000E+00  0.00000000000E+00  0.23868855042E+04  0.23868855042E+04  0.00000000000E+00 0. -1.
          1   -1    0    0  501    0 -0.00000000000E+00 -0.00000000000E+00 -0.10021715877E+04  0.10021715877E+04  0.00000000000E+00 0. -1.
         25    2    1    2    0    0  0.73753458436E+02 -0.26354716909E+02  0.16696852458E+03  0.22279755686E+03  0.12500447754E+03 0.  0.
          2    1    1    2  501    0 -0.84365843022E+01  0.70437213285E+02 -0.97225611906E+03  0.97484077573E+03  0.00000000000E+00 0. -1.
          1    1    1    2  502    0 -0.65316874134E+02 -0.44082496375E+02  0.21900015109E+04  0.21914187593E+04  0.00000000000E+00 0. -1.
         22    1    3    3    0    0  0.57438407048E+02  0.26414709850E+02  0.15340632847E+03  0.16592290112E+03  0.00000000000E+00 0.  1.
         22    1    3    3    0    0  0.16315051388E+02 -0.52769426759E+02  0.13562196114E+02  0.56874655741E+02  0.00000000000E+00 0.  1.
</event>
<event>
 7    1  0.6103724E-006  0.7636305E+02  0.7818608E-02  0.1384102E+00
          2   -1    0    0  502    0  0.00000000000E+00  0.00000000000E+00  0.26029884472E+04  0.26029884472E+04  0.00000000000E+00 0. -1.
          1   -1    0    0  501    0 -0.00000000000E+00 -0.00000000000E+00 -0.11370938759E+02  0.11370938759E+02  0.00000000000E+00 0. -1.
         25    2    1    2    0    0 -0.14441761203E+02 -0.49539179751E+02  0.12883382020E+04  0.12954156850E+04  0.12499511758E+03 0.  0.
          2    1    1    2  501    0 -0.30513644758E+02  0.76913244901E+02  0.23098704663E+03  0.24536043990E+03  0.00000000000E+00 0. -1.
          1    1    1    2  502    0  0.44955405961E+02 -0.27374065149E+02  0.10722922598E+04  0.10735832611E+04  0.00000000000E+00 0. -1.
         22    1    3    3    0    0  0.18416014229E+02  0.37676163986E+02  0.42221799500E+03  0.42429550813E+03  0.00000000000E+00 0. -1.
         22    1    3    3    0    0 -0.32857775431E+02 -0.87215343737E+02  0.86612020698E+03  0.87112017686E+03  0.00000000000E+00 0. -1.
</event>
<event>
 7    1  0.6103724E-006  0.4769376E+02  0.7818608E-02  0.1567482E+00
          2   -1    0    0  502    0  0.00000000000E+00  0.00000000000E+00  0.58651241982E+03  0.58651241982E+03  0.00000000000E+00 0. -1.
          1   -1    0    0  501    0 -0.00000000000E+00 -0.00000000000E+00 -0.17694963856E+03  0.17694963856E+03  0.00000000000E+00 0. -1.
         25    2    1    2    0    0 -0.59299136308E+02  0.31597941486E+02  0.84282361930E+02  0.16505586094E+03  0.12500041291E+03 0.  0.
          2    1    1    2  501    0  0.14215989962E+02 -0.17800485227E+02 -0.13439864638E+03  0.13631561830E+03  0.00000000000E+00 0. -1.
          1    1    1    2  502    0  0.45083146345E+02 -0.13797456259E+02  0.45967906570E+03  0.46209057913E+03  0.00000000000E+00 0. -1.
         22    1    3    3    0    0  0.31641339909E+02  0.39343976420E+02  0.33756995212E+02  0.60734319767E+02  0.00000000000E+00 0.  1.
         22    1    3    3    0    0 -0.90940476216E+02 -0.77460349341E+01  0.50525366718E+02  0.10432154118E+03  0.00000000000E+00 0.  1.
</event>
<event>
 7    1  0.6103724E-006  0.6556870E+02  0.7818608E-02  0.1376430E+00
          2   -1    0    0  502    0  0.00000000000E+00  0.00000000000E+00  0.70202959056E+03  0.70202959056E+03  0.00000000000E+00 0. -1.
          1   -1    0    0  501    0 -0.00000000000E+00 -0.00000000000E+00 -0.20242592097E+03  0.20242592097E+03  0.00000000000E+00 0. -1.
         25    2    1    2    0    0  0.35905871977E+01 -0.66516737525E+01  0.86458317754E+02  0.15217689621E+03  0.12500251978E+03 0.  0.
          2    1    1    2  501    0  0.65182335580E+02 -0.30765799761E+01 -0.16111750797E+03  0.17383053123E+03  0.00000000000E+00 0. -1.
          1    1    1    2  502    0 -0.68772922777E+02  0.97282537286E+01  0.57426285981E+03  0.57844808409E+03  0.00000000000E+00 0. -1.
         22    1    3    3    0    0  0.21817829142E+01  0.11259272348E+01 -0.32682291496E+02  0.32774381249E+02  0.00000000000E+00 0.  1.
         22    1    3    3    0    0  0.14088042834E+01 -0.77776009873E+01  0.11914060925E+03  0.11940251496E+03  0.00000000000E+00 0.  1.
</event>
<event>
 7    1  0.6103724E-006  0.1151246E+03  0.7818608E-02  0.1258392E+00
          2   -1    0    0  502    0  0.00000000000E+00  0.00000000000E+00  0.34569707187E+04  0.34569707187E+04  0.00000000000E+00 0. -1.
          1   -1    0    0  501    0 -0.00000000000E+00 -0.00000000000E+00 -0.51712476498E+02  0.51712476498E+02  0.00000000000E+00 0. -1.
         25    2    1    2    0    0 -0.15447245111E+03  0.94568369916E+02  0.54371657214E+03  0.58656378411E+03  0.12499778906E+03 0.  0.
          2    1    1    2  501    0  0.47112381216E+02 -0.96609837926E+02  0.69464003937E+02  0.12797767419E+03  0.00000000000E+00 0. -1.
          1    1    1    2  502    0  0.10736006990E+03  0.20414680096E+01  0.27920776662E+04  0.27941417369E+04  0.00000000000E+00 0. -1.
         22    1    3    3    0    0 -0.10882655016E+03  0.91087265423E+02  0.51088370725E+03  0.53022850760E+03  0.00000000000E+00 0.  1.
         22    1    3    3    0    0 -0.45645900956E+02  0.34811044934E+01  0.32832864895E+02  0.56335276513E+02  0.00000000000E+00 0.  1.
</event>
<event>
 7    1  0.6103724E-006  0.1428205E+03  0.7818608E-02  0.1351866E+00
          2   -1    0    0  502    0  0.00000000000E+00  0.00000000000E+00  0.15753954173E+04  0.15753954173E+04  0.00000000000E+00 0. -1.
          1   -1    0    0  501    0 -0.00000000000E+00 -0.00000000000E+00 -0.12292889691E+03  0.12292889691E+03  0.00000000000E+00 0. -1.
         25    2    1    2    0    0  0.15412671599E+03  0.52695755360E+02  0.18970773523E+03  0.27954579519E+03  0.12499975834E+03 0.  0.
          2    1    1    2  501    0 -0.13660137660E+03 -0.20359463060E+02 -0.16409397967E+02  0.13908167445E+03  0.00000000000E+00 0. -1.
          1    1    1    2  502    0 -0.17525339389E+02 -0.32336292299E+02  0.12791681831E+04  0.12796968446E+04  0.00000000000E+00 0. -1.
         22    1    3    3    0    0  0.11897548272E+03 -0.84559033283E+01  0.16744086373E+03  0.20557993733E+03  0.00000000000E+00 0.  1.
         22    1    3    3    0    0  0.35151233275E+02  0.61151658688E+02  0.22266871505E+02  0.73965857852E+02  0.00000000000E+00 0.  1.
</event>
<event>
 7    1  0.6103724E-006  0.3372222E+02  0.7818608E-02  0.1627573E+00
          2   -1    0    0  502    0  0.00000000000E+00  0.00000000000E+00  0.64637872733E+02  0.64637872733E+02  0.00000000000E+00 0. -1.
          1   -1    0    0  501    0 -0.00000000000E+00 -0.00000000000E+00 -0.14396903612E+04  0.14396903612E+04  0.00000000000E+00 0. -1.
         25    2    1    2    0    0  0.47294985239E+02  0.28726608138E+02 -0.34694839508E+03  0.37290693647E+03  0.12499744308E+03 0.  0.
          2    1    1    2  501    0 -0.29979018948E+02 -0.14493266916E+02 -0.10770617235E+04  0.10775763326E+04  0.00000000000E+00 0. -1.
          1    1    1    2  502    0 -0.17315966291E+02 -0.14233341222E+02  0.48957630128E+02  0.53844964841E+02  0.00000000000E+00 0. -1.
         22    1    3    3    0    0 -0.18323460580E+02  0.54354682602E+02 -0.92101403702E+02  0.10850276168E+03  0.00000000000E+00 0.  1.
         22    1    3    3    0    0  0.65618445819E+02 -0.25628074465E+02 -0.25484699138E+03  0.26440417479E+03  0.00000000000E+00 0.  1.
</event>
<event>
 7    1  0.6103724E-006  0.7517555E+02  0.7818608E-02  0.1497121E+00
          2   -1    0    0  502    0  0.00000000000E+00  0.00000000000E+00  0.36264905906E+03  0.36264905906E+03  0.00000000000E+00 0. -1.
          1   -1    0    0  501    0 -0.00000000000E+00 -0.00000000000E+00 -0.81826480532E+03  0.81826480532E+03  0.00000000000E+00 0. -1.
         25    2    1    2    0    0 -0.20243962433E+02  0.89609480592E+02  0.22092397484E+03  0.26994839679E+03  0.12500022898E+03 0.  0.
          2    1    1    2  501    0  0.29987217863E+02 -0.68816635776E+02 -0.79083332997E+03  0.79438801501E+03  0.00000000000E+00 0. -1.
          1    1    1    2  502    0 -0.97432554295E+01 -0.20792844816E+02  0.11429360887E+03  0.11657745258E+03  0.00000000000E+00 0. -1.
         22    1    3    3    0    0  0.39529029256E+02 -0.75918627721E+01  0.46338352323E+02  0.61379340419E+02  0.00000000000E+00 0. -1.
         22    1    3    3    0    0 -0.59772991690E+02  0.97201343364E+02  0.17458562252E+03  0.20856905637E+03  0.00000000000E+00 0. -1.
</event>
<event>
 7    1  0.6103724E-006  0.9732671E+02  0.7818608E-02  0.1370437E+00
          2   -1    0    0  502    0  0.00000000000E+00  0.00000000000E+00  0.34496473363E+03  0.34496473363E+03  0.00000000000E+00 0. -1.
          1   -1    0    0  501    0 -0.00000000000E+00 -0.00000000000E+00 -0.33219756260E+03  0.33219756260E+03  0.00000000000E+00 0. -1.
         25    2    1    2    0    0  0.81007095868E+02  0.42961786629E+02  0.69803617693E+02  0.17003855623E+03  0.12503079968E+03 0.  0.
          2    1    1    2  501    0 -0.98453838878E+02 -0.19768180866E+00 -0.27094892118E+03  0.28828200665E+03  0.00000000000E+00 0. -1.
          1    1    1    2  502    0  0.17446743010E+02 -0.42764104820E+02  0.21391247452E+03  0.21884173336E+03  0.00000000000E+00 0. -1.
         22    1    3    3    0    0 -0.22904639294E+02  0.44092540693E+02  0.33659011795E+02  0.60014195995E+02  0.00000000000E+00 0.  1.
         22    1    3    3    0    0  0.10391173516E+03 -0.11307540639E+01  0.36144605897E+02  0.11002436023E+03  0.00000000000E+00 0.  1.
</event>
<event>
 7    1  0.6103724E-006  0.8681327E+02  0.7818608E-02  0.1362362E+00
          2   -1    0    0  502    0  0.00000000000E+00  0.00000000000E+00  0.46658757760E+03  0.46658757760E+03  0.00000000000E+00 0. -1.
          1   -1    0    0  501    0 -0.00000000000E+00 -0.00000000000E+00 -0.92298957564E+02  0.92298957564E+02  0.00000000000E+00 0. -1.
         25    2    1    2    0    0  0.78572736533E+02  0.99078959208E+02  0.25051760703E+03  0.30719502560E+03  0.12497758694E+03 0.  0.
          2    1    1    2  501    0 -0.46298381126E+02 -0.30385765509E+02 -0.41912597749E+02  0.69451426843E+02  0.00000000000E+00 0. -1.
          1    1    1    2  502    0 -0.32274355407E+02 -0.68693193699E+02  0.16568361076E+03  0.18224008272E+03  0.00000000000E+00 0. -1.
         22    1    3    3    0    0 -0.10905592745E+01  0.69705307979E+02  0.19149348026E+03  0.20378854792E+03  0.00000000000E+00 0. -1.
         22    1    3    3    0    0  0.79663295808E+02  0.29373651229E+02  0.59024126763E+02  0.10340647768E+03  0.00000000000E+00 0. -1.
</event>
<event>
 7    1  0.6103724E-006  0.8860615E+02  0.7818608E-02  0.1323005E+00
          2   -1    0    0  502    0  0.00000000000E+00  0.00000000000E+00  0.69494147366E+03  0.69494147366E+03  0.00000000000E+00 0. -1.
          1   -1    0    0  501    0 -0.00000000000E+00 -0.00000000000E+00 -0.86857946526E+02  0.86857946526E+02  0.00000000000E+00 0. -1.
         25    2    1    2    0    0 -0.94497037678E+02  0.80074500833E+02  0.11480786475E+03  0.21011303417E+03  0.12500010202E+03 0.  0.
          2    1    1    2  501    0  0.69792353723E+01 -0.75880400616E+02  0.58242071917E+01  0.76422943633E+02  0.00000000000E+00 0. -1.
          1    1    1    2  502    0  0.87517802306E+02 -0.41941002163E+01  0.48745145519E+03  0.49526344239E+03  0.00000000000E+00 0. -1.
         22    1    3    3    0    0  0.42902108780E+01  0.27269138982E+01  0.79653686144E+02  0.79815735824E+02  0.00000000000E+00 0. -1.
         22    1    3    3    0    0 -0.98787248556E+02  0.77347586935E+02  0.35154178608E+02  0.13029729834E+03  0.00000000000E+00 0. -1.
</event>
<event>
 7    1  0.6103724E-006  0.3768023E+02  0.7818608E-02  0.1603696E+00
          2   -1    0    0  502    0  0.00000000000E+00  0.00000000000E+00  0.87698867502E+02  0.87698867502E+02  0.00000000000E+00 0. -1.
          1   -1    0    0  501    0 -0.00000000000E+00 -0.00000000000E+00 -0.37470917594E+03  0.37470917594E+03  0.00000000000E+00 0. -1.
         25    2    1    2    0    0  0.29295861980E+02 -0.48167291869E+02  0.20020738850E+01  0.13713804609E+03  0.12499799939E+03 0.  0.
          2    1    1    2  501    0 -0.10956662981E+02  0.20329074248E+02 -0.29096194554E+03  0.29187698346E+03  0.00000000000E+00 0. -1.
          1    1    1    2  502    0 -0.18339199000E+02  0.27838217621E+02  0.19495632116E+01  0.33393013895E+02  0.00000000000E+00 0. -1.
         22    1    3    3    0    0  0.38733215990E+02 -0.26872174788E+02 -0.56844685920E+02  0.73849130775E+02  0.00000000000E+00 0. -1.
         22    1    3    3    0    0 -0.94373540099E+01 -0.21295117081E+02  0.58846759805E+02  0.63288915315E+02  0.00000000000E+00 0. -1.
</event>
<event>
 7    1  0.6103724E-006  0.7030334E+02  0.7818608E-02  0.1364999E+00
          2   -1    0    0  502    0  0.00000000000E+00  0.00000000000E+00  0.20059264606E+04  0.20059264606E+04  0.00000000000E+00 0. -1.
          1   -1    0    0  501    0 -0.00000000000E+00 -0.00000000000E+00 -0.21903389888E+04  0.21903389888E+04  0.00000000000E+00 0. -1.
         25    2    1    2    0    0 -0.90849917679E+00 -0.92174188689E+01  0.10699556498E+03  0.16479848992E+03  0.12499882068E+03 0.  0.
          2    1    1    2  501    0 -0.59459832010E+02  0.38034019435E+02 -0.21602627219E+04  0.21614155283E+04  0.00000000000E+00 0. -1.
          1    1    1    2  502    0  0.60368331187E+02 -0.28816600566E+02  0.18688546288E+04  0.18700514312E+04  0.00000000000E+00 0. -1.
         22    1    3    3    0    0  0.20225354894E+02 -0.61724251091E+02  0.77013970145E+02  0.10074770345E+03  0.00000000000E+00 0.  1.
         22    1    3    3    0    0 -0.21133854071E+02  0.52506832222E+02  0.29981594835E+02  0.64050786465E+02  0.00000000000E+00 0.  1.
</event>
<event>
 7    1  0.6103724E-006  0.2089773E+03  0.7818608E-02  0.1231093E+00
          2   -1    0    0  502    0  0.00000000000E+00  0.00000000000E+00  0.11998370106E+04  0.11998370106E+04  0.00000000000E+00 0. -1.
          1   -1    0    0  501    0 -0.00000000000E+00 -0.00000000000E+00 -0.96776005350E+03  0.96776005350E+03  0.00000000000E+00 0. -1.
         25    2    1    2    0    0 -0.15163224868E+03  0.10325484162E+03  0.25360108809E+03  0.33703420521E+03  0.12499856977E+03 0.  0.
          2    1    1    2  501    0  0.20525077323E+03 -0.46763290090E+02 -0.91235889462E+03  0.93632976979E+03  0.00000000000E+00 0. -1.
          1    1    1    2  502    0 -0.53618524550E+02 -0.56491551527E+02  0.89083476362E+03  0.89423308910E+03  0.00000000000E+00 0. -1.
         22    1    3    3    0    0 -0.83812294467E+02  0.50550991258E+01  0.17509088921E+03  0.19418257959E+03  0.00000000000E+00 0. -1.
         22    1    3    3    0    0 -0.67819954211E+02  0.98199742491E+02  0.78510198882E+02  0.14285162562E+03  0.00000000000E+00 0. -1.
</event>
<event>
 7    1  0.6103724E-006  0.3815958E+02  0.7818608E-02  0.1523493E+00
          2   -1    0    0  502    0  0.00000000000E+00  0.00000000000E+00  0.10437418673E+03  0.10437418673E+03  0.00000000000E+00 0. -1.
          1   -1    0    0  501    0 -0.00000000000E+00 -0.00000000000E+00 -0.15918306851E+03  0.15918306851E+03  0.00000000000E+00 0. -1.
         25    2    1    2    0    0 -0.12452707929E+02 -0.32222721042E+02  0.77346462574E+01  0.12991648265E+03  0.12500037610E+03 0.  0.
          2    1    1    2  501    0 -0.25334165527E+02  0.30324444444E+02 -0.82053347036E+02  0.91072189134E+02  0.00000000000E+00 0. -1.
          1    1    1    2  502    0  0.37786873457E+02  0.18982765973E+01  0.19509819004E+02  0.42568583453E+02  0.00000000000E+00 0. -1.
         22    1    3    3    0    0  0.24547238684E+02  0.49680901497E+01  0.54282716894E+02  0.59781788198E+02  0.00000000000E+00 0. -1.
         22    1    3    3    0    0 -0.36999946613E+02 -0.37190811191E+02 -0.46548070636E+02  0.70134694456E+02  0.00000000000E+00 0. -1.
</event>
<event>
 7    1  0.6103724E-006  0.1765403E+03  0.7818608E-02  0.1204367E+00
          2   -1    0    0  502    0  0.00000000000E+00  0.00000000000E+00  0.96745168652E+02  0.96745168652E+02  0.00000000000E+00 0. -1.
          1   -1    0    0  501    0 -0.00000000000E+00 -0.00000000000E+00 -0.95350783000E+03  0.95350783000E+03  0.00000000000E+00 0. -1.
         25    2    1    2    0    0 -0.11622314180E+02  0.37641650652E+02 -0.17724362222E+03  0.22043925861E+03  0.12500477217E+03 0.  0.
          2    1    1    2  501    0  0.12207494136E+03  0.12753117852E+03 -0.58255386296E+03  0.60871626892E+03  0.00000000000E+00 0. -1.
          1    1    1    2  502    0 -0.11045262718E+03 -0.16517282917E+03 -0.96965176163E+02  0.22109747112E+03  0.00000000000E+00 0. -1.
         22    1    3    3    0    0 -0.33306849020E+02 -0.38484315173E+02 -0.83034243654E+02  0.97391346254E+02  0.00000000000E+00 0.  1.
         22    1    3    3    0    0  0.21684534840E+02  0.76125965825E+02 -0.94209378571E+02  0.12304791235E+03  0.00000000000E+00 0.  1.
</event>
<event>
 7    1  0.6103724E-006  0.6579106E+02  0.7818608E-02  0.1414007E+00
          2   -1    0    0  502    0  0.00000000000E+00  0.00000000000E+00  0.12479658780E+03  0.12479658780E+03  0.00000000000E+00 0. -1.
          1   -1    0    0  501    0 -0.00000000000E+00 -0.00000000000E+00 -0.92079751107E+03  0.92079751107E+03  0.00000000000E+00 0. -1.
         25    2    1    2    0    0  0.52811439101E+02 -0.99267567768E+02 -0.12482928157E+03  0.20940448043E+03  0.12499915510E+03 0.  0.
          2    1    1    2  501    0 -0.29297871836E+02  0.57198886103E+02 -0.74513993988E+03  0.74790614911E+03  0.00000000000E+00 0. -1.
          1    1    1    2  502    0 -0.23513567265E+02  0.42068681665E+02  0.73968298174E+02  0.88283469332E+02  0.00000000000E+00 0. -1.
         22    1    3    3    0    0  0.18904307549E+02  0.13509601264E+02  0.14177960670E+02  0.27219418417E+02  0.00000000000E+00 0.  1.
         22    1    3    3    0    0  0.33907131553E+02 -0.11277716903E+03 -0.13900724224E+03  0.18218506201E+03  0.00000000000E+00 0.  1.
</event>
<event>
 7    1  0.6103724E-006  0.1467050E+03  0.7818608E-02  0.1387611E+00
          2   -1    0    0  502    0  0.00000000000E+00  0.00000000000E+00  0.93344878155E+03  0.93344878155E+03  0.00000000000E+00 0. -1.
          1   -1    0    0  501    0 -0.00000000000E+00 -0.00000000000E+00 -0.45568878625E+03  0.45568878625E+03  0.00000000000E+00 0. -1.
         25    2    1    2    0    0  0.14565768891E+03 -0.77447257579E+01  0.11828724547E+03  0.22559465270E+03  0.12499972708E+03 0.  0.
          2    1    1    2  501    0 -0.14290250272E+03  0.34232407853E+02 -0.38836285697E+03  0.41523329793E+03  0.00000000000E+00 0. -1.
          1    1    1    2  502    0 -0.27551861889E+01 -0.26487682095E+02  0.74783560680E+03  0.74830961717E+03  0.00000000000E+00 0. -1.
         22    1    3    3    0    0  0.20632156031E+01 -0.11562675685E+02 -0.21918417009E+02  0.24867033032E+02  0.00000000000E+00 0. -1.
         22    1    3    3    0    0  0.14359447331E+03  0.38179499271E+01  0.14020566248E+03  0.20072761967E+03  0.00000000000E+00 0. -1.
</event>
<event>
 7    1  0.6103724E-006  0.5100663E+02  0.7818608E-02  0.1473337E+00
          2   -1    0    0  502    0  0.00000000000E+00  0.00000000000E+00  0.22803584908E+04  0.22803584908E+04  0.00000000000E+00 0. -1.
          1   -1    0    0  501    0 -0.00000000000E+00 -0.00000000000E+00 -0.12001565189E+04  0.12001565189E+04  0.00000000000E+00 0. -1.
         25    2    1    2    0    0  0.67350759209E+02 -0.44264055704E+02  0.62091465336E+03  0.63847963892E+03  0.12500324462E+03 0.  0.
          2    1    1    2  501    0 -0.39909607143E+02  0.24686522898E+01 -0.11906597157E+04  0.11913309489E+04  0.00000000000E+00 0. -1.
          1    1    1    2  502    0 -0.27441152066E+02  0.41795403414E+02  0.16499470342E+04  0.16507044219E+04  0.00000000000E+00 0. -1.
         22    1    3    3    0    0  0.25529097765E+01  0.40534269753E+02  0.13467579581E+03  0.14066667818E+03  0.00000000000E+00 0.  1.
         22    1    3    3    0    0  0.64797849432E+02 -0.84798325457E+02  0.48623885756E+03  0.49781296075E+03  0.00000000000E+00 0.  1.
</event>
<event>
 7    1  0.6103724E-006  0.2479935E+03  0.7818608E-02  0.1312421E+00
          2   -1    0    0  502    0  0.00000000000E+00  0.00000000000E+00  0.18566305613E+04  0.18566305613E+04  0.00000000000E+00 0. -1.
          1   -1    0    0  501    0 -0.00000000000E+00 -0.00000000000E+00 -0.16456782605E+03  0.16456782605E+03  0.00000000000E+00 0. -1.
         25    2    1    2    0    0  0.12355910019E+03  0.21272456233E+03  0.16233659971E+04  0.16466509501E+04  0.12499440067E+03 0.  0.
          2    1    1    2  501    0 -0.97879478327E+02 -0.22811012870E+03 -0.49077561069E+02  0.25302812115E+03  0.00000000000E+00 0. -1.
          1    1    1    2  502    0 -0.25679621863E+02  0.15385566376E+02  0.11777429920E+03  0.12151931609E+03  0.00000000000E+00 0. -1.
         22    1    3    3    0    0  0.12751285789E+03  0.21984962220E+03  0.13837467049E+04  0.14068931476E+04  0.00000000000E+00 0.  1.
         22    1    3    3    0    0 -0.39537577007E+01 -0.71250598711E+01  0.23961929220E+03  0.23975780253E+03  0.00000000000E+00 0.  1.
</event>
<event>
 7    1  0.6103724E-006  0.3772283E+02  0.7818608E-02  0.1578139E+00
          2   -1    0    0  502    0  0.00000000000E+00  0.00000000000E+00  0.43285854869E+03  0.43285854869E+03  0.00000000000E+00 0. -1.
          1   -1    0    0  501    0 -0.00000000000E+00 -0.00000000000E+00 -0.30703488114E+02  0.30703488114E+02  0.00000000000E+00 0. -1.
         25    2    1    2    0    0  0.51797950287E+02  0.66317185284E+01  0.16166454559E+03  0.21092154288E+03  0.12500185841E+03 0.  0.
          2    1    1    2  501    0 -0.22002638577E+02  0.15563846787E+02  0.36937472758E+02  0.45724460904E+02  0.00000000000E+00 0. -1.
          1    1    1    2  502    0 -0.29795311710E+02 -0.22195565316E+02  0.20355304223E+03  0.20691603302E+03  0.00000000000E+00 0. -1.
         22    1    3    3    0    0  0.70115070867E+02 -0.22317484996E+02  0.16059291975E+03  0.17664732994E+03  0.00000000000E+00 0.  1.
         22    1    3    3    0    0 -0.18317120579E+02  0.28949203524E+02  0.10716258351E+01  0.34274212944E+02  0.00000000000E+00 0.  1.
</event>
<event>
 7    1  0.6103724E-006  0.4939638E+02  0.7818608E-02  0.1562877E+00
          2   -1    0    0  502    0  0.00000000000E+00  0.00000000000E+00  0.78787243007E+03  0.78787243007E+03  0.00000000000E+00 0. -1.
          1   -1    0    0  501    0 -0.00000000000E+00 -0.00000000000E+00 -0.57474480481E+02  0.57474480481E+02  0.00000000000E+00 0. -1.
         25    2    1    2    0    0  0.11603202515E+00 -0.28996627927E+02  0.16230081105E+03  0.20689833342E+03  0.12499819683E+03 0.  0.
          2    1    1    2  501    0 -0.35619165045E+01  0.51375028875E+02 -0.15989292454E+02  0.53923448650E+02  0.00000000000E+00 0. -1.
          1    1    1    2  502    0  0.34458844794E+01 -0.22378400949E+02  0.58408643100E+03  0.58452512848E+03  0.00000000000E+00 0. -1.
         22    1    3    3    0    0  0.21869890068E+02 -0.52030228938E+02  0.16568642940E+03  0.17503550983E+03  0.00000000000E+00 0.  1.
         22    1    3    3    0    0 -0.21753858043E+02  0.23033601012E+02 -0.33856183549E+01  0.31862823587E+02  0.00000000000E+00 0.  1.
</event>
<event>
 7    1  0.6103724E-006  0.1684782E+03  0.7818608E-02  0.1282064E+00
          2   -1    0    0  502    0  0.00000000000E+00  0.00000000000E+00  0.66119505310E+03  0.66119505310E+03  0.00000000000E+00 0. -1.
          1   -1    0    0  501    0 -0.00000000000E+00 -0.00000000000E+00 -0.42468148163E+03  0.42468148163E+03  0.00000000000E+00 0. -1.
         25    2    1    2    0    0  0.93480428963E+02 -0.99142282620E+02  0.19522452088E+03  0.26889870776E+03  0.12500447464E+03 0.  0.
          2    1    1    2  501    0 -0.14978400746E+03  0.83761391006E+02 -0.36668126776E+03  0.40485351874E+03  0.00000000000E+00 0. -1.
          1    1    1    2  502    0  0.56303578493E+02  0.15380891614E+02  0.40797031835E+03  0.41212430823E+03  0.00000000000E+00 0. -1.
         22    1    3    3    0    0  0.12216087385E+03 -0.87057241522E+02  0.13835222948E+03  0.20406759126E+03  0.00000000000E+00 0. -1.
         22    1    3    3    0    0 -0.28680444890E+02 -0.12085041098E+02  0.56872291399E+02  0.64831116498E+02  0.00000000000E+00 0. -1.
</event>
<event>
 7    1  0.6103724E-006  0.1254540E+03  0.7818608E-02  0.1369265E+00
          2   -1    0    0  502    0  0.00000000000E+00  0.00000000000E+00  0.36893916185E+02  0.36893916185E+02  0.00000000000E+00 0. -1.
          1   -1    0    0  501    0 -0.00000000000E+00 -0.00000000000E+00 -0.31862646356E+04  0.31862646356E+04  0.00000000000E+00 0. -1.
         25    2    1    2    0    0  0.96786517149E+02 -0.47633944626E+02 -0.13438277263E+04  0.13539327875E+04  0.12499764979E+03 0.  0.
          2    1    1    2  501    0  0.28192230492E+02  0.22676577761E+02 -0.17088942689E+04  0.17092772307E+04  0.00000000000E+00 0. -1.
          1    1    1    2  502    0 -0.12497874764E+03  0.24957366864E+02 -0.96648724261E+02  0.15994853367E+03  0.00000000000E+00 0. -1.
         22    1    3    3    0    0  0.61833891465E+02 -0.72579075319E+02 -0.49980585076E+03  0.50881926139E+03  0.00000000000E+00 0. -1.
         22    1    3    3    0    0  0.34952625684E+02  0.24945130693E+02 -0.84402187551E+03  0.84511352606E+03  0.00000000000E+00 0. -1.
</event>
<event>
 7    1  0.6103724E-006  0.9060733E+02  0.7818608E-02  0.1309938E+00
          2   -1    0    0  502    0  0.00000000000E+00  0.00000000000E+00  0.23746585385E+04  0.23746585385E+04  0.00000000000E+00 0. -1.
          1   -1    0    0  501    0 -0.00000000000E+00 -0.00000000000E+00 -0.68996941169E+03  0.68996941169E+03  0.00000000000E+00 0. -1.
         25    2    1    2    0    0 -0.90322572574E+01 -0.46399802245E+01  0.42681320322E+03  0.44485914078E+03  0.12500813415E+03 0.  0.
          2    1    1    2  501    0 -0.61820958471E+02  0.66240907048E+02 -0.67678892552E+03  0.68282716581E+03  0.00000000000E+00 0. -1.
          1    1    1    2  502    0  0.70853215728E+02 -0.61600926823E+02  0.19346648491E+04  0.19369416436E+04  0.00000000000E+00 0. -1.
         22    1    3    3    0    0  0.20600972775E+02 -0.12570875790E+01  0.41019956459E+03  0.41071847187E+03  0.00000000000E+00 0.  1.
         22    1    3    3    0    0 -0.29633230032E+02 -0.33828926455E+01  0.16613638634E+02  0.34140668908E+02  0.00000000000E+00 0.  1.
</event>
<event>
 7    1  0.6103724E-006  0.1505701E+03  0.7818608E-02  0.1317913E+00
          2   -1    0    0  502    0  0.00000000000E+00  0.00000000000E+00  0.67872137257E+03  0.67872137257E+03  0.00000000000E+00 0. -1.
          1   -1    0    0  501    0 -0.00000000000E+00 -0.00000000000E+00 -0.95126766349E+02  0.95126766349E+02  0.00000000000E+00 0. -1.
         25    2    1    2    0    0 -0.62201376776E+02 -0.10535486602E+03  0.16184081801E+03  0.23829861798E+03  0.12500048757E+03 0.  0.
          2    1    1    2  501    0  0.92513929229E+02  0.14117824269E+03  0.73416523414E+02  0.18406550252E+03  0.00000000000E+00 0. -1.
          1    1    1    2  502    0 -0.30312552452E+02 -0.35823376665E+02  0.34833726480E+03  0.35148401841E+03  0.00000000000E+00 0. -1.
         22    1    3    3    0    0  0.38051899030E+02 -0.30400281619E+02  0.57367161890E+02  0.75253673702E+02  0.00000000000E+00 0.  1.
         22    1    3    3    0    0 -0.10025327581E+03 -0.74954584403E+02  0.10447365612E+03  0.16304494428E+03  0.00000000000E+00 0.  1.
</event>
<event>
 7    1  0.6103724E-006  0.4284715E+02  0.7818608E-02  0.1506952E+00
          2   -1    0    0  502    0  0.00000000000E+00  0.00000000000E+00  0.12921129570E+04  0.12921129570E+04  0.00000000000E+00 0. -1.
          1   -1    0    0  501    0 -0.00000000000E+00 -0.00000000000E+00 -0.91686668976E+02  0.91686668976E+02  0.00000000000E+00 0. -1.
         25    2    1    2    0    0  0.37060542332E+02 -0.35955783946E+02  0.45292991303E+02  0.14259657472E+03  0.12496409830E+03 0.  0.
          2    1    1    2  501    0 -0.37017452141E+02 -0.69448174397E+01 -0.34332920326E+02  0.50963434641E+02  0.00000000000E+00 0. -1.
          1    1    1    2  502    0 -0.43090191268E-01  0.42900601386E+02  0.11894662171E+04  0.11902396166E+04  0.00000000000E+00 0. -1.
         22    1    3    3    0    0  0.49031792100E+02  0.31644317479E+02 -0.33592544745E+01  0.58453092783E+02  0.00000000000E+00 0. -1.
         22    1    3    3    0    0 -0.11971249768E+02 -0.67600101425E+02  0.48652245778E+02  0.84143481939E+02  0.00000000000E+00 0. -1.
</event>
<event>
 7    1  0.6103724E-006  0.1076607E+03  0.7818608E-02  0.1280869E+00
          2   -1    0    0  502    0  0.00000000000E+00  0.00000000000E+00  0.18170767518E+04  0.18170767518E+04  0.00000000000E+00 0. -1.
          1   -1    0    0  501    0 -0.00000000000E+00 -0.00000000000E+00 -0.22426123574E+03  0.22426123574E+03  0.00000000000E+00 0. -1.
         25    2    1    2    0    0  0.85228346241E+02 -0.16955463976E+03  0.63034564073E+03  0.67005556605E+03  0.12500475166E+03 0.  0.
          2    1    1    2  501    0 -0.71668275193E+02  0.78175842342E+02 -0.18867353466E+03  0.21643822831E+03  0.00000000000E+00 0. -1.
          1    1    1    2  502    0 -0.13560071048E+02  0.91378797417E+02  0.11511434100E+04  0.11548441932E+04  0.00000000000E+00 0. -1.
         22    1    3    3    0    0  0.66675328193E+02 -0.10981930995E+02  0.19083825042E+03  0.20244861081E+03  0.00000000000E+00 0. -1.
         22    1    3    3    0    0  0.18553018047E+02 -0.15857270876E+03  0.43950739031E+03  0.46760695523E+03  0.00000000000E+00 0. -1.
</event>
<event>
 7    1  0.6103724E-006  0.1063010E+03  0.7818608E-02  0.1450346E+00
          2   -1    0    0  502    0  0.00000000000E+00  0.00000000000E+00  0.11045776100E+04  0.11045776100E+04  0.00000000000E+00 0. -1.
          1   -1    0    0  501    0 -0.00000000000E+00 -0.00000000000E+00 -0.15908210012E+04  0.15908210012E+04  0.00000000000E+00 0. -1.
         25    2    1    2    0    0  0.10450286052E+03 -0.65884004072E+02  0.42725294316E+03  0.46198462097E+03  0.12499265070E+03 0.  0.
          2    1    1    2  501    0 -0.22086499139E+02  0.50848282833E+01 -0.15693994956E+04  0.15695631385E+04  0.00000000000E+00 0. -1.
          1    1    1    2  502    0 -0.82416361385E+02  0.60799175789E+02  0.65590316121E+03  0.66385085169E+03  0.00000000000E+00 0. -1.
         22    1    3    3    0    0  0.12519935544E+03 -0.25961088552E+02  0.27581579037E+03  0.30401185328E+03  0.00000000000E+00 0. -1.
         22    1    3    3    0    0 -0.20696494920E+02 -0.39922915521E+02  0.15143715279E+03  0.15797276769E+03  0.00000000000E+00 0. -1.
</event>
<event>
 7    1  0.6103724E-006  0.6251541E+02  0.7818608E-02  0.1394584E+00
          2   -1    0    0  502    0  0.00000000000E+00  0.00000000000E+00  0.13420166107E+03  0.13420166107E+03  0.00000000000E+00 0. -1.
          1   -1    0    0  501    0 -0.00000000000E+00 -0.00000000000E+00 -0.62019970847E+03  0.62019970847E+03  0.00000000000E+00 0. -1.
         25    2    1    2    0    0  0.50774104759E+02  0.25121077600E+02 -0.85878314313E+02  0.16189048875E+03  0.12499746887E+03 0.  0.
          2    1    1    2  501    0  0.51231117225E+01 -0.58871838804E+02 -0.48322344708E+03  0.48682341715E+03  0.00000000000E+00 0. -1.
          1    1    1    2  502    0 -0.55897216482E+02  0.33750761204E+02  0.83103713995E+02  0.10568746365E+03  0.00000000000E+00 0. -1.
         22    1    3    3    0    0  0.21334363191E+02  0.47954954910E+02 -0.10691582155E+03  0.11910426378E+03  0.00000000000E+00 0. -1.
         22    1    3    3    0    0  0.29439741569E+02 -0.22833877310E+02  0.21037507232E+02  0.42786224970E+02  0.00000000000E+00 0. -1.
</event>
<event>
 7    1  0.6103724E-006  0.5900319E+02  0.7818608E-02  0.1407027E+00
          2   -1    0    0  502    0  0.00000000000E+00  0.00000000000E+00  0.10018463254E+03  0.10018463254E+03  0.00000000000E+00 0. -1.
          1   -1    0    0  501    0 -0.00000000000E+00 -0.00000000000E+00 -0.13009044274E+04  0.13009044274E+04  0.00000000000E+00 0. -1.
         25    2    1    2    0    0  0.53524430433E+02  0.75724174880E+02 -0.51069730365E+03  0.53388739452E+03  0.12499999504E+03 0.  0.
          2    1    1    2  501    0  0.14097408575E+00 -0.57287738469E+02 -0.76834850449E+03  0.77048123222E+03  0.00000000000E+00 0. -1.
          1    1    1    2  502    0 -0.53665404518E+02 -0.18436436411E+02  0.78326013315E+02  0.96720433164E+02  0.00000000000E+00 0. -1.
         22    1    3    3    0    0  0.45614494560E+01  0.91150175607E+02 -0.41875129888E+03  0.42858116110E+03  0.00000000000E+00 0.  1.
         22    1    3    3    0    0  0.48962980977E+02 -0.15426000727E+02 -0.91946004768E+02  0.10530623342E+03  0.00000000000E+00 0.  1.
</event>
<event>
 7    1  0.6103724E-006  0.8107974E+02  0.7818608E-02  0.1335267E+00
          2   -1    0    0  502    0  0.00000000000E+00  0.00000000000E+00  0.20191837745E+04  0.20191837745E+04  0.00000000000E+00 0. -1.
          1   -1    0    0  501    0 -0.00000000000E+00 -0.00000000000E+00 -0.13058595853E+03  0.13058595853E+03  0.00000000000E+00 0. -1.
         25    2    1    2    0    0  0.34543275556E+02 -0.40196456196E+02  0.12615538495E+04  0.12688383408E+04  0.12499450705E+03 0.  0.
          2    1    1    2  501    0  0.10515013136E+02 -0.74005031644E+02 -0.11040735853E+03  0.13333077300E+03  0.00000000000E+00 0. -1.
          1    1    1    2  502    0 -0.45058288692E+02  0.11420148784E+03  0.73745132495E+03  0.74760061923E+03  0.00000000000E+00 0. -1.
         22    1    3    3    0    0  0.81201634675E+02 -0.14462888037E+02  0.76237687034E+03  0.76682551668E+03  0.00000000000E+00 0.  1.
         22    1    3    3    0    0 -0.46658359119E+02 -0.25733568159E+02  0.49917697920E+03  0.50201282411E+03  0.00000000000E+00 0.  1.
</event>
<event>
 7    1  0.6103724E-006  0.9467239E+02  0.7818608E-02  0.1396251E+00
          2   -1    0    0  502    0  0.00000000000E+00  0.00000000000E+00  0.32910215931E+04  0.32910215931E+04  0.00000000000E+00 0. -1.
          1   -1    0    0  501    0 -0.00000000000E+00 -0.00000000000E+00 -0.40651850059E+02  0.40651850059E+02  0.00000000000E+00 0. -1.
         25    2    1    2    0    0 -0.55083238909E+02 -0.11029563176E+03  0.30727598945E+03  0.35389818822E+03  0.12500441726E+03 0.  0.
          2    1    1    2  501    0  0.32415625378E+02  0.79167538098E+02  0.89092174910E+02  0.12351391617E+03  0.00000000000E+00 0. -1.
          1    1    1    2  502    0  0.22667613530E+02  0.31128093663E+02  0.28540015787E+04  0.28542613388E+04  0.00000000000E+00 0. -1.
         22    1    3    3    0    0  0.76471966845E+01 -0.35659575773E+02  0.22013081746E+03  0.22313148984E+03  0.00000000000E+00 0. -1.
         22    1    3    3    0    0 -0.62730435593E+02 -0.74636055988E+02  0.87145171991E+02  0.13076669838E+03  0.00000000000E+00 0. -1.
</event>
<event>
 7    1  0.6103724E-006  0.7155270E+02  0.7818608E-02  0.1389034E+00
          2   -1    0    0  502    0  0.00000000000E+00  0.00000000000E+00  0.24484758655E+03  0.24484758655E+03  0.00000000000E+00 0. -1.
          1   -1    0    0  501    0 -0.00000000000E+00 -0.00000000000E+00 -0.15613590464E+03  0.15613590464E+03  0.00000000000E+00 0. -1.
         25    2    1    2    0    0 -0.26402291646E+02 -0.71015572286E+02 -0.85287060134E+02  0.16922999928E+03  0.12499847007E+03 0.  0.
          2    1    1    2  501    0 -0.27568067520E+02  0.71959906635E+02  0.39007683885E+02  0.86370283731E+02  0.00000000000E+00 0. -1.
          1    1    1    2  502    0  0.53970359166E+02 -0.94433434893E+00  0.13499105817E+03  0.14538320818E+03  0.00000000000E+00 0. -1.
         22    1    3    3    0    0  0.33814241245E+02 -0.56493798137E+02 -0.25698169415E+01  0.65890485642E+02  0.00000000000E+00 0.  1.
         22    1    3    3    0    0 -0.60216532891E+02 -0.14521774149E+02 -0.82717243192E+02  0.10333951364E+03  0.00000000000E+00 0.  1.
</event>
<event>
 7    1  0.6103724E-006  0.8173009E+02  0.7818608E-02  0.1372999E+00
          2   -1    0    0  502    0  0.00000000000E+00  0.00000000000E+00  0.32547526457E+03  0.32547526457E+03  0.00000000000E+00 0. -1.
          1   -1    0    0  501    0 -0.00000000000E+00 -0.00000000000E+00 -0.13764298669E+03  0.13764298669E+03  0.00000000000E+00 0. -1.
         25    2    1    2    0    0 -0.10182491453E+03  0.52884121385E+02  0.16849047986E+02  0.17051080721E+03  0.12500000577E+03 0.  0.
          2    1    1    2  501    0  0.22432912016E+02 -0.48953270295E+02 -0.40043979397E+02  0.67105726284E+02  0.00000000000E+00 0. -1.
          1    1    1    2  502    0  0.79392002516E+02 -0.39308510899E+01  0.21102720930E+03  0.22550171777E+03  0.00000000000E+00 0. -1.
         22    1    3    3    0    0 -0.14582350200E+02  0.64364648131E+02 -0.28066168537E+02  0.71715846803E+02  0.00000000000E+00 0.  1.
         22    1    3    3    0    0 -0.87242564332E+02 -0.11480526746E+02  0.44915216523E+02  0.98794960402E+02  0.00000000000E+00 0.  1.
</event>
<event>
 7    1  0.1032261E-005  0.9399132E+02  0.7818608E-02  0.1459610E+00
          2   -1    0    0  502    0  0.00000000000E+00  0.00000000000E+00  0.22826745791E+04  0.22826745791E+04  0.00000000000E+00 0. -1.
          1   -1    0    0  501    0 -0.00000000000E+00 -0.00000000000E+00 -0.93781528372E+03  0.93781528372E+03  0.00000000000E+00 0. -1.
         25    2    1    2    0    0  0.70638229914E+02  0.23828199091E+02 -0.34609668342E+03  0.37545385767E+03  0.12500056945E+03 0.  0.
          2    1    1    2  501    0  0.12267004749E+02  0.20573302922E+02 -0.57581596055E+03  0.57631394277E+03  0.00000000000E+00 0. -1.
          1    1    1    2  502    0 -0.82905234664E+02 -0.44401502014E+02  0.22667719394E+04  0.22687220624E+04  0.00000000000E+00 0. -1.
         22    1    3    3    0    0 -0.28660169370E+02 -0.11249861354E+02 -0.14732198246E+03  0.15050492087E+03  0.00000000000E+00 0. -1.
         22    1    3    3    0    0  0.99298399285E+02  0.35078060446E+02 -0.19877470096E+03  0.22494893680E+03  0.00000000000E+00 0. -1.
</event>
<event>
 7    1  0.6103724E-006  0.4780262E+02  0.7818608E-02  0.1510874E+00
          2   -1    0    0  502    0  0.00000000000E+00  0.00000000000E+00  0.88630451879E+02  0.88630451879E+02  0.00000000000E+00 0. -1.
          1   -1    0    0  501    0 -0.00000000000E+00 -0.00000000000E+00 -0.13877682273E+04  0.13877682273E+04  0.00000000000E+00 0. -1.
         25    2    1    2    0    0 -0.23935562690E+02  0.30246818789E+02 -0.15787471560E+03  0.20502909925E+03  0.12499889801E+03 0.  0.
          2    1    1    2  501    0  0.27240432372E+02  0.18399082278E+02 -0.11969227121E+04  0.11973740210E+04  0.00000000000E+00 0. -1.
          1    1    1    2  502    0 -0.33048696823E+01 -0.48645901067E+02  0.55659652274E+02  0.73995558958E+02  0.00000000000E+00 0. -1.
         22    1    3    3    0    0  0.47693158815E+02  0.16892818450E+02 -0.32860365110E+02  0.60330823864E+02  0.00000000000E+00 0. -1.
         22    1    3    3    0    0 -0.71628721505E+02  0.13354000339E+02 -0.12501435049E+03  0.14469827538E+03  0.00000000000E+00 0. -1.
</event>
<event>
 7    1  0.6103724E-006  0.9151411E+02  0.7818608E-02  0.1313481E+00
          2   -1    0    0  502    0  0.00000000000E+00  0.00000000000E+00  0.35120428231E+04  0.35120428231E+04  0.00000000000E+00 0. -1.
          1   -1    0    0  501    0 -0.00000000000E+00 -0.00000000000E+00 -0.22207099850E+03  0.22207099850E+03  0.00000000000E+00 0. -1.
         25    2    1    2    0    0  0.90614945457E+00 -0.25305150989E+02  0.76987801619E+03  0.78037242834E+03  0.12501118081E+03 0.  0.
          2    1    1    2  501    0 -0.76906348012E+02  0.51383596414E+02 -0.20634108994E+03  0.22612276698E+03  0.00000000000E+00 0. -1.
          1    1    1    2  502    0  0.76000198558E+02 -0.26078445425E+02  0.27264348984E+04  0.27276186263E+04  0.00000000000E+00 0. -1.
         22    1    3    3    0    0 -0.33297158652E+02 -0.29596058522E+02  0.70911045966E+03  0.71050845980E+03  0.00000000000E+00 0. -1.
         22    1    3    3    0    0  0.34203308107E+02  0.42909075336E+01  0.60767556528E+02  0.69863968534E+02  0.00000000000E+00 0. -1.
</event>
<event>
 7    1  0.6103724E-006  0.6816562E+02  0.7818608E-02  0.1403591E+00
          2   -1    0    0  502    0  0.00000000000E+00  0.00000000000E+00  0.20689579828E+04  0.20689579828E+04  0.00000000000E+00 0. -1.
          1   -1    0    0  501    0 -0.00000000000E+00 -0.00000000000E+00 -0.24283829281E+03  0.24283829281E+03  0.00000000000E+00 0. -1.
         25    2    1    2    0    0 -0.36942416283E+02 -0.42163284289E+02  0.39899551210E+03  0.42185860621E+03  0.12499912116E+03 0.  0.
          2    1    1    2  501    0  0.42226158495E+02 -0.27626995362E+02 -0.22790740841E+03  0.23342683252E+03  0.00000000000E+00 0. -1.
          1    1    1    2  502    0 -0.52837422120E+01  0.69790279651E+02  0.16550315863E+04  0.16565108369E+04  0.00000000000E+00 0. -1.
         22    1    3    3    0    0 -0.71588616671E+02 -0.28975830863E+02  0.13713095416E+03  0.15738305944E+03  0.00000000000E+00 0.  1.
         22    1    3    3    0    0  0.34646200388E+02 -0.13187453426E+02  0.26186455794E+03  0.26447554677E+03  0.00000000000E+00 0.  1.
</event>
<event>
 7    1  0.6103724E-006  0.1175648E+03  0.7818608E-02  0.1278147E+00
          2   -1    0    0  502    0  0.00000000000E+00  0.00000000000E+00  0.62033791584E+03  0.62033791584E+03  0.00000000000E+00 0. -1.
          1   -1    0    0  501    0 -0.00000000000E+00 -0.00000000000E+00 -0.13004712305E+04  0.13004712305E+04  0.00000000000E+00 0. -1.
         25    2    1    2    0    0 -0.54508619259E+02  0.18100060999E+03 -0.83554787834E+03  0.86573567033E+03  0.12500233396E+03 0.  0.
          2    1    1    2  501    0 -0.13675824035E+02 -0.85734924670E+02 -0.43987742882E+03  0.44836331011E+03  0.00000000000E+00 0. -1.
          1    1    1    2  502    0  0.68184443294E+02 -0.95265685316E+02  0.59529199248E+03  0.60671016591E+03  0.00000000000E+00 0. -1.
         22    1    3    3    0    0 -0.75180045668E+02  0.17126928430E+03 -0.58560470634E+03  0.61475042017E+03  0.00000000000E+00 0. -1.
         22    1    3    3    0    0  0.20671426409E+02  0.97313256865E+01 -0.24994317199E+03  0.25098525016E+03  0.00000000000E+00 0. -1.
</event>
<event>
 7    1  0.6103724E-006  0.5951907E+02  0.7818608E-02  0.1418802E+00
          2   -1    0    0  502    0  0.00000000000E+00  0.00000000000E+00  0.78924421481E+03  0.78924421481E+03  0.00000000000E+00 0. -1.
          1   -1    0    0  501    0 -0.00000000000E+00 -0.00000000000E+00 -0.15893316390E+03  0.15893316390E+03  0.00000000000E+00 0. -1.
         25    2    1    2    0    0 -0.15717633221E+02  0.10848425700E+03  0.13040498454E+02  0.16676502409E+03  0.12499856259E+03 0.  0.
          2    1    1    2  501    0  0.12121560118E+02 -0.49882192056E+02 -0.72673163062E+02  0.88975018592E+02  0.00000000000E+00 0. -1.
          1    1    1    2  502    0  0.35960731028E+01 -0.58602064942E+02  0.68994371551E+03  0.69243733603E+03  0.00000000000E+00 0. -1.
         22    1    3    3    0    0 -0.20813526474E+02  0.10700221428E+03 -0.38006146351E+02  0.11544324972E+03  0.00000000000E+00 0.  1.
         22    1    3    3    0    0  0.50958932530E+01  0.14820427188E+01  0.51046644805E+02  0.51321774371E+02  0.00000000000E+00 0.  1.
</event>
<event>
 7    1  0.6103724E-006  0.1416241E+03  0.7818608E-02  0.1224891E+00
          2   -1    0    0  502    0  0.00000000000E+00  0.00000000000E+00  0.21038508474E+04  0.21038508474E+04  0.00000000000E+00 0. -1.
          1   -1    0    0  501    0 -0.00000000000E+00 -0.00000000000E+00 -0.16747300999E+04  0.16747300999E+04  0.00000000000E+00 0. -1.
         25    2    1    2    0    0 -0.40412123016E+02 -0.17608121409E+03  0.85203249227E+01  0.21983990913E+03  0.12497702216E+03 0.  0.
          2    1    1    2  501    0 -0.76458399683E+02  0.95777662797E+02 -0.15641439089E+04  0.15689376709E+04  0.00000000000E+00 0. -1.
          1    1    1    2  502    0  0.11687052270E+03  0.80303551292E+02  0.19847443314E+04  0.19898033673E+04  0.00000000000E+00 0. -1.
         22    1    3    3    0    0 -0.34877822096E+02 -0.19485908143E+03  0.16623643568E+02  0.19865263556E+03  0.00000000000E+00 0.  1.
         22    1    3    3    0    0 -0.55343009205E+01  0.18777867337E+02 -0.81033186448E+01  0.21187273573E+02  0.00000000000E+00 0.  1.
</event>
<event>
 7    1  0.6103724E-006  0.5630040E+02  0.7818608E-02  0.1483517E+00
          2   -1    0    0  502    0  0.00000000000E+00  0.00000000000E+00  0.44723557734E+03  0.44723557734E+03  0.00000000000E+00 0. -1.
          1   -1    0    0  501    0 -0.00000000000E+00 -0.00000000000E+00 -0.28217365095E+03  0.28217365095E+03  0.00000000000E+00 0. -1.
         25    2    1    2    0    0 -0.26326453944E+02 -0.67338733057E+01  0.31472616622E+03  0.33973196676E+03  0.12500728901E+03 0.  0.
          2    1    1    2  501    0  0.55749112217E+02 -0.97126690082E+01 -0.26424755836E+03  0.27023891569E+03  0.00000000000E+00 0. -1.
          1    1    1    2  502    0 -0.29422658273E+02  0.16446542314E+02  0.11458331852E+03  0.11943834584E+03  0.00000000000E+00 0. -1.
         22    1    3    3    0    0  0.20488957948E+02  0.35470377600E+01 -0.58167619649E+00  0.20801856212E+02  0.00000000000E+00 0. -1.
         22    1    3    3    0    0 -0.46815411892E+02 -0.10280911066E+02  0.31530784242E+03  0.31893011055E+03  0.00000000000E+00 0. -1.
</event>
<event>
 7    1  0.6103724E-006  0.4062221E+02  0.7818608E-02  0.1545401E+00
          2   -1    0    0  502    0  0.00000000000E+00  0.00000000000E+00  0.20686921615E+03  0.20686921615E+03  0.00000000000E+00 0. -1.
          1   -1    0    0  501    0 -0.00000000000E+00 -0.00000000000E+00 -0.20712561170E+03  0.20712561170E+03  0.00000000000E+00 0. -1.
         25    2    1    2    0    0 -0.23426580116E+02  0.34390758306E+02  0.72538689153E+02  0.15039504237E+03  0.12500111373E+03 0.  0.
          2    1    1    2  501    0  0.30021063256E+02  0.68135085176E+01 -0.16211560329E+03  0.16501259639E+03  0.00000000000E+00 0. -1.
          1    1    1    2  502    0 -0.65944831400E+01 -0.41204266823E+02  0.89320518589E+02  0.98587189093E+02  0.00000000000E+00 0. -1.
         22    1    3    3    0    0 -0.44050881111E+02 -0.34819362019E+02  0.48750036826E+02  0.74360165335E+02  0.00000000000E+00 0.  1.
         22    1    3    3    0    0  0.20624300994E+02  0.69210120325E+02  0.23788652326E+02  0.76034877039E+02  0.00000000000E+00 0.  1.
</event>
<event>
 7    1  0.6795484E-006  0.7249565E+02  0.7818608E-02  0.1380086E+00
          2   -1    0    0  502    0  0.00000000000E+00  0.00000000000E+00  0.14216973035E+04  0.14216973035E+04  0.00000000000E+00 0. -1.
          1   -1    0    0  501    0 -0.00000000000E+00 -0.00000000000E+00 -0.11531151568E+04  0.11531151568E+04  0.00000000000E+00 0. -1.
         25    2    1    2    0    0 -0.69001438295E+02 -0.83212943692E+02 -0.99946404678E+02  0.19313148262E+03  0.12499957314E+03 0.  0.
          2    1    1    2  501    0  0.13109330330E+02  0.70672271749E+02 -0.10046951906E+04  0.10072630493E+04  0.00000000000E+00 0. -1.
          1    1    1    2  502    0  0.55892107965E+02  0.12540671943E+02  0.13732237420E+04  0.13744179284E+04  0.00000000000E+00 0. -1.
         22    1    3    3    0    0 -0.15587896994E+02  0.33102256578E+02 -0.29720599481E+02  0.47138688535E+02  0.00000000000E+00 0. -1.
         22    1    3    3    0    0 -0.53413541302E+02 -0.11631520027E+03 -0.70225805197E+02  0.14599279408E+03  0.00000000000E+00 0. -1.
</event>
<event>
 7    1  0.6103724E-006  0.4685360E+03  0.7818608E-02  0.1279832E+00
          2   -1    0    0  502    0  0.00000000000E+00  0.00000000000E+00  0.57062318080E+03  0.57062318080E+03  0.00000000000E+00 0. -1.
          1   -1    0    0  501    0 -0.00000000000E+00 -0.00000000000E+00 -0.17967225156E+04  0.17967225156E+04  0.00000000000E+00 0. -1.
         25    2    1    2    0    0 -0.22737895821E+03 -0.41989557366E+03 -0.48803184104E+02  0.49600434574E+03  0.12500030719E+03 0.  0.
          2    1    1    2  501    0 -0.73036181275E+01  0.20155059390E+02 -0.13694031908E+04  0.13695709796E+04  0.00000000000E+00 0. -1.
          1    1    1    2  502    0  0.23468257634E+03  0.39974051427E+03  0.19210704010E+03  0.50177037103E+03  0.00000000000E+00 0. -1.
         22    1    3    3    0    0 -0.14527084503E+03 -0.36700355787E+03 -0.52962308853E+02  0.39824645142E+03  0.00000000000E+00 0.  1.
         22    1    3    3    0    0 -0.82108113180E+02 -0.52892015790E+02  0.41591247491E+01  0.97757894325E+02  0.00000000000E+00 0.  1.
</event>
<event>
 7    1  0.6103724E-006  0.1717494E+03  0.7818608E-02  0.1271128E+00
          2   -1    0    0  502    0  0.00000000000E+00  0.00000000000E+00  0.98371937420E+03  0.98371937420E+03  0.00000000000E+00 0. -1.
          1   -1    0    0  501    0 -0.00000000000E+00 -0.00000000000E+00 -0.20144928087E+04  0.20144928087E+04  0.00000000000E+00 0. -1.
         25    2    1    2    0    0  0.11068124674E+03 -0.28657745213E+02 -0.28513341268E+03  0.33163608635E+03  0.12493928926E+03 0.  0.
          2    1    1    2  501    0  0.61961344576E+02  0.14212315846E+02 -0.16976959534E+04  0.16988857372E+04  0.00000000000E+00 0. -1.
          1    1    1    2  502    0 -0.17264259131E+03  0.14445429367E+02  0.95205593154E+03  0.96769035933E+03  0.00000000000E+00 0. -1.
         22    1    3    3    0    0 -0.19651975178E+02 -0.20106487903E+02 -0.10771961752E+03  0.11132828473E+03  0.00000000000E+00 0. -1.
         22    1    3    3    0    0  0.13033322191E+03 -0.85512573102E+01 -0.17741379517E+03  0.22030780161E+03  0.00000000000E+00 0. -1.
</event>
<event>
 7    1  0.6103724E-006  0.5384440E+02  0.7818608E-02  0.1447395E+00
          2   -1    0    0  502    0  0.00000000000E+00  0.00000000000E+00  0.33867775584E+03  0.33867775584E+03  0.00000000000E+00 0. -1.
          1   -1    0    0  501    0 -0.00000000000E+00 -0.00000000000E+00 -0.64450190348E+03  0.64450190348E+03  0.00000000000E+00 0. -1.
         25    2    1    2    0    0 -0.10011530605E+02 -0.73256603070E+01 -0.18578387038E+03  0.22426427223E+03  0.12499968505E+03 0.  0.
          2    1    1    2  501    0 -0.44138671465E+02  0.11956680751E+02 -0.43596161276E+03  0.43835341031E+03  0.00000000000E+00 0. -1.
          1    1    1    2  502    0  0.54150202070E+02 -0.46310204444E+01  0.31592133549E+03  0.32056197678E+03  0.00000000000E+00 0. -1.
         22    1    3    3    0    0 -0.43618043471E+02  0.40497743655E+02 -0.13215074378E+03  0.14493591701E+03  0.00000000000E+00 0. -1.
         22    1    3    3    0    0  0.33606512866E+02 -0.47823403962E+02 -0.53633126606E+02  0.79328355227E+02  0.00000000000E+00 0. -1.
</event>
<event>
 7    1  0.6103724E-006  0.1304170E+03  0.7818608E-02  0.1421517E+00
          2   -1    0    0  502    0  0.00000000000E+00  0.00000000000E+00  0.76523901340E+03  0.76523901340E+03  0.00000000000E+00 0. -1.
          1   -1    0    0  501    0 -0.00000000000E+00 -0.00000000000E+00 -0.92831656364E+02  0.92831656364E+02  0.00000000000E+00 0. -1.
         25    2    1    2    0    0 -0.10907330529E+03 -0.27370223624E+02  0.42598245152E+03  0.45796475567E+03  0.12499821344E+03 0.  0.
          2    1    1    2  501    0  0.12554206929E+03  0.43344833442E+02 -0.18581965315E+02  0.13410769994E+03  0.00000000000E+00 0. -1.
          1    1    1    2  502    0 -0.16468764001E+02 -0.15974609817E+02  0.26500687083E+03  0.26599821415E+03  0.00000000000E+00 0. -1.
         22    1    3    3    0    0  0.16561521966E+02  0.23778022039E+02  0.44691471628E+02  0.53263552061E+02  0.00000000000E+00 0. -1.
         22    1    3    3    0    0 -0.12563482726E+03 -0.51148245664E+02  0.38129097989E+03  0.40470120361E+03  0.00000000000E+00 0. -1.
</event>
<event>
 7    1  0.6103724E-006  0.1161614E+03  0.7818608E-02  0.1375811E+00
          2   -1    0    0  502    0  0.00000000000E+00  0.00000000000E+00  0.39778513392E+04  0.39778513392E+04  0.00000000000E+00 0. -1.
          1   -1    0    0  501    0 -0.00000000000E+00 -0.00000000000E+00 -0.15350264130E+03  0.15350264130E+03  0.00000000000E+00 0. -1.
         25    2    1    2    0    0 -0.62627537992E+02 -0.91637901101E+02  0.22299516298E+04  0.22362081403E+04  0.12499144848E+03 0.  0.
          2    1    1    2  501    0  0.92750590886E+02  0.70116407455E+02 -0.12767012089E+03  0.17268075304E+03  0.00000000000E+00 0. -1.
          1    1    1    2  502    0 -0.30123052895E+02  0.21521493646E+02  0.17220671890E+04  0.17224650871E+04  0.00000000000E+00 0. -1.
         22    1    3    3    0    0  0.47063592940E+01 -0.96058883086E+02  0.15268176603E+04  0.15298436609E+04  0.00000000000E+00 0.  1.
         22    1    3    3    0    0 -0.67333897286E+02  0.44209819856E+01  0.70313396945E+03  0.70636447943E+03  0.00000000000E+00 0.  1.
</event>
<event>
 7    1  0.6103724E-006  0.7897086E+02  0.7818608E-02  0.1506478E+00
          2   -1    0    0  502    0  0.00000000000E+00  0.00000000000E+00  0.23009923881E+04  0.23009923881E+04  0.00000000000E+00 0. -1.
          1   -1    0    0  501    0 -0.00000000000E+00 -0.00000000000E+00 -0.45168795427E+03  0.45168795427E+03  0.00000000000E+00 0. -1.
         25    2    1    2    0    0 -0.22579038215E+02  0.69265737917E+02  0.12895331151E+04  0.12976245968E+04  0.12500553552E+03 0.  0.
          2    1    1    2  501    0 -0.20490509694E+02  0.65362531750E+00 -0.44573269848E+03  0.44620390710E+03  0.00000000000E+00 0. -1.
          1    1    1    2  502    0  0.43069547909E+02 -0.69919363235E+02  0.10055040172E+04  0.10088518384E+04  0.00000000000E+00 0. -1.
         22    1    3    3    0    0 -0.32667150240E+02  0.86242385281E+02  0.12503504187E+04  0.12537468091E+04  0.00000000000E+00 0. -1.
         22    1    3    3    0    0  0.10088112025E+02 -0.16976647364E+02  0.39182696394E+02  0.43877787736E+02  0.00000000000E+00 0. -1.
</event>
<event>
 7    1  0.6103724E-006  0.9133399E+02  0.7818608E-02  0.1477959E+00
          2   -1    0    0  502    0  0.00000000000E+00  0.00000000000E+00  0.17457096035E+04  0.17457096035E+04  0.00000000000E+00 0. -1.
          1   -1    0    0  501    0 -0.00000000000E+00 -0.00000000000E+00 -0.13408773310E+03  0.13408773310E+03  0.00000000000E+00 0. -1.
         25    2    1    2    0    0  0.88653597912E+02  0.31088130494E+02  0.74579804822E+03  0.76201361165E+03  0.12499633328E+03 0.  0.
          2    1    1    2  501    0 -0.76922826985E+02 -0.49235964017E+02 -0.10929167004E+03  0.14242882645E+03  0.00000000000E+00 0. -1.
          1    1    1    2  502    0 -0.11730770927E+02  0.18147833523E+02  0.97511549226E+03  0.97535489853E+03  0.00000000000E+00 0. -1.
         22    1    3    3    0    0 -0.31307604011E+02  0.32140429371E+01  0.11081592060E+03  0.11519836977E+03  0.00000000000E+00 0.  1.
         22    1    3    3    0    0  0.11996120192E+03  0.27874087557E+02  0.63498212762E+03  0.64681524188E+03  0.00000000000E+00 0.  1.
</event>
<event>
 7    1  0.6103724E-006  0.7091536E+02  0.7818608E-02  0.1380713E+00
          2   -1    0    0  502    0  0.00000000000E+00  0.00000000000E+00  0.51006537025E+02  0.51006537025E+02  0.00000000000E+00 0. -1.
          1   -1    0    0  501    0 -0.00000000000E+00 -0.00000000000E+00 -0.55316856368E+03  0.55316856368E+03  0.00000000000E+00 0. -1.
         25    2    1    2    0    0 -0.35028980238E+02  0.14718524811E+02 -0.15051261841E+03  0.19930638367E+03  0.12500128736E+03 0.  0.
          2    1    1    2  501    0 -0.19087342631E+02  0.55044120861E+02 -0.29331903908E+03  0.29904889329E+03  0.00000000000E+00 0. -1.
          1    1    1    2  502    0  0.54116322869E+02 -0.69762645671E+02 -0.58330369168E+02  0.10581982375E+03  0.00000000000E+00 0. -1.
         22    1    3    3    0    0 -0.13099943492E+00  0.45203740620E+02 -0.14589650926E+03  0.15273894965E+03  0.00000000000E+00 0. -1.
         22    1    3    3    0    0 -0.34897980803E+02 -0.30485215809E+02 -0.46161091511E+01  0.46567434015E+02  0.00000000000E+00 0. -1.
</event>
<event>
 7    1  0.6103724E-006  0.8785955E+02  0.7818608E-02  0.1388126E+00
          2   -1    0    0  502    0  0.00000000000E+00  0.00000000000E+00  0.67354318323E+02  0.67354318323E+02  0.00000000000E+00 0. -1.
          1   -1    0    0  501    0 -0.00000000000E+00 -0.00000000000E+00 -0.20469230270E+04  0.20469230270E+04  0.00000000000E+00 0. -1.
         25    2    1    2    0    0 -0.21707366658E+02 -0.39204442743E+02 -0.18506099922E+04  0.18553682061E+04  0.12500255522E+03 0.  0.
          2    1    1    2  501    0 -0.29093479678E+02 -0.33384557336E+02 -0.15923620024E+03  0.16527893603E+03  0.00000000000E+00 0. -1.
          1    1    1    2  502    0  0.50800846336E+02  0.72589000079E+02  0.30277483801E+02  0.93630203173E+02  0.00000000000E+00 0. -1.
         22    1    3    3    0    0  0.36887629201E+02 -0.47456252999E+02 -0.52343759732E+03  0.52687732104E+03  0.00000000000E+00 0.  1.
         22    1    3    3    0    0 -0.58594995859E+02  0.82518102567E+01 -0.13271723949E+04  0.13284908851E+04  0.00000000000E+00 0.  1.
</event>
<event>
 7    1  0.6103724E-006  0.9707672E+02  0.7818608E-02  0.1437145E+00
          2   -1    0    0  502    0  0.00000000000E+00  0.00000000000E+00  0.11975051071E+04  0.11975051071E+04  0.00000000000E+00 0. -1.
          1   -1    0    0  501    0 -0.00000000000E+00 -0.00000000000E+00 -0.11880711675E+04  0.11880711675E+04  0.00000000000E+00 0. -1.
         25    2    1    2    0    0  0.81036521809E+02  0.95695745478E+01  0.21533818339E+03  0.26201990091E+03  0.12500160249E+03 0.  0.
          2    1    1    2  501    0 -0.90631090792E+02 -0.35209778985E+02 -0.11625049724E+04  0.11665639862E+04  0.00000000000E+00 0. -1.
          1    1    1    2  502    0  0.95945689828E+01  0.25640204437E+02  0.95660072859E+03  0.95699238752E+03  0.00000000000E+00 0. -1.
         22    1    3    3    0    0  0.42472721282E+02  0.62199117502E+02  0.70501291590E+02  0.10316537397E+03  0.00000000000E+00 0. -1.
         22    1    3    3    0    0  0.38563800527E+02 -0.52629542954E+02  0.14483689180E+03  0.15885452694E+03  0.00000000000E+00 0. -1.
</event>
<event>
 7    1  0.6103724E-006  0.7171959E+02  0.7818608E-02  0.1509946E+00
          2   -1    0    0  502    0  0.00000000000E+00  0.00000000000E+00  0.82982005543E+03  0.82982005543E+03  0.00000000000E+00 0. -1.
          1   -1    0    0  501    0 -0.00000000000E+00 -0.00000000000E+00 -0.16491260105E+03  0.16491260105E+03  0.00000000000E+00 0. -1.
         25    2    1    2    0    0  0.43385052710E+02 -0.82126311525E+02  0.81845279112E+02  0.17592940344E+03  0.12500204574E+03 0.  0.
          2    1    1    2  501    0 -0.11709996868E+02  0.18681322185E+02 -0.11502733313E+03  0.11712131827E+03  0.00000000000E+00 0. -1.
          1    1    1    2  502    0 -0.31675055841E+02  0.63444989340E+02  0.69808950840E+03  0.70168193476E+03  0.00000000000E+00 0. -1.
         22    1    3    3    0    0  0.50282015175E+01 -0.23920022159E+02 -0.33311850358E+02  0.41317425438E+02  0.00000000000E+00 0.  1.
         22    1    3    3    0    0  0.38356851192E+02 -0.58206289366E+02  0.11515712947E+03  0.13461197801E+03  0.00000000000E+00 0.  1.
</event>
<event>
 7    1  0.6103724E-006  0.6205538E+02  0.7818608E-02  0.1399523E+00
          2   -1    0    0  502    0  0.00000000000E+00  0.00000000000E+00  0.31460868440E+04  0.31460868440E+04  0.00000000000E+00 0. -1.
          1   -1    0    0  501    0 -0.00000000000E+00 -0.00000000000E+00 -0.24958552129E+03  0.24958552129E+03  0.00000000000E+00 0. -1.
         25    2    1    2    0    0 -0.34774508112E+02 -0.36077953877E+02  0.15896472830E+03  0.20833737929E+03  0.12499517429E+03 0.  0.
          2    1    1    2  501    0 -0.16944917692E+02  0.60602630393E+02 -0.22021510570E+03  0.22902947807E+03  0.00000000000E+00 0. -1.
          1    1    1    2  502    0  0.51719425804E+02 -0.24524676516E+02  0.29577517001E+04  0.29583055079E+04  0.00000000000E+00 0. -1.
         22    1    3    3    0    0 -0.48152499474E+02 -0.55971684813E+02  0.16737064153E+03  0.18293284110E+03  0.00000000000E+00 0. -1.
         22    1    3    3    0    0  0.13377991362E+02  0.19893730937E+02 -0.84059132306E+01  0.25404538191E+02  0.00000000000E+00 0. -1.
</event>
<event>
 7    1  0.6103724E-006  0.4909381E+02  0.7818608E-02  0.1450497E+00
          2   -1    0    0  502    0  0.00000000000E+00  0.00000000000E+00  0.70704010813E+03  0.70704010813E+03  0.00000000000E+00 0. -1.
          1   -1    0    0  501    0 -0.00000000000E+00 -0.00000000000E+00 -0.16647227200E+04  0.16647227200E+04  0.00000000000E+00 0. -1.
         25    2    1    2    0    0  0.30878743038E+02 -0.15446184720E+02 -0.10404859754E+03  0.16626422972E+03  0.12500240813E+03 0.  0.
          2    1    1    2  501    0  0.53773863682E+01  0.48798418466E+02 -0.15282740115E+04  0.15290623455E+04  0.00000000000E+00 0. -1.
          1    1    1    2  502    0 -0.36256129406E+02 -0.33352233746E+02  0.67463999723E+03  0.67643625293E+03  0.00000000000E+00 0. -1.
         22    1    3    3    0    0  0.63234110138E+02 -0.51269348545E+02 -0.64670143980E+02  0.10396790999E+03  0.00000000000E+00 0.  1.
         22    1    3    3    0    0 -0.32355367100E+02  0.35823163825E+02 -0.39378453563E+02  0.62296319727E+02  0.00000000000E+00 0.  1.
</event>
<event>
 7    1  0.6103724E-006  0.6187592E+02  0.7818608E-02  0.1508449E+00
          2   -1    0    0  502    0  0.00000000000E+00  0.00000000000E+00  0.85083427958E+03  0.85083427958E+03  0.00000000000E+00 0. -1.
          1   -1    0    0  501    0 -0.00000000000E+00 -0.00000000000E+00 -0.12474235679E+03  0.12474235679E+03  0.00000000000E+00 0. -1.
         25    2    1    2    0    0 -0.11951949550E+02  0.46608499258E+02  0.17406850020E+03  0.21963709348E+03  0.12500163506E+03 0.  0.
          2    1    1    2  501    0 -0.86859497264E+01 -0.62118814425E+02 -0.92028327299E+02  0.11137057894E+03  0.00000000000E+00 0. -1.
          1    1    1    2  502    0  0.20637899276E+02  0.15510315167E+02  0.64405174989E+03  0.64456896396E+03  0.00000000000E+00 0. -1.
         22    1    3    3    0    0  0.77523447905E+01  0.70514570540E+02  0.38781027858E+02  0.80847830088E+02  0.00000000000E+00 0. -1.
         22    1    3    3    0    0 -0.19704294340E+02 -0.23906071282E+02  0.13528747234E+03  0.13878926339E+03  0.00000000000E+00 0. -1.
</event>
<event>
 7    1  0.6103724E-006  0.7259280E+02  0.7818608E-02  0.1361347E+00
          2   -1    0    0  502    0  0.00000000000E+00  0.00000000000E+00  0.13664236158E+04  0.13664236158E+04  0.00000000000E+00 0. -1.
          1   -1    0    0  501    0 -0.00000000000E+00 -0.00000000000E+00 -0.29326912300E+03  0.29326912300E+03  0.00000000000E+00 0. -1.
         25    2    1    2    0    0  0.34967308403E+00 -0.27856235336E+02  0.19555667787E+03  0.23375799647E+03  0.12499717811E+03 0.  0.
          2    1    1    2  501    0  0.66018877673E+02 -0.10138379591E+02 -0.26880750731E+03  0.27698150649E+03  0.00000000000E+00 0. -1.
          1    1    1    2  502    0 -0.66368550757E+02  0.37994614927E+02  0.11464053222E+04  0.11489532358E+04  0.00000000000E+00 0. -1.
         22    1    3    3    0    0  0.16065234059E+02  0.24807046660E+02  0.17104813870E+03  0.17358268077E+03  0.00000000000E+00 0.  1.
         22    1    3    3    0    0 -0.15715560975E+02 -0.52663281997E+02  0.24508539170E+02  0.60175315700E+02  0.00000000000E+00 0.  1.
</event>
<event>
 7    1  0.6103724E-006  0.7344512E+02  0.7818608E-02  0.1420803E+00
          2   -1    0    0  502    0  0.00000000000E+00  0.00000000000E+00  0.25414486719E+04  0.25414486719E+04  0.00000000000E+00 0. -1.
          1   -1    0    0  501    0 -0.00000000000E+00 -0.00000000000E+00 -0.30486824483E+02  0.30486824483E+02  0.00000000000E+00 0. -1.
         25    2    1    2    0    0 -0.11023527083E+03 -0.22789557302E+02  0.39858622055E+03  0.43261962517E+03  0.12497034053E+03 0.  0.
          2    1    1    2  501    0  0.38894201621E+02  0.12859126053E+02  0.19796482956E+02  0.45497437070E+02  0.00000000000E+00 0. -1.
          1    1    1    2  502    0  0.71341069212E+02  0.99304312493E+01  0.20925791439E+04  0.20938184341E+04  0.00000000000E+00 0. -1.
         22    1    3    3    0    0 -0.51069050182E+02  0.51908082515E+02  0.16592914939E+03  0.18120424811E+03  0.00000000000E+00 0.  1.
         22    1    3    3    0    0 -0.59166220651E+02 -0.74697639817E+02  0.23265707117E+03  0.25141537707E+03  0.00000000000E+00 0.  1.
</event>
<event>
 7    1  0.6103724E-006  0.4523087E+02  0.7818608E-02  0.1508473E+00
          2   -1    0    0  502    0  0.00000000000E+00  0.00000000000E+00  0.48620189861E+03  0.48620189861E+03  0.00000000000E+00 0. -1.
          1   -1    0    0  501    0 -0.00000000000E+00 -0.00000000000E+00 -0.10414941985E+04  0.10414941985E+04  0.00000000000E+00 0. -1.
         25    2    1    2    0    0 -0.12333701956E+02  0.79241743497E+02  0.16790748549E+03  0.22416504606E+03  0.12500268026E+03 0.  0.
          2    1    1    2  501    0  0.10075565328E+02 -0.44002823884E+02 -0.10117860115E+04  0.10127925249E+04  0.00000000000E+00 0. -1.
          1    1    1    2  502    0  0.22581366274E+01 -0.35238919613E+02  0.28858622613E+03  0.29073852609E+03  0.00000000000E+00 0. -1.
         22    1    3    3    0    0 -0.52922366902E+02 -0.63752433861E+01  0.52129590949E+02  0.74558131007E+02  0.00000000000E+00 0.  1.
         22    1    3    3    0    0  0.40588664947E+02  0.85616986883E+02  0.11577789454E+03  0.14960691505E+03  0.00000000000E+00 0.  1.
</event>
<event>
 7    1  0.6103724E-006  0.5835986E+02  0.7818608E-02  0.1530707E+00
          2   -1    0    0  502    0  0.00000000000E+00  0.00000000000E+00  0.99283891642E+02  0.99283891642E+02  0.00000000000E+00 0. -1.
          1   -1    0    0  501    0 -0.00000000000E+00 -0.00000000000E+00 -0.24781447799E+04  0.24781447799E+04  0.00000000000E+00 0. -1.
         25    2    1    2    0    0 -0.16494689423E+02 -0.39162100152E+02 -0.13631930329E+04  0.13695713160E+04  0.12499839819E+03 0.  0.
          2    1    1    2  501    0 -0.23293107665E+02 -0.36962839273E+01 -0.11027275927E+04  0.11029797709E+04  0.00000000000E+00 0. -1.
          1    1    1    2  502    0  0.39787797088E+02  0.42858384079E+02  0.87059737403E+02  0.10487758464E+03  0.00000000000E+00 0. -1.
         22    1    3    3    0    0 -0.58829900825E+02 -0.39058859796E+02 -0.46018774221E+03  0.46557417222E+03  0.00000000000E+00 0. -1.
         22    1    3    3    0    0  0.42335211402E+02 -0.10324035607E+00 -0.90300529074E+03  0.90399714374E+03  0.00000000000E+00 0. -1.
</event>
<event>
 7    1  0.6103724E-006  0.8673260E+02  0.7818608E-02  0.1389179E+00
          2   -1    0    0  502    0  0.00000000000E+00  0.00000000000E+00  0.40999759622E+02  0.40999759622E+02  0.00000000000E+00 0. -1.
          1   -1    0    0  501    0 -0.00000000000E+00 -0.00000000000E+00 -0.11538508389E+04  0.11538508389E+04  0.00000000000E+00 0. -1.
         25    2    1    2    0    0 -0.84497477216E+02 -0.51582357410E+02 -0.57890267243E+03  0.60046321495E+03  0.12500882017E+03 0.  0.
          2    1    1    2  501    0  0.38789945402E+02 -0.21765860537E+02 -0.49929863500E+03  0.50127591151E+03  0.00000000000E+00 0. -1.
          1    1    1    2  502    0  0.45707531814E+02  0.73348217947E+02 -0.34649771867E+02  0.93111472070E+02  0.00000000000E+00 0. -1.
         22    1    3    3    0    0 -0.11037381192E+03 -0.27275078689E+02 -0.32988629772E+03  0.34892875734E+03  0.00000000000E+00 0. -1.
         22    1    3    3    0    0  0.25876334703E+02 -0.24307278722E+02 -0.24901637470E+03  0.25153445761E+03  0.00000000000E+00 0. -1.
</event>
<event>
 7    1  0.6103724E-006  0.1011438E+03  0.7818608E-02  0.1388572E+00
          2   -1    0    0  502    0  0.00000000000E+00  0.00000000000E+00  0.56267893022E+03  0.56267893022E+03  0.00000000000E+00 0. -1.
          1   -1    0    0  501    0 -0.00000000000E+00 -0.00000000000E+00 -0.19553156725E+03  0.19553156725E+03  0.00000000000E+00 0. -1.
         25    2    1    2    0    0 -0.58123843438E+02  0.36236824419E+02 -0.94919605097E+02  0.17124743724E+03  0.12499785882E+03 0.  0.
          2    1    1    2  501    0 -0.38294449000E+02 -0.16222197639E+01 -0.50983910725E+02  0.63784446176E+02  0.00000000000E+00 0. -1.
          1    1    1    2  502    0  0.96418292438E+02 -0.34614604655E+02  0.51305087879E+03  0.52317861405E+03  0.00000000000E+00 0. -1.
         22    1    3    3    0    0  0.33739074601E+02 -0.12159040341E+02 -0.40226909464E+02  0.53892222648E+02  0.00000000000E+00 0. -1.
         22    1    3    3    0    0 -0.91862918039E+02  0.48395864760E+02 -0.54692695633E+02  0.11735521459E+03  0.00000000000E+00 0. -1.
</event>
<event>
 7    1  0.6103724E-006  0.6681655E+02  0.7818608E-02  0.1399525E+00
          2   -1    0    0  502    0  0.00000000000E+00  0.00000000000E+00  0.45910311911E+03  0.45910311911E+03  0.00000000000E+00 0. -1.
          1   -1    0    0  501    0 -0.00000000000E+00 -0.00000000000E+00 -0.10289277509E+04  0.10289277509E+04  0.00000000000E+00 0. -1.
         25    2    1    2    0    0 -0.78855894490E+02  0.18027247043E+02  0.40426390689E+03  0.43081332704E+03  0.12501033000E+03 0.  0.
          2    1    1    2  501    0  0.39579232437E+02 -0.53850875966E+02 -0.99706667994E+03  0.99930395612E+03  0.00000000000E+00 0. -1.
          1    1    1    2  502    0  0.39276662053E+02  0.35823628923E+02  0.22978141219E+02  0.57913586878E+02  0.00000000000E+00 0. -1.
         22    1    3    3    0    0 -0.11384605138E+02  0.48348817657E+02  0.56324538834E+02  0.75097743494E+02  0.00000000000E+00 0. -1.
         22    1    3    3    0    0 -0.67471289352E+02 -0.30321570614E+02  0.34793936806E+03  0.35571558354E+03  0.00000000000E+00 0. -1.
</event>
<event>
 7    1  0.6103724E-006  0.7307308E+02  0.7818608E-02  0.1370181E+00
          2   -1    0    0  502    0  0.00000000000E+00  0.00000000000E+00  0.40767754441E+03  0.40767754441E+03  0.00000000000E+00 0. -1.
          1   -1    0    0  501    0 -0.00000000000E+00 -0.00000000000E+00 -0.87045504643E+03  0.87045504643E+03  0.00000000000E+00 0. -1.
         25    2    1    2    0    0 -0.52853597005E+02 -0.22642123823E+02  0.76770910978E+02  0.15755981274E+03  0.12500061332E+03 0.  0.
          2    1    1    2  501    0  0.62956715999E+02 -0.38170719490E+02 -0.82513264494E+03  0.82841078799E+03  0.00000000000E+00 0. -1.
          1    1    1    2  502    0 -0.10103118994E+02  0.60812843314E+02  0.28558423195E+03  0.29216199011E+03  0.00000000000E+00 0. -1.
         22    1    3    3    0    0  0.25670459357E+01 -0.35447939476E+02 -0.23268475351E+02  0.42480208133E+02  0.00000000000E+00 0. -1.
         22    1    3    3    0    0 -0.55420642941E+02  0.12805815652E+02  0.10003938633E+03  0.11507960460E+03  0.00000000000E+00 0. -1.
</event>
<event>
 7    1  0.6103724E-006  0.1335096E+03  0.7818608E-02  0.1293224E+00
          2   -1    0    0  502    0  0.00000000000E+00  0.00000000000E+00  0.65814559468E+03  0.65814559468E+03  0.00000000000E+00 0. -1.
          1   -1    0    0  501    0 -0.00000000000E+00 -0.00000000000E+00 -0.67182915135E+03  0.67182915135E+03  0.00000000000E+00 0. -1.
         25    2    1    2    0    0  0.57831577643E+02 -0.11776780116E+03 -0.13392484010E+03  0.22533354369E+03  0.12500238700E+03 0.  0.
          2    1    1    2  501    0 -0.11165609028E+03  0.79023795124E+02 -0.48083667168E+03  0.49991574043E+03  0.00000000000E+00 0. -1.
          1    1    1    2  502    0  0.53824512633E+02  0.38744006035E+02  0.60107795511E+03  0.60472546191E+03  0.00000000000E+00 0. -1.
         22    1    3    3    0    0  0.71702499663E+02 -0.82605657310E+02 -0.14882867166E+03  0.18470223763E+03  0.00000000000E+00 0.  1.
         22    1    3    3    0    0 -0.13870922020E+02 -0.35162143849E+02  0.14903831556E+02  0.40631306068E+02  0.00000000000E+00 0.  1.
</event>
<event>
 7    1  0.6103724E-006  0.2132126E+03  0.7818608E-02  0.1277906E+00
          2   -1    0    0  502    0  0.00000000000E+00  0.00000000000E+00  0.19933953821E+03  0.19933953821E+03  0.00000000000E+00 0. -1.
          1   -1    0    0  501    0 -0.00000000000E+00 -0.00000000000E+00 -0.16455901312E+04  0.16455901312E+04  0.00000000000E+00 0. -1.
         25    2    1    2    0    0 -0.57992140406E+02  0.17636870972E+03 -0.43404424010E+03  0.48835230750E+03  0.12499825504E+03 0.  0.
          2    1    1    2  501    0  0.98747262970E+02 -0.20169253757E+03 -0.11701511298E+04  0.11915051692E+04  0.00000000000E+00 0. -1.
          1    1    1    2  502    0 -0.40755122564E+02  0.25323827843E+02  0.15794477688E+03  0.16507219274E+03  0.00000000000E+00 0. -1.
         22    1    3    3    0    0  0.22312905321E+01  0.13706179952E+02  0.61721440839E+01  0.15196492651E+02  0.00000000000E+00 0. -1.
         22    1    3    3    0    0 -0.60223430938E+02  0.16266252977E+03 -0.44021638418E+03  0.47315581485E+03  0.00000000000E+00 0. -1.
</event>
<event>
 7    1  0.6103724E-006  0.5453289E+02  0.7818608E-02  0.1495581E+00
          2   -1    0    0  502    0  0.00000000000E+00  0.00000000000E+00  0.12413393466E+04  0.12413393466E+04  0.00000000000E+00 0. -1.
          1   -1    0    0  501    0 -0.00000000000E+00 -0.00000000000E+00 -0.24177426211E+03  0.24177426211E+03  0.00000000000E+00 0. -1.
         25    2    1    2    0    0  0.49775724507E+02 -0.57305839556E+02  0.81590814887E+02  0.16746170404E+03  0.12499911699E+03 0.  0.
          2    1    1    2  501    0 -0.31379181925E+02  0.62369421954E+01 -0.19688728388E+03  0.19946968456E+03  0.00000000000E+00 0. -1.
          1    1    1    2  502    0 -0.18396542582E+02  0.51068897360E+02  0.11148615535E+04  0.11161822202E+04  0.00000000000E+00 0. -1.
         22    1    3    3    0    0 -0.41559918597E+01  0.14636243503E+02  0.75855436603E+02  0.77366266257E+02  0.00000000000E+00 0. -1.
         22    1    3    3    0    0  0.53931716367E+02 -0.71942083058E+02  0.57353782839E+01  0.90095437782E+02  0.00000000000E+00 0. -1.
</event>
<event>
 7    1  0.6103724E-006  0.2043202E+03  0.7818608E-02  0.1327204E+00
          2   -1    0    0  502    0  0.00000000000E+00  0.00000000000E+00  0.21575079806E+04  0.21575079806E+04  0.00000000000E+00 0. -1.
          1   -1    0    0  501    0 -0.00000000000E+00 -0.00000000000E+00 -0.11251004203E+03  0.11251004203E+03  0.00000000000E+00 0. -1.
         25    2    1    2    0    0  0.22444128660E+03 -0.63793382250E+02  0.10771136708E+04  0.11091624445E+04  0.12499592712E+03 0.  0.
          2    1    1    2  501    0 -0.19350382281E+03  0.56273746247E+02  0.92917536294E+01  0.20173448055E+03  0.00000000000E+00 0. -1.
          1    1    1    2  502    0 -0.30937463787E+02  0.75196360028E+01  0.95859251414E+03  0.95912109755E+03  0.00000000000E+00 0. -1.
         22    1    3    3    0    0  0.12982864134E+03  0.44272223065E+01  0.76528252894E+03  0.77622962164E+03  0.00000000000E+00 0. -1.
         22    1    3    3    0    0  0.94612645255E+02 -0.68220604556E+02  0.31183114188E+03  0.33293282291E+03  0.00000000000E+00 0. -1.
</event>
<event>
 7    1  0.6103724E-006  0.3686247E+02  0.7818608E-02  0.1552131E+00
          2   -1    0    0  502    0  0.00000000000E+00  0.00000000000E+00  0.62016569069E+02  0.62016569069E+02  0.00000000000E+00 0. -1.
          1   -1    0    0  501    0 -0.00000000000E+00 -0.00000000000E+00 -0.24417665367E+04  0.24417665367E+04  0.00000000000E+00 0. -1.
         25    2    1    2    0    0  0.19345069924E+02  0.16975117493E+02 -0.95103757984E+03  0.95956253937E+03  0.12500160935E+03 0.  0.
          2    1    1    2  501    0  0.56342922870E+01 -0.37746128308E+02 -0.14816327132E+04  0.14821241554E+04  0.00000000000E+00 0. -1.
          1    1    1    2  502    0 -0.24979362211E+02  0.20771010814E+02  0.52920325326E+02  0.62096411002E+02  0.00000000000E+00 0. -1.
         22    1    3    3    0    0 -0.21744137892E+02 -0.18506461095E+02 -0.77074497540E+03  0.77127369574E+03  0.00000000000E+00 0. -1.
         22    1    3    3    0    0  0.41089207817E+02  0.35481578588E+02 -0.18029260444E+03  0.18828884363E+03  0.00000000000E+00 0. -1.
</event>
<event>
 7    1  0.6103724E-006  0.2565388E+03  0.7818608E-02  0.1283831E+00
          2   -1    0    0  502    0  0.00000000000E+00  0.00000000000E+00  0.31579970170E+04  0.31579970170E+04  0.00000000000E+00 0. -1.
          1   -1    0    0  501    0 -0.00000000000E+00 -0.00000000000E+00 -0.13222570374E+03  0.13222570374E+03  0.00000000000E+00 0. -1.
         25    2    1    2    0    0 -0.26463800363E+03  0.97791891106E+02  0.51696664284E+03  0.60206541175E+03  0.12502689026E+03 0.  0.
          2    1    1    2  501    0  0.36132464580E+02  0.10741008972E+02 -0.79255552532E+02  0.87763129374E+02  0.00000000000E+00 0. -1.
          1    1    1    2  502    0  0.22850553905E+03 -0.10853290008E+03  0.25880602230E+04  0.26003941796E+04  0.00000000000E+00 0. -1.
         22    1    3    3    0    0 -0.35026311623E+02  0.19606614264E+02  0.19426634874E+03  0.19837004835E+03  0.00000000000E+00 0. -1.
         22    1    3    3    0    0 -0.22961169201E+03  0.78185276842E+02  0.32270029410E+03  0.40369536340E+03  0.00000000000E+00 0. -1.
</event>
<event>
 7    1  0.6103724E-006  0.5201029E+02  0.7818608E-02  0.1467772E+00
          2   -1    0    0  502    0  0.00000000000E+00  0.00000000000E+00  0.90475806073E+02  0.90475806073E+02  0.00000000000E+00 0. -1.
          1   -1    0    0  501    0 -0.00000000000E+00 -0.00000000000E+00 -0.54358599503E+03  0.54358599503E+03  0.00000000000E+00 0. -1.
         25    2    1    2    0    0  0.32182617892E+02 -0.16630701530E+02 -0.14327615862E+03  0.19355848136E+03  0.12499810778E+03 0.  0.
          2    1    1    2  501    0  0.17818240218E+02  0.36712216695E+02 -0.36271693480E+03  0.36500527575E+03  0.00000000000E+00 0. -1.
          1    1    1    2  502    0 -0.50000858110E+02 -0.20081515166E+02  0.52882904459E+02  0.75498043995E+02  0.00000000000E+00 0. -1.
         22    1    3    3    0    0  0.45657182117E+02  0.22007442551E+02 -0.14397121264E+03  0.15263228975E+03  0.00000000000E+00 0. -1.
         22    1    3    3    0    0 -0.13474564225E+02 -0.38638144081E+02  0.69505401763E+00  0.40926191603E+02  0.00000000000E+00 0. -1.
</event>
<event>
 7    1  0.6103724E-006  0.1030836E+03  0.7818608E-02  0.1385554E+00
          2   -1    0    0  502    0  0.00000000000E+00  0.00000000000E+00  0.60874871251E+03  0.60874871251E+03  0.00000000000E+00 0. -1.
          1   -1    0    0  501    0 -0.00000000000E+00 -0.00000000000E+00 -0.26605541054E+04  0.26605541054E+04  0.00000000000E+00 0. -1.
         25    2    1    2    0    0 -0.69511797446E+02  0.21455437721E+02 -0.17453432501E+03  0.22667051059E+03  0.12500025588E+03 0.  0.
          2    1    1    2  501    0  0.10435029348E+03 -0.49873029346E+01 -0.24582039234E+04  0.24604228064E+04  0.00000000000E+00 0. -1.
          1    1    1    2  502    0 -0.34838496038E+02 -0.16468134786E+02  0.58093285558E+03  0.58220950092E+03  0.00000000000E+00 0. -1.
         22    1    3    3    0    0 -0.83243585871E+02  0.17151303068E+02 -0.44678883790E+02  0.96020125194E+02  0.00000000000E+00 0. -1.
         22    1    3    3    0    0  0.13731788426E+02  0.43041346525E+01 -0.12985544122E+03  0.13065038539E+03  0.00000000000E+00 0. -1.
</event>
<event>
 7    1  0.6103724E-006  0.1327716E+03  0.7818608E-02  0.1299379E+00
          2   -1    0    0  502    0  0.00000000000E+00  0.00000000000E+00  0.54940474833E+03  0.54940474833E+03  0.00000000000E+00 0. -1.
          1   -1    0    0  501    0 -0.00000000000E+00 -0.00000000000E+00 -0.47837132144E+03  0.47837132144E+03  0.00000000000E+00 0. -1.
         25    2    1    2    0    0 -0.18670351953E+03  0.11385210708E+02  0.12043332330E+03  0.25517915115E+03  0.12499754636E+03 0.  0.
          2    1    1    2  501    0  0.62972361306E+02 -0.13920871089E+01 -0.39779334591E+03  0.40274930446E+03  0.00000000000E+00 0. -1.
          1    1    1    2  502    0  0.12373115822E+03 -0.99931235993E+01  0.34839344951E+03  0.36984761415E+03  0.00000000000E+00 0. -1.
         22    1    3    3    0    0 -0.20147681691E+03  0.19324365035E+02  0.92362177251E+02  0.22247946113E+03  0.00000000000E+00 0. -1.
         22    1    3    3    0    0  0.14773297386E+02 -0.79391543264E+01  0.28071146054E+02  0.32699690027E+02  0.00000000000E+00 0. -1.
</event>
<event>
 7    1  0.6103724E-006  0.4792156E+02  0.7818608E-02  0.1497113E+00
          2   -1    0    0  502    0  0.00000000000E+00  0.00000000000E+00  0.37257728471E+04  0.37257728471E+04  0.00000000000E+00 0. -1.
          1   -1    0    0  501    0 -0.00000000000E+00 -0.00000000000E+00 -0.12480151328E+02  0.12480151328E+02  0.00000000000E+00 0. -1.
         25    2    1    2    0    0  0.66091313455E+02  0.32970936372E+02  0.18930959459E+04  0.18986555501E+04  0.12500197354E+03 0.  0.
          2    1    1    2  501    0 -0.20510315253E+02 -0.29614681360E+02  0.25069085889E+02  0.43888055905E+02  0.00000000000E+00 0. -1.
          1    1    1    2  502    0 -0.45580998202E+02 -0.33562550123E+01  0.17951276640E+04  0.17957093924E+04  0.00000000000E+00 0. -1.
         22    1    3    3    0    0 -0.37426792217E+02  0.74528522882E+01  0.43842422745E+03  0.44008193896E+03  0.00000000000E+00 0.  1.
         22    1    3    3    0    0  0.10351810567E+03  0.25518084084E+02  0.14546717184E+04  0.14585736112E+04  0.00000000000E+00 0.  1.
</event>
<event>
 7    1  0.6103724E-006  0.1231833E+03  0.7818608E-02  0.1310915E+00
          2   -1    0    0  502    0  0.00000000000E+00  0.00000000000E+00  0.17115972678E+04  0.17115972678E+04  0.00000000000E+00 0. -1.
          1   -1    0    0  501    0 -0.00000000000E+00 -0.00000000000E+00 -0.27723514736E+03  0.27723514736E+03  0.00000000000E+00 0. -1.
         25    2    1    2    0    0  0.99268573055E+02  0.10086162707E+03  0.14002116149E+03  0.23507142973E+03  0.12500133598E+03 0.  0.
          2    1    1    2  501    0 -0.11529714832E+03 -0.41907582908E+02 -0.21266783068E+03  0.24551432570E+03  0.00000000000E+00 0. -1.
          1    1    1    2  502    0  0.16028575262E+02 -0.58954044166E+02  0.15070087896E+04  0.15082466597E+04  0.00000000000E+00 0. -1.
         22    1    3    3    0    0  0.42674073504E+02 -0.24935303186E+02  0.50296293107E+02  0.70516402310E+02  0.00000000000E+00 0. -1.
         22    1    3    3    0    0  0.56594499550E+02  0.12579693026E+03  0.89724868378E+02  0.16455502742E+03  0.00000000000E+00 0. -1.
</event>
<event>
 7    1  0.6103724E-006  0.8735520E+02  0.7818608E-02  0.1456750E+00
          2   -1    0    0  502    0  0.00000000000E+00  0.00000000000E+00  0.11774390896E+04  0.11774390896E+04  0.00000000000E+00 0. -1.
          1   -1    0    0  501    0 -0.00000000000E+00 -0.00000000000E+00 -0.28964078926E+03  0.28964078926E+03  0.00000000000E+00 0. -1.
         25    2    1    2    0    0 -0.79532844299E+01  0.90800402214E+02  0.37425118697E+03  0.40496540026E+03  0.12500022674E+03 0.  0.
          2    1    1    2  501    0 -0.17825884894E+02 -0.85517414188E+02 -0.26710097483E+03  0.28102299026E+03  0.00000000000E+00 0. -1.
          1    1    1    2  502    0  0.25779169324E+02 -0.52829880261E+01  0.78064808821E+03  0.78109148834E+03  0.00000000000E+00 0. -1.
         22    1    3    3    0    0 -0.11020279582E+01  0.58233206182E+02  0.36609674474E+03  0.37070088654E+03  0.00000000000E+00 0.  1.
         22    1    3    3    0    0 -0.68512564717E+01  0.32567196032E+02  0.81544422244E+01  0.34264513723E+02  0.00000000000E+00 0.  1.
</event>
<event>
 7    1  0.6103724E-006  0.7394604E+02  0.7818608E-02  0.1453818E+00
          2   -1    0    0  502    0  0.00000000000E+00  0.00000000000E+00  0.45533151575E+03  0.45533151575E+03  0.00000000000E+00 0. -1.
          1   -1    0    0  501    0 -0.00000000000E+00 -0.00000000000E+00 -0.20127479295E+03  0.20127479295E+03  0.00000000000E+00 0. -1.
         25    2    1    2    0    0  0.68982672905E+02 -0.14500952268E+02 -0.37588883522E+02  0.14834172376E+03  0.12499382411E+03 0.  0.
          2    1    1    2  501    0 -0.74180847507E+02 -0.16831250405E+02 -0.94220652617E+02  0.12109343709E+03  0.00000000000E+00 0. -1.
          1    1    1    2  502    0  0.51981746017E+01  0.31332202673E+02  0.38586625894E+03  0.38717114785E+03  0.00000000000E+00 0. -1.
         22    1    3    3    0    0 -0.47203000953E+01  0.39954538612E+02 -0.39916311530E+02  0.56674141500E+02  0.00000000000E+00 0.  1.
         22    1    3    3    0    0  0.73702973000E+02 -0.54455490879E+02  0.23274280075E+01  0.91667582258E+02  0.00000000000E+00 0.  1.
</event>
<event>
 7    1  0.6103724E-006  0.4322163E+02  0.7818608E-02  0.1552263E+00
          2   -1    0    0  502    0  0.00000000000E+00  0.00000000000E+00  0.66664847414E+03  0.66664847414E+03  0.00000000000E+00 0. -1.
          1   -1    0    0  501    0 -0.00000000000E+00 -0.00000000000E+00 -0.75438060484E+03  0.75438060484E+03  0.00000000000E+00 0. -1.
         25    2    1    2    0    0 -0.36978703347E+02 -0.30785119583E+02  0.22808800140E+03  0.26450798544E+03  0.12500075956E+03 0.  0.
          2    1    1    2  501    0  0.25380967937E+02 -0.11054276971E+02 -0.73478814383E+03  0.73530946334E+03  0.00000000000E+00 0. -1.
          1    1    1    2  502    0  0.11597735410E+02  0.41839396554E+02  0.41896801173E+03  0.42121163021E+03  0.00000000000E+00 0. -1.
         22    1    3    3    0    0 -0.29697971987E+02 -0.44658741345E+02  0.22232942298E+02  0.58057527005E+02  0.00000000000E+00 0. -1.
         22    1    3    3    0    0 -0.72807313605E+01  0.13873621762E+02  0.20585505910E+03  0.20645045843E+03  0.00000000000E+00 0. -1.
</event>
<event>
 7    1  0.6103724E-006  0.5536367E+02  0.7818608E-02  0.1435875E+00
          2   -1    0    0  502    0  0.00000000000E+00  0.00000000000E+00  0.39862334287E+03  0.39862334287E+03  0.00000000000E+00 0. -1.
          1   -1    0    0  501    0 -0.00000000000E+00 -0.00000000000E+00 -0.64077029549E+03  0.64077029549E+03  0.00000000000E+00 0. -1.
         25    2    1    2    0    0 -0.51720287443E+02  0.57915240666E+02 -0.12361488246E+03  0.19218499183E+03  0.12500107474E+03 0.  0.
          2    1    1    2  501    0 -0.27380725581E+01 -0.48385773572E+02 -0.47954467064E+03  0.48198731443E+03  0.00000000000E+00 0. -1.
          1    1    1    2  502    0  0.54458360001E+02 -0.95294670940E+01  0.36101260048E+03  0.36522133210E+03  0.00000000000E+00 0. -1.
         22    1    3    3    0    0 -0.66842665927E+02  0.80483097998E+02 -0.12729476326E+03  0.16477083421E+03  0.00000000000E+00 0.  1.
         22    1    3    3    0    0  0.15122378484E+02 -0.22567857332E+02  0.36798808062E+01  0.27414157626E+02  0.00000000000E+00 0.  1.
</event>
<event>
 7    1  0.6103724E-006  0.1338829E+03  0.7818608E-02  0.1232250E+00
          2   -1    0    0  502    0  0.00000000000E+00  0.00000000000E+00  0.10366796601E+04  0.10366796601E+04  0.00000000000E+00 0. -1.
          1   -1    0    0  501    0 -0.00000000000E+00 -0.00000000000E+00 -0.20004011439E+04  0.20004011439E+04  0.00000000000E+00 0. -1.
         25    2    1    2    0    0 -0.22791991236E+03 -0.99265528480E+02 -0.14956224150E+03  0.31590754744E+03  0.12501033097E+03 0.  0.
          2    1    1    2  501    0  0.11228533760E+03  0.66700406638E+02 -0.17614552053E+04  0.17662902881E+04  0.00000000000E+00 0. -1.
          1    1    1    2  502    0  0.11563457476E+03  0.32565121841E+02  0.94729596298E+03  0.95488296849E+03  0.00000000000E+00 0. -1.
         22    1    3    3    0    0 -0.23338236662E+03 -0.63315028178E+02 -0.13251347368E+03  0.27574615600E+03  0.00000000000E+00 0. -1.
         22    1    3    3    0    0  0.54624542524E+01 -0.35950500301E+02 -0.17048767822E+02  0.40161391442E+02  0.00000000000E+00 0. -1.
</event>
<event>
 7    1  0.6103724E-006  0.6334264E+02  0.7818608E-02  0.1519103E+00
          2   -1    0    0  502    0  0.00000000000E+00  0.00000000000E+00  0.12645086210E+04  0.12645086210E+04  0.00000000000E+00 0. -1.
          1   -1    0    0  501    0 -0.00000000000E+00 -0.00000000000E+00 -0.25362221114E+02  0.25362221114E+02  0.00000000000E+00 0. -1.
         25    2    1    2    0    0  0.46893671609E+02  0.56220236813E+01  0.32328192394E+03  0.34980947516E+03  0.12499937192E+03 0.  0.
          2    1    1    2  501    0 -0.68054652145E+02  0.45305934549E+01  0.85530483418E+02  0.10939572912E+03  0.00000000000E+00 0. -1.
          1    1    1    2  502    0  0.21160980536E+02 -0.10152617136E+02  0.83033399257E+03  0.83066563788E+03  0.00000000000E+00 0. -1.
         22    1    3    3    0    0 -0.16124730410E+02  0.36765802073E+02  0.22742148007E+03  0.23093778541E+03  0.00000000000E+00 0. -1.
         22    1    3    3    0    0  0.63018402019E+02 -0.31143778392E+02  0.95860443871E+02  0.11887168975E+03  0.00000000000E+00 0. -1.
</event>
<event>
 7    1  0.6103724E-006  0.7888605E+02  0.7818608E-02  0.1435768E+00
          2   -1    0    0  502    0  0.00000000000E+00  0.00000000000E+00  0.34193876169E+03  0.34193876169E+03  0.00000000000E+00 0. -1.
          1   -1    0    0  501    0 -0.00000000000E+00 -0.00000000000E+00 -0.10258330763E+04  0.10258330763E+04  0.00000000000E+00 0. -1.
         25    2    1    2    0    0 -0.10975056465E+03  0.20895688911E+02 -0.20636624459E+01  0.16766227370E+03  0.12499825224E+03 0.  0.
          2    1    1    2  501    0  0.75733144719E+02 -0.19665946504E+02 -0.93821667885E+03  0.94147373576E+03  0.00000000000E+00 0. -1.
          1    1    1    2  502    0  0.34017419934E+02 -0.12297424067E+01  0.25638602668E+03  0.25863582854E+03  0.00000000000E+00 0. -1.
         22    1    3    3    0    0 -0.87219849931E+02  0.45846645450E+02  0.46212563703E+02  0.10883390173E+03  0.00000000000E+00 0. -1.
         22    1    3    3    0    0 -0.22530714722E+02 -0.24950956538E+02 -0.48276226149E+02  0.58828371975E+02  0.00000000000E+00 0. -1.
</event>
<event>
 7    1  0.6103724E-006  0.7632358E+02  0.7818608E-02  0.1361678E+00
          2   -1    0    0  502    0  0.00000000000E+00  0.00000000000E+00  0.16570055395E+03  0.16570055395E+03  0.00000000000E+00 0. -1.
          1   -1    0    0  501    0 -0.00000000000E+00 -0.00000000000E+00 -0.87176345028E+03  0.87176345028E+03  0.00000000000E+00 0. -1.
         25    2    1    2    0    0 -0.12107216637E+03  0.13695021492E+02 -0.17002563336E+03  0.24367983891E+03  0.12500049923E+03 0.  0.
          2    1    1    2  501    0  0.57876060715E+02  0.25765808704E+02 -0.65247865991E+03  0.65554703641E+03  0.00000000000E+00 0. -1.
          1    1    1    2  502    0  0.63196105651E+02 -0.39460830196E+02  0.11644139694E+03  0.13823712891E+03  0.00000000000E+00 0. -1.
         22    1    3    3    0    0 -0.37693285403E+01 -0.27948693892E+01  0.19568179701E+02  0.20122941867E+02  0.00000000000E+00 0. -1.
         22    1    3    3    0    0 -0.11730283783E+03  0.16489890881E+02 -0.18959381306E+03  0.22355689704E+03  0.00000000000E+00 0. -1.
</event>
<event>
 7    1  0.6103724E-006  0.8199404E+02  0.7818608E-02  0.1359762E+00
          2   -1    0    0  502    0  0.00000000000E+00  0.00000000000E+00  0.36095250973E+03  0.36095250973E+03  0.00000000000E+00 0. -1.
          1   -1    0    0  501    0 -0.00000000000E+00 -0.00000000000E+00 -0.18209560495E+04  0.18209560495E+04  0.00000000000E+00 0. -1.
         25    2    1    2    0    0 -0.27636082573E+02  0.81827391600E+02 -0.57480699414E+03  0.59454740908E+03  0.12499626416E+03 0.  0.
          2    1    1    2  501    0  0.72678298064E+02 -0.42299517114E+02 -0.12322781442E+04  0.12351440437E+04  0.00000000000E+00 0. -1.
          1    1    1    2  502    0 -0.45042215491E+02 -0.39527874486E+02  0.34708159853E+03  0.35221710645E+03  0.00000000000E+00 0. -1.
         22    1    3    3    0    0 -0.80774110937E+01  0.68563579729E+02 -0.11498432723E+03  0.13411787556E+03  0.00000000000E+00 0. -1.
         22    1    3    3    0    0 -0.19558671479E+02  0.13263811871E+02 -0.45982266691E+03  0.46042953353E+03  0.00000000000E+00 0. -1.
</event>
<event>
 7    1  0.6103724E-006  0.1315999E+03  0.7818608E-02  0.1309464E+00
          2   -1    0    0  502    0  0.00000000000E+00  0.00000000000E+00  0.26017445884E+04  0.26017445884E+04  0.00000000000E+00 0. -1.
          1   -1    0    0  501    0 -0.00000000000E+00 -0.00000000000E+00 -0.49216100772E+03  0.49216100772E+03  0.00000000000E+00 0. -1.
         25    2    1    2    0    0  0.15679586827E+03  0.18355933237E+02  0.12042449013E+04  0.12209641844E+04  0.12500349002E+03 0.  0.
          2    1    1    2  501    0 -0.11683064262E+03 -0.60312851790E+02 -0.47424902592E+03  0.49213735657E+03  0.00000000000E+00 0. -1.
          1    1    1    2  502    0 -0.39965225646E+02  0.41956918553E+02  0.13795877053E+04  0.13808040552E+04  0.00000000000E+00 0. -1.
         22    1    3    3    0    0 -0.12275759325E+02  0.15244049784E+02  0.40317627669E+02  0.44817255847E+02  0.00000000000E+00 0.  1.
         22    1    3    3    0    0  0.16907162759E+03  0.31118834526E+01  0.11639272737E+04  0.11761469285E+04  0.00000000000E+00 0.  1.
</event>
<event>
 7    1  0.6103724E-006  0.5708025E+02  0.7818608E-02  0.1431681E+00
          2   -1    0    0  502    0  0.00000000000E+00  0.00000000000E+00  0.96317599511E+03  0.96317599511E+03  0.00000000000E+00 0. -1.
          1   -1    0    0  501    0 -0.00000000000E+00 -0.00000000000E+00 -0.26580856595E+03  0.26580856595E+03  0.00000000000E+00 0. -1.
         25    2    1    2    0    0  0.67557927114E+02  0.17254139922E+02  0.13163741769E+03  0.19446103197E+03  0.12499961743E+03 0.  0.
          2    1    1    2  501    0 -0.37107523302E+02  0.31254002073E+02 -0.23084707059E+03  0.23589012471E+03  0.00000000000E+00 0. -1.
          1    1    1    2  502    0 -0.30450403812E+02 -0.48508141995E+02  0.79657708206E+03  0.79863340438E+03  0.00000000000E+00 0. -1.
         22    1    3    3    0    0  0.86709052124E+02  0.31278936928E+02  0.14140196230E+03  0.16879379893E+03  0.00000000000E+00 0. -1.
         22    1    3    3    0    0 -0.19151125010E+02 -0.14024797006E+02 -0.97645446125E+01  0.25667233036E+02  0.00000000000E+00 0. -1.
</event>
<event>
 7    1  0.6103724E-006  0.1805619E+03  0.7818608E-02  0.1304246E+00
          2   -1    0    0  502    0  0.00000000000E+00  0.00000000000E+00  0.56153413618E+03  0.56153413618E+03  0.00000000000E+00 0. -1.
          1   -1    0    0  501    0 -0.00000000000E+00 -0.00000000000E+00 -0.20766423893E+04  0.20766423893E+04  0.00000000000E+00 0. -1.
         25    2    1    2    0    0  0.19311224215E+03  0.20574847692E+02 -0.11808570984E+03  0.25939348012E+03  0.12500032093E+03 0.  0.
          2    1    1    2  501    0 -0.23091660313E+02  0.37794079157E+02 -0.18711748226E+04  0.18716989165E+04  0.00000000000E+00 0. -1.
          1    1    1    2  502    0 -0.17002058184E+03 -0.58368926850E+02  0.47415227928E+03  0.50708412893E+03  0.00000000000E+00 0. -1.
         22    1    3    3    0    0  0.98447741445E+02 -0.38075034170E+02 -0.13129723922E+02  0.10636754991E+03  0.00000000000E+00 0.  1.
         22    1    3    3    0    0  0.94664500705E+02  0.58649881862E+02 -0.10495598592E+03  0.15302593021E+03  0.00000000000E+00 0.  1.
</event>
<event>
 7    1  0.6103724E-006  0.1202946E+03  0.7818608E-02  0.1342074E+00
          2   -1    0    0  502    0  0.00000000000E+00  0.00000000000E+00  0.10519012646E+04  0.10519012646E+04  0.00000000000E+00 0. -1.
          1   -1    0    0  501    0 -0.00000000000E+00 -0.00000000000E+00 -0.60556123385E+03  0.60556123385E+03  0.00000000000E+00 0. -1.
         25    2    1    2    0    0  0.49526014937E+02 -0.10620754802E+03  0.30324216095E+03  0.34830363647E+03  0.12500698216E+03 0.  0.
          2    1    1    2  501    0 -0.89560197955E+02  0.80661346151E+02 -0.57600968044E+03  0.58848486283E+03  0.00000000000E+00 0. -1.
          1    1    1    2  502    0  0.40034183019E+02  0.25546201869E+02  0.71910755025E+03  0.72067399916E+03  0.00000000000E+00 0. -1.
         22    1    3    3    0    0  0.16179374923E+02 -0.12119406612E+03  0.27850248787E+03  0.30416017094E+03  0.00000000000E+00 0. -1.
         22    1    3    3    0    0  0.33346640014E+02  0.14986518102E+02  0.24739673081E+02  0.44143465532E+02  0.00000000000E+00 0. -1.
</event>
<event>
 7    1  0.6103724E-006  0.1001537E+03  0.7818608E-02  0.1434988E+00
          2   -1    0    0  502    0  0.00000000000E+00  0.00000000000E+00  0.14870932237E+04  0.14870932237E+04  0.00000000000E+00 0. -1.
          1   -1    0    0  501    0 -0.00000000000E+00 -0.00000000000E+00 -0.10252307846E+03  0.10252307846E+03  0.00000000000E+00 0. -1.
         25    2    1    2    0    0  0.56658860208E+02 -0.68953264673E+02  0.48205949544E+03  0.50593431280E+03  0.12499357015E+03 0.  0.
          2    1    1    2  501    0 -0.81784559826E+02  0.59153465007E+02 -0.62222005612E+02  0.11857244465E+03  0.00000000000E+00 0. -1.
          1    1    1    2  502    0  0.25125699617E+02  0.97997996655E+01  0.96473265543E+03  0.96510954472E+03  0.00000000000E+00 0. -1.
         22    1    3    3    0    0  0.61986657119E+02  0.19456963107E+02  0.21006422488E+03  0.21988155368E+03  0.00000000000E+00 0. -1.
         22    1    3    3    0    0 -0.53277969106E+01 -0.88410227779E+02  0.27199527056E+03  0.28605275913E+03  0.00000000000E+00 0. -1.
</event>
<event>
 7    1  0.6103724E-006  0.1925269E+03  0.7818608E-02  0.1205049E+00
          2   -1    0    0  502    0  0.00000000000E+00  0.00000000000E+00  0.46172208965E+03  0.46172208965E+03  0.00000000000E+00 0. -1.
          1   -1    0    0  501    0 -0.00000000000E+00 -0.00000000000E+00 -0.40394855928E+03  0.40394855928E+03  0.00000000000E+00 0. -1.
         25    2    1    2    0    0  0.55567793837E+02 -0.12363343056E+03 -0.74814087297E+02  0.19898614089E+03  0.12500132696E+03 0.  0.
          2    1    1    2  501    0 -0.10691470090E+03  0.22229954903E+03 -0.19900154692E+03  0.31693762548E+03  0.00000000000E+00 0. -1.
          1    1    1    2  502    0  0.51346907065E+02 -0.98666118468E+02  0.33158916458E+03  0.34974688257E+03  0.00000000000E+00 0. -1.
         22    1    3    3    0    0  0.52452658998E+02  0.35361666317E+01 -0.24339462442E+01  0.52628034400E+02  0.00000000000E+00 0. -1.
         22    1    3    3    0    0  0.31151348387E+01 -0.12716959719E+03 -0.72380141053E+02  0.14635810649E+03  0.00000000000E+00 0. -1.
</event>
<event>
 7    1  0.6103724E-006  0.6432727E+02  0.7818608E-02  0.1441338E+00
          2   -1    0    0  502    0  0.00000000000E+00  0.00000000000E+00  0.12846846134E+04  0.12846846134E+04  0.00000000000E+00 0. -1.
          1   -1    0    0  501    0 -0.00000000000E+00 -0.00000000000E+00 -0.75411427386E+03  0.75411427386E+03  0.00000000000E+00 0. -1.
         25    2    1    2    0    0 -0.48376790680E+01 -0.10352923774E+03  0.12981724442E+03  0.20789182584E+03  0.12499915239E+03 0.  0.
          2    1    1    2  501    0 -0.14032999858E+01  0.63980381207E+02 -0.71328481316E+03  0.71614990269E+03  0.00000000000E+00 0. -1.
          1    1    1    2  502    0  0.62409790539E+01  0.39548856534E+02  0.11140379083E+04  0.11147571588E+04  0.00000000000E+00 0. -1.
         22    1    3    3    0    0 -0.46702485641E+01  0.50825877717E+01 -0.20960644800E+02  0.22067907706E+02  0.00000000000E+00 0.  1.
         22    1    3    3    0    0 -0.16743050398E+00 -0.10861182551E+03  0.15077788922E+03  0.18582391814E+03  0.00000000000E+00 0.  1.
</event>
<event>
 7    1  0.6103724E-006  0.5068236E+02  0.7818608E-02  0.1516511E+00
          2   -1    0    0  502    0  0.00000000000E+00  0.00000000000E+00  0.67195766281E+03  0.67195766281E+03  0.00000000000E+00 0. -1.
          1   -1    0    0  501    0 -0.00000000000E+00 -0.00000000000E+00 -0.10648435985E+03  0.10648435985E+03  0.00000000000E+00 0. -1.
         25    2    1    2    0    0 -0.42201626825E+02 -0.58455036195E+02  0.28070431761E+03  0.31562418572E+03  0.12500297647E+03 0.  0.
          2    1    1    2  501    0  0.27445183503E+02  0.11732507331E+02 -0.84859654381E+02  0.89955826756E+02  0.00000000000E+00 0. -1.
          1    1    1    2  502    0  0.14756443321E+02  0.46722528864E+02  0.36962863973E+03  0.37286201017E+03  0.00000000000E+00 0. -1.
         22    1    3    3    0    0 -0.69822038104E+02 -0.81999194663E+02  0.20063542116E+03  0.22771376145E+03  0.00000000000E+00 0.  1.
         22    1    3    3    0    0  0.27620411279E+02  0.23544158468E+02  0.80068896452E+02  0.87910424275E+02  0.00000000000E+00 0.  1.
</event>
<event>
 7    1  0.6103724E-006  0.7179376E+02  0.7818608E-02  0.1378887E+00
          2   -1    0    0  502    0  0.00000000000E+00  0.00000000000E+00  0.38377826093E+03  0.38377826093E+03  0.00000000000E+00 0. -1.
          1   -1    0    0  501    0 -0.00000000000E+00 -0.00000000000E+00 -0.52053393709E+03  0.52053393709E+03  0.00000000000E+00 0. -1.
         25    2    1    2    0    0 -0.16740903856E+02 -0.81449188429E+02 -0.20765888994E+03  0.25624422107E+03  0.12499863240E+03 0.  0.
          2    1    1    2  501    0 -0.38458600966E+02  0.62350285269E+02 -0.28149018708E+03  0.29086654583E+03  0.00000000000E+00 0. -1.
          1    1    1    2  502    0  0.55199504822E+02  0.19098903161E+02  0.35239340085E+03  0.35720143113E+03  0.00000000000E+00 0. -1.
         22    1    3    3    0    0 -0.19189056510E+02  0.17960301725E+02 -0.12260839261E+03  0.12539382069E+03  0.00000000000E+00 0. -1.
         22    1    3    3    0    0  0.24481526541E+01 -0.99409490154E+02 -0.85050497328E+02  0.13085040038E+03  0.00000000000E+00 0. -1.
</event>
<event>
 7    1  0.6103724E-006  0.5532740E+02  0.7818608E-02  0.1426865E+00
          2   -1    0    0  502    0  0.00000000000E+00  0.00000000000E+00  0.97211912499E+02  0.97211912499E+02  0.00000000000E+00 0. -1.
          1   -1    0    0  501    0 -0.00000000000E+00 -0.00000000000E+00 -0.16802906062E+04  0.16802906062E+04  0.00000000000E+00 0. -1.
         25    2    1    2    0    0 -0.64933102178E+01 -0.81746287144E+02 -0.82012877533E+02  0.17051642543E+03  0.12500048288E+03 0.  0.
          2    1    1    2  501    0 -0.30923449273E+02  0.45757004737E+02 -0.15406882581E+04  0.15416777458E+04  0.00000000000E+00 0. -1.
          1    1    1    2  502    0  0.37416759491E+02  0.35989282407E+02  0.39622441970E+02  0.65308347450E+02  0.00000000000E+00 0. -1.
         22    1    3    3    0    0 -0.13575396371E+02  0.33749441967E+01  0.27962983994E+02  0.31266757248E+02  0.00000000000E+00 0.  1.
         22    1    3    3    0    0  0.70820861537E+01 -0.85121231341E+02 -0.10997586153E+03  0.13924966818E+03  0.00000000000E+00 0.  1.
</event>
<event>
 7    1  0.6103724E-006  0.5809421E+02  0.7818608E-02  0.1415153E+00
          2   -1    0    0  502    0  0.00000000000E+00  0.00000000000E+00  0.16906293020E+04  0.16906293020E+04  0.00000000000E+00 0. -1.
          1   -1    0    0  501    0 -0.00000000000E+00 -0.00000000000E+00 -0.24778177235E+02  0.24778177235E+02  0.00000000000E+00 0. -1.
         25    2    1    2    0    0 -0.13278078287E+02 -0.17641116565E+00  0.37992710474E+03  0.40018186606E+03  0.12499833008E+03 0.  0.
          2    1    1    2  501    0  0.67347325361E+02  0.18845089440E+01  0.66711963130E+02  0.94814026557E+02  0.00000000000E+00 0. -1.
          1    1    1    2  502    0 -0.54069247074E+02 -0.17080977784E+01  0.12192120569E+04  0.12204115867E+04  0.00000000000E+00 0. -1.
         22    1    3    3    0    0  0.38768636558E+02 -0.35182526831E+02  0.95378018091E+02  0.10880157954E+03  0.00000000000E+00 0.  1.
         22    1    3    3    0    0 -0.52046714845E+02  0.35006115665E+02  0.28454908665E+03  0.29138028652E+03  0.00000000000E+00 0.  1.
</event>
<event>
 7    1  0.6103724E-006  0.6077780E+02  0.7818608E-02  0.1493562E+00
          2   -1    0    0  502    0  0.00000000000E+00  0.00000000000E+00  0.26470165664E+04  0.26470165664E+04  0.00000000000E+00 0. -1.
          1   -1    0    0  501    0 -0.00000000000E+00 -0.00000000000E+00 -0.13733338425E+02  0.13733338425E+02  0.00000000000E+00 0. -1.
         25    2    1    2    0    0 -0.52292132071E+02 -0.45776711386E+02  0.17519841471E+04  0.17578119286E+04  0.12499740047E+03 0.  0.
          2    1    1    2  501    0  0.24798482363E+02  0.55341316899E+02  0.76539293176E+02  0.97651879057E+02  0.00000000000E+00 0. -1.
          1    1    1    2  502    0  0.27493649708E+02 -0.95646055127E+01  0.80475978776E+03  0.80528609726E+03  0.00000000000E+00 0. -1.
         22    1    3    3    0    0 -0.53082147477E+02 -0.86930469583E+02  0.12442319475E+04  0.12483940724E+04  0.00000000000E+00 0.  1.
         22    1    3    3    0    0  0.79001540572E+00  0.41153758197E+02  0.50775219964E+03  0.50941785616E+03  0.00000000000E+00 0.  1.
</event>
<event>
 7    1  0.6103724E-006  0.7045485E+02  0.7818608E-02  0.1476737E+00
          2   -1    0    0  502    0  0.00000000000E+00  0.00000000000E+00  0.12852096040E+04  0.12852096040E+04  0.00000000000E+00 0. -1.
          1   -1    0    0  501    0 -0.00000000000E+00 -0.00000000000E+00 -0.31241008951E+03  0.31241008951E+03  0.00000000000E+00 0. -1.
         25    2    1    2    0    0 -0.26852324092E+02 -0.94379236929E+02  0.31990701880E+03  0.35721281442E+03  0.12502802261E+03 0.  0.
          2    1    1    2  501    0  0.22189982310E+02  0.66509847467E+02 -0.28935868775E+03  0.29773210325E+03  0.00000000000E+00 0. -1.
          1    1    1    2  502    0  0.46623417822E+01  0.27869389462E+02  0.94225118342E+03  0.94267477582E+03  0.00000000000E+00 0. -1.
         22    1    3    3    0    0 -0.33982659174E+02 -0.10750635675E+03  0.15521161931E+03  0.19184130065E+03  0.00000000000E+00 0.  1.
         22    1    3    3    0    0  0.71303350823E+01  0.13127119824E+02  0.16469539949E+03  0.16537151377E+03  0.00000000000E+00 0.  1.
</event>
<event>
 7    1  0.6103724E-006  0.1299352E+03  0.7818608E-02  0.1257543E+00
          2   -1    0    0  502    0  0.00000000000E+00  0.00000000000E+00  0.88730959013E+03  0.88730959013E+03  0.00000000000E+00 0. -1.
          1   -1    0    0  501    0 -0.00000000000E+00 -0.00000000000E+00 -0.62232766761E+03  0.62232766761E+03  0.00000000000E+00 0. -1.
         25    2    1    2    0    0 -0.15944317167E+03 -0.66994650638E+02 -0.70611044212E+01  0.21350762589E+03  0.12500095563E+03 0.  0.
          2    1    1    2  501    0  0.87186041247E+02 -0.40038133737E+02 -0.50215353469E+03  0.51123637423E+03  0.00000000000E+00 0. -1.
          1    1    1    2  502    0  0.72257130427E+02  0.10703278437E+03  0.77419656162E+03  0.78489325762E+03  0.00000000000E+00 0. -1.
         22    1    3    3    0    0 -0.13992543230E+03 -0.33854947404E+02 -0.53166869905E+02  0.15346660915E+03  0.00000000000E+00 0.  1.
         22    1    3    3    0    0 -0.19517739378E+02 -0.33139703234E+02  0.46105765483E+02  0.60041016744E+02  0.00000000000E+00 0.  1.
</event>
<event>
 7    1  0.6103724E-006  0.8956868E+02  0.7818608E-02  0.1351412E+00
          2   -1    0    0  502    0  0.00000000000E+00  0.00000000000E+00  0.29549389405E+04  0.29549389405E+04  0.00000000000E+00 0. -1.
          1   -1    0    0  501    0 -0.00000000000E+00 -0.00000000000E+00 -0.17938597649E+03  0.17938597649E+03  0.00000000000E+00 0. -1.
         25    2    1    2    0    0 -0.10650202294E+03  0.16985096169E+02  0.13571788213E+04  0.13671834870E+04  0.12500063862E+03 0.  0.
          2    1    1    2  501    0  0.66405506581E+02 -0.60094956844E+02 -0.16230016003E+03  0.18537107943E+03  0.00000000000E+00 0. -1.
          1    1    1    2  502    0  0.40096516358E+02  0.43109860675E+02  0.15806743027E+04  0.15817703506E+04  0.00000000000E+00 0. -1.
         22    1    3    3    0    0 -0.95793250295E+02 -0.35862873430E+02  0.10782262196E+04  0.10830670677E+04  0.00000000000E+00 0. -1.
         22    1    3    3    0    0 -0.10708772644E+02  0.52847969599E+02  0.27895260175E+03  0.28411641932E+03  0.00000000000E+00 0. -1.
</event>
<event>
 7    1  0.6103724E-006  0.6278193E+02  0.7818608E-02  0.1533784E+00
          2   -1    0    0  502    0  0.00000000000E+00  0.00000000000E+00  0.10412392856E+03  0.10412392856E+03  0.00000000000E+00 0. -1.
          1   -1    0    0  501    0 -0.00000000000E+00 -0.00000000000E+00 -0.18080761998E+03  0.18080761998E+03  0.00000000000E+00 0. -1.
         25    2    1    2    0    0  0.59645400849E+02 -0.13663432359E+02  0.13629935331E+02  0.13984011389E+03  0.12500087635E+03 0.  0.
          2    1    1    2  501    0 -0.44292769457E+01 -0.21022637680E+02 -0.75128106346E+02  0.78139632405E+02  0.00000000000E+00 0. -1.
          1    1    1    2  502    0 -0.55216123903E+02  0.34686070040E+02 -0.15185520410E+02  0.66951802245E+02  0.00000000000E+00 0. -1.
         22    1    3    3    0    0 -0.34815395519E+02  0.10777608841E+02  0.20874200046E+02  0.42000010060E+02  0.00000000000E+00 0. -1.
         22    1    3    3    0    0  0.94460796368E+02 -0.24441041200E+02 -0.72442647145E+01  0.97840103826E+02  0.00000000000E+00 0. -1.
</event>
<event>
 7    1  0.6103724E-006  0.6353327E+02  0.7818608E-02  0.1416724E+00
          2   -1    0    0  502    0  0.00000000000E+00  0.00000000000E+00  0.20887668171E+04  0.20887668171E+04  0.00000000000E+00 0. -1.
          1   -1    0    0  501    0 -0.00000000000E+00 -0.00000000000E+00 -0.13622958359E+03  0.13622958359E+03  0.00000000000E+00 0. -1.
         25    2    1    2    0    0  0.80995316392E+02  0.75317775741E+02  0.25158172658E+03  0.30191271406E+03  0.12499965257E+03 0.  0.
          2    1    1    2  501    0 -0.39956294584E+02 -0.28134159805E+02 -0.10512127990E+03  0.11592463031E+03  0.00000000000E+00 0. -1.
          1    1    1    2  502    0 -0.41039021808E+02 -0.47183615936E+02  0.18060767868E+04  0.18071590563E+04  0.00000000000E+00 0. -1.
         22    1    3    3    0    0  0.10026950582E+03  0.26749174330E+02  0.21307733040E+03  0.23700514943E+03  0.00000000000E+00 0. -1.
         22    1    3    3    0    0 -0.19274189430E+02  0.48568601411E+02  0.38504396178E+02  0.64907564630E+02  0.00000000000E+00 0. -1.
</event>
<event>
 7    1  0.6103724E-006  0.2190940E+03  0.7818608E-02  0.1313299E+00
          2   -1    0    0  502    0  0.00000000000E+00  0.00000000000E+00  0.40226500778E+03  0.40226500778E+03  0.00000000000E+00 0. -1.
          1   -1    0    0  501    0 -0.00000000000E+00 -0.00000000000E+00 -0.31819694270E+03  0.31819694270E+03  0.00000000000E+00 0. -1.
         25    2    1    2    0    0 -0.17639559429E+03  0.72428831145E+02 -0.18762431115E+03  0.29527777171E+03  0.12499895625E+03 0.  0.
          2    1    1    2  501    0 -0.33290701669E+02  0.46720170916E+01 -0.33168258611E+02  0.47225331556E+02  0.00000000000E+00 0. -1.
          1    1    1    2  502    0  0.20968629596E+03 -0.77100848237E+02  0.30486063484E+03  0.37795884721E+03  0.00000000000E+00 0. -1.
         22    1    3    3    0    0 -0.31349753843E+02  0.23514171998E+02 -0.12305599675E+03  0.12914527358E+03  0.00000000000E+00 0. -1.
         22    1    3    3    0    0 -0.14504584045E+03  0.48914659147E+02 -0.64568314393E+02  0.16613249813E+03  0.00000000000E+00 0. -1.
</event>
<event>
 7    1  0.6103724E-006  0.6744009E+02  0.7818608E-02  0.1445921E+00
          2   -1    0    0  502    0  0.00000000000E+00  0.00000000000E+00  0.15786900336E+04  0.15786900336E+04  0.00000000000E+00 0. -1.
          1   -1    0    0  501    0 -0.00000000000E+00 -0.00000000000E+00 -0.99107909247E+02  0.99107909247E+02  0.00000000000E+00 0. -1.
         25    2    1    2    0    0  0.12807694089E+01  0.64563571131E+02  0.19294828725E+03  0.23878728279E+03  0.12498091767E+03 0.  0.
          2    1    1    2  501    0  0.35140872672E+02 -0.58572113452E+02 -0.60575343785E+02  0.91295923682E+02  0.00000000000E+00 0. -1.
          1    1    1    2  502    0 -0.36421642081E+02 -0.59914576797E+01  0.13472091809E+04  0.13477147364E+04  0.00000000000E+00 0. -1.
         22    1    3    3    0    0  0.18195470980E+02  0.75989883486E+02  0.46508586696E+02  0.90931766687E+02  0.00000000000E+00 0.  1.
         22    1    3    3    0    0 -0.16914701571E+02 -0.11426312354E+02  0.14643970056E+03  0.14785551610E+03  0.00000000000E+00 0.  1.
</event>
<event>
 7    1  0.6103724E-006  0.1163802E+03  0.7818608E-02  0.1396829E+00
          2   -1    0    0  502    0  0.00000000000E+00  0.00000000000E+00  0.79863995575E+03  0.79863995575E+03  0.00000000000E+00 0. -1.
          1   -1    0    0  501    0 -0.00000000000E+00 -0.00000000000E+00 -0.13019203685E+04  0.13019203685E+04  0.00000000000E+00 0. -1.
         25    2    1    2    0    0 -0.82926633782E+02 -0.77453223786E+02 -0.58314829453E+03  0.60709336081E+03  0.12499834744E+03 0.  0.
          2    1    1    2  501    0 -0.20325183244E+02  0.23645847707E+02 -0.70214354623E+03  0.70283554172E+03  0.00000000000E+00 0. -1.
          1    1    1    2  502    0  0.10325181703E+03  0.53807376080E+02  0.78201142802E+03  0.79063142171E+03  0.00000000000E+00 0. -1.
         22    1    3    3    0    0  0.22956964130E+02 -0.36408101283E+02 -0.28160702711E+03  0.28487732405E+03  0.00000000000E+00 0.  1.
         22    1    3    3    0    0 -0.10588359791E+03 -0.41045122503E+02 -0.30154126742E+03  0.32221603676E+03  0.00000000000E+00 0.  1.
</event>
<event>
 7    1  0.6103724E-006  0.5705883E+02  0.7818608E-02  0.1431636E+00
          2   -1    0    0  502    0  0.00000000000E+00  0.00000000000E+00  0.10814446990E+04  0.10814446990E+04  0.00000000000E+00 0. -1.
          1   -1    0    0  501    0 -0.00000000000E+00 -0.00000000000E+00 -0.25897359755E+03  0.25897359755E+03  0.00000000000E+00 0. -1.
         25    2    1    2    0    0 -0.99672417878E+01 -0.71488502522E+01  0.92662745895E+02  0.15608221853E+03  0.12499928998E+03 0.  0.
          2    1    1    2  501    0  0.21956926251E+02  0.54195443889E+02 -0.22287412700E+03  0.23041729370E+03  0.00000000000E+00 0. -1.
          1    1    1    2  502    0 -0.11989684463E+02 -0.47046593637E+02  0.95268248258E+03  0.95391878434E+03  0.00000000000E+00 0. -1.
         22    1    3    3    0    0 -0.30138967880E+02 -0.61028749390E+02  0.50698118918E+02  0.84871461039E+02  0.00000000000E+00 0.  1.
         22    1    3    3    0    0  0.20171726092E+02  0.53879899138E+02  0.41964626977E+02  0.71210757488E+02  0.00000000000E+00 0.  1.
</event>
<event>
 7    1  0.6103724E-006  0.6772072E+02  0.7818608E-02  0.1368947E+00
          2   -1    0    0  502    0  0.00000000000E+00  0.00000000000E+00  0.16290922776E+04  0.16290922776E+04  0.00000000000E+00 0. -1.
          1   -1    0    0  501    0 -0.00000000000E+00 -0.00000000000E+00 -0.95624817162E+03  0.95624817162E+03  0.00000000000E+00 0. -1.
         25    2    1    2    0    0 -0.18896062264E+02 -0.88364923317E+02  0.51124528859E+02  0.16249229273E+03  0.12499842760E+03 0.  0.
          2    1    1    2  501    0 -0.39498030865E+02  0.55105028394E+02 -0.89854490107E+03  0.90109910544E+03  0.00000000000E+00 0. -1.
          1    1    1    2  502    0  0.58394093129E+02  0.33259894923E+02  0.15202644782E+04  0.15217490510E+04  0.00000000000E+00 0. -1.
         22    1    3    3    0    0 -0.47027706319E+02 -0.75266994744E+02 -0.14474831185E+02  0.89923558633E+02  0.00000000000E+00 0. -1.
         22    1    3    3    0    0  0.28131644054E+02 -0.13097928573E+02  0.65599360044E+02  0.72568734096E+02  0.00000000000E+00 0. -1.
</event>
<event>
 7    1  0.6103724E-006  0.1321445E+03  0.7818608E-02  0.1324114E+00
          2   -1    0    0  502    0  0.00000000000E+00  0.00000000000E+00  0.73335035126E+03  0.73335035126E+03  0.00000000000E+00 0. -1.
          1   -1    0    0  501    0 -0.00000000000E+00 -0.00000000000E+00 -0.13845217911E+03  0.13845217911E+03  0.00000000000E+00 0. -1.
         25    2    1    2    0    0 -0.11700324557E+03 -0.76059027560E+02  0.27983362511E+02  0.18943088739E+03  0.12500502939E+03 0.  0.
          2    1    1    2  501    0  0.12806174170E+03  0.26689180179E+02  0.19070414385E+02  0.13219607684E+03  0.00000000000E+00 0. -1.
          1    1    1    2  502    0 -0.11058496130E+02  0.49369847381E+02  0.54784439525E+03  0.55017556614E+03  0.00000000000E+00 0. -1.
         22    1    3    3    0    0 -0.62531621137E+02 -0.98457527578E+02 -0.13465151397E+02  0.11741123746E+03  0.00000000000E+00 0.  1.
         22    1    3    3    0    0 -0.54471624435E+02  0.22398500017E+02  0.41448513908E+02  0.72019649935E+02  0.00000000000E+00 0.  1.
</event>
<event>
 7    1  0.6103724E-006  0.9822605E+02  0.7818608E-02  0.1408602E+00
          2   -1    0    0  502    0  0.00000000000E+00  0.00000000000E+00  0.77873251980E+02  0.77873251980E+02  0.00000000000E+00 0. -1.
          1   -1    0    0  501    0 -0.00000000000E+00 -0.00000000000E+00 -0.17493980202E+04  0.17493980202E+04  0.00000000000E+00 0. -1.
         25    2    1    2    0    0 -0.60549482309E+02 -0.10003012614E+03 -0.23409184328E+03  0.28999538589E+03  0.12500426713E+03 0.  0.
          2    1    1    2  501    0  0.27544001185E+02  0.93385011662E+02 -0.14798903345E+04  0.14830896246E+04  0.00000000000E+00 0. -1.
          1    1    1    2  502    0  0.33005481124E+02  0.66451144807E+01  0.42457409566E+02  0.54186261707E+02  0.00000000000E+00 0. -1.
         22    1    3    3    0    0 -0.78295663455E+01 -0.11248831261E+03 -0.12599913118E+03  0.16908785776E+03  0.00000000000E+00 0. -1.
         22    1    3    3    0    0 -0.52719915963E+02  0.12458186464E+02 -0.10809271210E+03  0.12090752813E+03  0.00000000000E+00 0. -1.
</event>
<event>
 7    1  0.6103724E-006  0.3593775E+02  0.7818608E-02  0.1599262E+00
          2   -1    0    0  502    0  0.00000000000E+00  0.00000000000E+00  0.18058310061E+04  0.18058310061E+04  0.00000000000E+00 0. -1.
          1   -1    0    0  501    0 -0.00000000000E+00 -0.00000000000E+00 -0.11563437983E+03  0.11563437983E+03  0.00000000000E+00 0. -1.
         25    2    1    2    0    0  0.53974895441E+02 -0.17762369142E+02  0.32958424158E+03  0.35704037837E+03  0.12499307337E+03 0.  0.
          2    1    1    2  501    0 -0.18344379767E+02  0.16788250147E+02 -0.10016868302E+03  0.10320914044E+03  0.00000000000E+00 0. -1.
          1    1    1    2  502    0 -0.35630515674E+02  0.97411899492E+00  0.14607810677E+04  0.14612158671E+04  0.00000000000E+00 0. -1.
         22    1    3    3    0    0  0.63440352059E+02 -0.51827100833E+02  0.29986555339E+03  0.31085378679E+03  0.00000000000E+00 0.  1.
         22    1    3    3    0    0 -0.94654566173E+01  0.34064731690E+02  0.29718688195E+02  0.46186591584E+02  0.00000000000E+00 0.  1.
</event>
<event>
 7    1  0.6103724E-006  0.7347748E+02  0.7818608E-02  0.1353107E+00
          2   -1    0    0  502    0  0.00000000000E+00  0.00000000000E+00  0.97229102886E+02  0.97229102886E+02  0.00000000000E+00 0. -1.
          1   -1    0    0  501    0 -0.00000000000E+00 -0.00000000000E+00 -0.41720218335E+03  0.41720218335E+03  0.00000000000E+00 0. -1.
         25    2    1    2    0    0 -0.45714541977E+02 -0.13727612281E+02 -0.74968175635E+02  0.15337623247E+03  0.12500309853E+03 0.  0.
          2    1    1    2  501    0 -0.14278800244E+02  0.72076731332E+02 -0.26501058821E+03  0.27500827479E+03  0.00000000000E+00 0. -1.
          1    1    1    2  502    0  0.59993342221E+02 -0.58349119051E+02  0.20005683382E+02  0.86046778977E+02  0.00000000000E+00 0. -1.
         22    1    3    3    0    0  0.20655646211E+02  0.19285156899E+02  0.18729240159E+02  0.33902174472E+02  0.00000000000E+00 0. -1.
         22    1    3    3    0    0 -0.66370188188E+02 -0.33012769181E+02 -0.93697415794E+02  0.11947405800E+03  0.00000000000E+00 0. -1.
</event>
<event>
 7    1  0.6103724E-006  0.8348443E+02  0.7818608E-02  0.1406674E+00
          2   -1    0    0  502    0  0.00000000000E+00  0.00000000000E+00  0.50391237451E+03  0.50391237451E+03  0.00000000000E+00 0. -1.
          1   -1    0    0  501    0 -0.00000000000E+00 -0.00000000000E+00 -0.32121009506E+03  0.32121009506E+03  0.00000000000E+00 0. -1.
         25    2    1    2    0    0 -0.36114940081E+02 -0.95163416533E+02  0.98638284227E+02  0.18898420615E+03  0.12500061727E+03 0.  0.
          2    1    1    2  501    0  0.38084471740E+02  0.12916534565E+02 -0.26982844136E+03  0.27280881881E+03  0.00000000000E+00 0. -1.
          1    1    1    2  502    0 -0.19695316595E+01  0.82246881967E+02  0.35389243659E+03  0.36332944461E+03  0.00000000000E+00 0. -1.
         22    1    3    3    0    0 -0.26995481481E+02 -0.53805974847E+02  0.12525061503E+03  0.13896602288E+03  0.00000000000E+00 0.  1.
         22    1    3    3    0    0 -0.91194585998E+01 -0.41357441685E+02 -0.26612330799E+02  0.50018183278E+02  0.00000000000E+00 0.  1.
</event>
<event>
 7    1  0.6103724E-006  0.1146611E+03  0.7818608E-02  0.1409096E+00
          2   -1    0    0  502    0  0.00000000000E+00  0.00000000000E+00  0.11704990374E+04  0.11704990374E+04  0.00000000000E+00 0. -1.
          1   -1    0    0  501    0 -0.00000000000E+00 -0.00000000000E+00 -0.34077686372E+03  0.34077686372E+03  0.00000000000E+00 0. -1.
         25    2    1    2    0    0 -0.97737038430E+02  0.27462955621E+02  0.24052051724E+03  0.28945023419E+03  0.12499830497E+03 0.  0.
          2    1    1    2  501    0 -0.19141852368E+02 -0.21425513720E+02 -0.31186734352E+03  0.31318796769E+03  0.00000000000E+00 0. -1.
          1    1    1    2  502    0  0.11687889080E+03 -0.60374419017E+01  0.90106899997E+03  0.90863769926E+03  0.00000000000E+00 0. -1.
         22    1    3    3    0    0 -0.66334428743E+02 -0.46140712350E+02  0.11352833954E+03  0.13934814549E+03  0.00000000000E+00 0. -1.
         22    1    3    3    0    0 -0.31402609687E+02  0.73603667971E+02  0.12699217770E+03  0.15010208869E+03  0.00000000000E+00 0. -1.
</event>
<event>
 7    1  0.6103724E-006  0.2316775E+03  0.7818608E-02  0.1258541E+00
          2   -1    0    0  502    0  0.00000000000E+00  0.00000000000E+00  0.16279486672E+04  0.16279486672E+04  0.00000000000E+00 0. -1.
          1   -1    0    0  501    0 -0.00000000000E+00 -0.00000000000E+00 -0.15296625076E+03  0.15296625076E+03  0.00000000000E+00 0. -1.
         25    2    1    2    0    0  0.63411017143E+02  0.24008072022E+03  0.12774526354E+04  0.13073519193E+04  0.12499638419E+03 0.  0.
          2    1    1    2  501    0 -0.29871101064E+02 -0.44119442707E+02 -0.10140689109E+03  0.11455202078E+03  0.00000000000E+00 0. -1.
          1    1    1    2  502    0 -0.33539916080E+02 -0.19596127752E+03  0.29893667215E+03  0.35901097784E+03  0.00000000000E+00 0. -1.
         22    1    3    3    0    0  0.10070163631E+03  0.18038413536E+03  0.99936415078E+03  0.10204939793E+04  0.00000000000E+00 0. -1.
         22    1    3    3    0    0 -0.37290619169E+02  0.59696584863E+02  0.27808848459E+03  0.28685794007E+03  0.00000000000E+00 0. -1.
</event>
<event>
 7    1  0.6103724E-006  0.1686383E+03  0.7818608E-02  0.1239927E+00
          2   -1    0    0  502    0  0.00000000000E+00  0.00000000000E+00  0.11832889109E+04  0.11832889109E+04  0.00000000000E+00 0. -1.
          1   -1    0    0  501    0 -0.00000000000E+00 -0.00000000000E+00 -0.13930551697E+03  0.13930551697E+03  0.00000000000E+00 0. -1.
         25    2    1    2    0    0  0.17149238325E+03 -0.28301005977E+02  0.24923724145E+03  0.32856494553E+03  0.12500054583E+03 0.  0.
          2    1    1    2  501    0 -0.16147969669E+03 -0.59305290558E+02 -0.21205084857E+02  0.17332762490E+03  0.00000000000E+00 0. -1.
          1    1    1    2  502    0 -0.10012686559E+02  0.87606296535E+02  0.81595123733E+03  0.82070185743E+03  0.00000000000E+00 0. -1.
         22    1    3    3    0    0  0.28348498899E+02  0.25413845105E+02  0.23170240234E+01  0.38142751777E+02  0.00000000000E+00 0. -1.
         22    1    3    3    0    0  0.14314388435E+03 -0.53714851082E+02  0.24692021742E+03  0.29042219375E+03  0.00000000000E+00 0. -1.
</event>
<event>
 7    1  0.7755855E-006  0.6021021E+02  0.7818608E-02  0.1431548E+00
          2   -1    0    0  502    0  0.00000000000E+00  0.00000000000E+00  0.65204037182E+03  0.65204037182E+03  0.00000000000E+00 0. -1.
          1   -1    0    0  501    0 -0.00000000000E+00 -0.00000000000E+00 -0.10219051257E+04  0.10219051257E+04  0.00000000000E+00 0. -1.
         25    2    1    2    0    0 -0.62811581082E+01  0.18645396415E+02 -0.32012859934E+03  0.34422973141E+03  0.12499873646E+03 0.  0.
          2    1    1    2  501    0 -0.43142406663E+02  0.16075708780E+02 -0.68752922241E+03  0.68906902944E+03  0.00000000000E+00 0. -1.
          1    1    1    2  502    0  0.49423564771E+02 -0.34721105195E+02  0.63779306783E+03  0.64064673672E+03  0.00000000000E+00 0. -1.
         22    1    3    3    0    0  0.26372374305E+02 -0.14873037857E+02 -0.28267583559E+03  0.28429269672E+03  0.00000000000E+00 0. -1.
         22    1    3    3    0    0 -0.32653532413E+02  0.33518434272E+02 -0.37452763757E+02  0.59937034696E+02  0.00000000000E+00 0. -1.
</event>
<event>
 7    1  0.6103724E-006  0.3386505E+03  0.7818608E-02  0.1252479E+00
          2   -1    0    0  502    0  0.00000000000E+00  0.00000000000E+00  0.80760551602E+03  0.80760551602E+03  0.00000000000E+00 0. -1.
          1   -1    0    0  501    0 -0.00000000000E+00 -0.00000000000E+00 -0.10359351694E+04  0.10359351694E+04  0.00000000000E+00 0. -1.
         25    2    1    2    0    0 -0.24495415991E+03  0.26919831372E+03 -0.64501184757E+02  0.39019827477E+03  0.12499607287E+03 0.  0.
          2    1    1    2  501    0  0.24073685056E+03 -0.23072423833E+03 -0.77356844716E+03  0.84237524169E+03  0.00000000000E+00 0. -1.
          1    1    1    2  502    0  0.42173093520E+01 -0.38474075391E+02  0.60973997851E+03  0.61096716898E+03  0.00000000000E+00 0. -1.
         22    1    3    3    0    0 -0.23373152440E+03  0.25800446855E+03 -0.26637700484E+02  0.34915082468E+03  0.00000000000E+00 0.  1.
         22    1    3    3    0    0 -0.11222635512E+02  0.11193845170E+02 -0.37863484273E+02  0.41047450089E+02  0.00000000000E+00 0.  1.
</event>
<event>
 7    1  0.6103724E-006  0.5370862E+02  0.7818608E-02  0.1447776E+00
          2   -1    0    0  502    0  0.00000000000E+00  0.00000000000E+00  0.30341903967E+03  0.30341903967E+03  0.00000000000E+00 0. -1.
          1   -1    0    0  501    0 -0.00000000000E+00 -0.00000000000E+00 -0.21395614066E+03  0.21395614066E+03  0.00000000000E+00 0. -1.
         25    2    1    2    0    0 -0.84053214680E+01 -0.83231769311E+02  0.11064199517E+03  0.18672130646E+03  0.12500007336E+03 0.  0.
          2    1    1    2  501    0 -0.20490157663E+02  0.40867154952E+02 -0.16853739102E+03  0.17462766988E+03  0.00000000000E+00 0. -1.
          1    1    1    2  502    0  0.28895479131E+02  0.42364614359E+02  0.14735829488E+03  0.15602620399E+03  0.00000000000E+00 0. -1.
         22    1    3    3    0    0 -0.35919016642E+02 -0.10029315336E+03  0.49354314024E+02  0.11740843531E+03  0.00000000000E+00 0. -1.
         22    1    3    3    0    0  0.27513695174E+02  0.17061384052E+02  0.61287681141E+02  0.69312871154E+02  0.00000000000E+00 0. -1.
</event>
<event>
 7    1  0.6103724E-006  0.1987419E+03  0.7818608E-02  0.1378516E+00
          2   -1    0    0  502    0  0.00000000000E+00  0.00000000000E+00  0.15594289258E+04  0.15594289258E+04  0.00000000000E+00 0. -1.
          1   -1    0    0  501    0 -0.00000000000E+00 -0.00000000000E+00 -0.73788290894E+02  0.73788290894E+02  0.00000000000E+00 0. -1.
         25    2    1    2    0    0 -0.56047204127E+02  0.17744697791E+03  0.80909294938E+03  0.83957553233E+03  0.12500781848E+03 0.  0.
          2    1    1    2  501    0  0.46142418835E+02 -0.19615044735E+03  0.11562818055E+03  0.23232304438E+03  0.00000000000E+00 0. -1.
          1    1    1    2  502    0  0.99047852919E+01  0.18703469438E+02  0.56091950502E+03  0.56131864003E+03  0.00000000000E+00 0. -1.
         22    1    3    3    0    0 -0.90544025094E+02  0.87961318128E+02  0.40283372549E+03  0.42214976531E+03  0.00000000000E+00 0.  1.
         22    1    3    3    0    0  0.34496820967E+02  0.89485659786E+02  0.40625922390E+03  0.41742576701E+03  0.00000000000E+00 0.  1.
</event>
<event>
 7    1  0.6103724E-006  0.6794589E+02  0.7818608E-02  0.1415287E+00
          2   -1    0    0  502    0  0.00000000000E+00  0.00000000000E+00  0.12486268060E+03  0.12486268060E+03  0.00000000000E+00 0. -1.
          1   -1    0    0  501    0 -0.00000000000E+00 -0.00000000000E+00 -0.31326896070E+03  0.31326896070E+03  0.00000000000E+00 0. -1.
         25    2    1    2    0    0 -0.43843610940E+01 -0.43215824937E+02 -0.51627796481E+02  0.14204669377E+03  0.12500001477E+03 0.  0.
          2    1    1    2  501    0 -0.37920746202E+02  0.61794241495E+02 -0.20287441896E+03  0.21544034242E+03  0.00000000000E+00 0. -1.
          1    1    1    2  502    0  0.42305107296E+02 -0.18578416558E+02  0.66095935344E+02  0.80644605115E+02  0.00000000000E+00 0. -1.
         22    1    3    3    0    0 -0.44582969939E+02 -0.53409035789E+02  0.73387323847E+01  0.69957296299E+02  0.00000000000E+00 0. -1.
         22    1    3    3    0    0  0.40198608845E+02  0.10193210852E+02 -0.58966528866E+02  0.72089397466E+02  0.00000000000E+00 0. -1.
</event>
<event>
 7    1  0.6103724E-006  0.1664000E+03  0.7818608E-02  0.1239982E+00
          2   -1    0    0  502    0  0.00000000000E+00  0.00000000000E+00  0.21438462772E+04  0.21438462772E+04  0.00000000000E+00 0. -1.
          1   -1    0    0  501    0 -0.00000000000E+00 -0.00000000000E+00 -0.14032719204E+03  0.14032719204E+03  0.00000000000E+00 0. -1.
         25    2    1    2    0    0 -0.10317185960E+03 -0.39051464566E+02  0.20972109565E+03  0.26790829492E+03  0.12498986770E+03 0.  0.
          2    1    1    2  501    0  0.18644078663E+03  0.67567781803E+01 -0.31139013014E+02  0.18914401683E+03  0.00000000000E+00 0. -1.
          1    1    1    2  502    0 -0.83268927031E+02  0.32294686386E+02  0.18249370025E+04  0.18271211575E+04  0.00000000000E+00 0. -1.
         22    1    3    3    0    0 -0.95394365315E+01 -0.30026044529E+02  0.15688850717E+03  0.16002052332E+03  0.00000000000E+00 0. -1.
         22    1    3    3    0    0 -0.93632423067E+02 -0.90254200374E+01  0.52832588481E+02  0.10788777160E+03  0.00000000000E+00 0. -1.
</event>
<event>
 7    1  0.6103724E-006  0.4077162E+02  0.7818608E-02  0.1555009E+00
          2   -1    0    0  502    0  0.00000000000E+00  0.00000000000E+00  0.17091767228E+03  0.17091767228E+03  0.00000000000E+00 0. -1.
          1   -1    0    0  501    0 -0.00000000000E+00 -0.00000000000E+00 -0.32170085522E+03  0.32170085522E+03  0.00000000000E+00 0. -1.
         25    2    1    2    0    0 -0.15580993292E+02 -0.14353846273E+02  0.29766795299E+01  0.12682224335E+03  0.12500488203E+03 0.  0.
          2    1    1    2  501    0 -0.26702097175E+02  0.10888305102E+02 -0.25468734813E+03  0.25631465522E+03  0.00000000000E+00 0. -1.
          1    1    1    2  502    0  0.42283090467E+02  0.34655411714E+01  0.10092748566E+03  0.10948162894E+03  0.00000000000E+00 0. -1.
         22    1    3    3    0    0  0.41990168225E+02  0.32055888254E+02  0.38932173421E+00  0.52829023943E+02  0.00000000000E+00 0.  1.
         22    1    3    3    0    0 -0.57571161517E+02 -0.46409734527E+02  0.25873577957E+01  0.73993219403E+02  0.00000000000E+00 0.  1.
</event>
<event>
 7    1  0.6103724E-006  0.1038183E+03  0.7818608E-02  0.1325639E+00
          2   -1    0    0  502    0  0.00000000000E+00  0.00000000000E+00  0.50016298568E+02  0.50016298568E+02  0.00000000000E+00 0. -1.
          1   -1    0    0  501    0 -0.00000000000E+00 -0.00000000000E+00 -0.10569148503E+04  0.10569148503E+04  0.00000000000E+00 0. -1.
         25    2    1    2    0    0 -0.19760824130E+02  0.13153384179E+03 -0.38469399082E+03  0.42580016952E+03  0.12499870431E+03 0.  0.
          2    1    1    2  501    0  0.51712374763E+02 -0.36907991662E+02 -0.55973400132E+03  0.56332807651E+03  0.00000000000E+00 0. -1.
          1    1    1    2  502    0 -0.31951550633E+02 -0.94625850132E+02 -0.62470559584E+02  0.11780290283E+03  0.00000000000E+00 0. -1.
         22    1    3    3    0    0 -0.32340767338E+02  0.15296625113E+03 -0.34768951138E+03  0.38122512448E+03  0.00000000000E+00 0. -1.
         22    1    3    3    0    0  0.12579943208E+02 -0.21432409332E+02 -0.37004479441E+02  0.44575045032E+02  0.00000000000E+00 0. -1.
</event>
<event>
 7    1  0.6103724E-006  0.5436563E+02  0.7818608E-02  0.1560546E+00
          2   -1    0    0  502    0  0.00000000000E+00  0.00000000000E+00  0.24044955286E+03  0.24044955286E+03  0.00000000000E+00 0. -1.
          1   -1    0    0  501    0 -0.00000000000E+00 -0.00000000000E+00 -0.72515385478E+03  0.72515385478E+03  0.00000000000E+00 0. -1.
         25    2    1    2    0    0  0.17597773445E+02  0.56520633462E+02 -0.41329853015E+03  0.43582739482E+03  0.12500231762E+03 0.  0.
          2    1    1    2  501    0  0.15807408535E+02 -0.13639018470E+02 -0.29699616890E+03  0.29772910729E+03  0.00000000000E+00 0. -1.
          1    1    1    2  502    0 -0.33405181980E+02 -0.42881614992E+02  0.22559039713E+03  0.23204690552E+03  0.00000000000E+00 0. -1.
         22    1    3    3    0    0 -0.22478525557E+02  0.64459322872E+02 -0.10772058582E+03  0.12753043960E+03  0.00000000000E+00 0.  1.
         22    1    3    3    0    0  0.40076299002E+02 -0.79386894095E+01 -0.30557794433E+03  0.30829695521E+03  0.00000000000E+00 0.  1.
</event>
<event>
 7    1  0.6103724E-006  0.6908863E+02  0.7818608E-02  0.1478205E+00
          2   -1    0    0  502    0  0.00000000000E+00  0.00000000000E+00  0.30603951035E+03  0.30603951035E+03  0.00000000000E+00 0. -1.
          1   -1    0    0  501    0 -0.00000000000E+00 -0.00000000000E+00 -0.11145138184E+04  0.11145138184E+04  0.00000000000E+00 0. -1.
         25    2    1    2    0    0 -0.80511653618E+02 -0.42367186982E+02  0.54749237884E+02  0.16401117144E+03  0.12500032163E+03 0.  0.
          2    1    1    2  501    0  0.16287625315E+02  0.23407984819E+02 -0.10539839606E+04  0.10543696742E+04  0.00000000000E+00 0. -1.
          1    1    1    2  502    0  0.64224028303E+02  0.18959202163E+02  0.19076041467E+03  0.20217248320E+03  0.00000000000E+00 0. -1.
         22    1    3    3    0    0 -0.42989724787E+02  0.39916558726E+01 -0.35459245444E+02  0.55869560956E+02  0.00000000000E+00 0. -1.
         22    1    3    3    0    0 -0.37521928830E+02 -0.46358842855E+02  0.90208483328E+02  0.10814161049E+03  0.00000000000E+00 0. -1.
</event>
<event>
 7    1  0.6103724E-006  0.3999627E+03  0.7818608E-02  0.1265076E+00
          2   -1    0    0  502    0  0.00000000000E+00  0.00000000000E+00  0.13080981354E+04  0.13080981354E+04  0.00000000000E+00 0. -1.
          1   -1    0    0  501    0 -0.00000000000E+00 -0.00000000000E+00 -0.43857927113E+03  0.43857927113E+03  0.00000000000E+00 0. -1.
         25    2    1    2    0    0 -0.12482177066E+03 -0.35462496071E+03  0.15806768339E+02  0.39650119012E+03  0.12499601057E+03 0.  0.
          2    1    1    2  501    0 -0.58588935386E+01 -0.28349063674E+02 -0.21005644564E+03  0.21204175626E+03  0.00000000000E+00 0. -1.
          1    1    1    2  502    0  0.13068066419E+03  0.38297402438E+03  0.10637685416E+04  0.11381344601E+04  0.00000000000E+00 0. -1.
         22    1    3    3    0    0 -0.13438576172E+03 -0.22369310702E+03  0.36848271063E+02  0.26354493765E+03  0.00000000000E+00 0.  1.
         22    1    3    3    0    0  0.95639910630E+01 -0.13093185369E+03 -0.21041502723E+02  0.13295625247E+03  0.00000000000E+00 0.  1.
</event>
<event>
 7    1  0.6103724E-006  0.1494917E+03  0.7818608E-02  0.1300914E+00
          2   -1    0    0  502    0  0.00000000000E+00  0.00000000000E+00  0.10105503354E+04  0.10105503354E+04  0.00000000000E+00 0. -1.
          1   -1    0    0  501    0 -0.00000000000E+00 -0.00000000000E+00 -0.12070930673E+03  0.12070930673E+03  0.00000000000E+00 0. -1.
         25    2    1    2    0    0  0.62846584143E+02 -0.13171777167E+03  0.97901641369E+02  0.21565972074E+03  0.12500047701E+03 0.  0.
          2    1    1    2  501    0 -0.11240736695E+03  0.10750899334E+03  0.38622358356E+02  0.16026629826E+03  0.00000000000E+00 0. -1.
          1    1    1    2  502    0  0.49560782809E+02  0.24208778326E+02  0.75331702896E+03  0.75533362315E+03  0.00000000000E+00 0. -1.
         22    1    3    3    0    0  0.89803823836E+02 -0.70788899776E+02  0.95511741737E+02  0.14899089877E+03  0.00000000000E+00 0.  1.
         22    1    3    3    0    0 -0.26957239692E+02 -0.60928871891E+02  0.23898996315E+01  0.66668821964E+02  0.00000000000E+00 0.  1.
</event>
<event>
 7    1  0.6103724E-006  0.4939965E+02  0.7818608E-02  0.1520860E+00
          2   -1    0    0  502    0  0.00000000000E+00  0.00000000000E+00  0.52285671077E+03  0.52285671077E+03  0.00000000000E+00 0. -1.
          1   -1    0    0  501    0 -0.00000000000E+00 -0.00000000000E+00 -0.31928142950E+03  0.31928142950E+03  0.00000000000E+00 0. -1.
         25    2    1    2    0    0 -0.58679114776E+02 -0.41458791125E+02 -0.71167044434E+02  0.16078562742E+03  0.12500079960E+03 0.  0.
          2    1    1    2  501    0  0.11530753998E+02  0.27417448158E+02 -0.20094186096E+03  0.20313125372E+03  0.00000000000E+00 0. -1.
          1    1    1    2  502    0  0.47148360778E+02  0.14041342967E+02  0.47568418667E+03  0.47822125913E+03  0.00000000000E+00 0. -1.
         22    1    3    3    0    0  0.23447281783E+02  0.24413820819E+02 -0.25504487204E+00  0.33850771304E+02  0.00000000000E+00 0. -1.
         22    1    3    3    0    0 -0.82126396559E+02 -0.65872611944E+02 -0.70911999562E+02  0.12693485612E+03  0.00000000000E+00 0. -1.
</event>
<event>
 7    1  0.6103724E-006  0.2012028E+03  0.7818608E-02  0.1287968E+00
          2   -1    0    0  502    0  0.00000000000E+00  0.00000000000E+00  0.23572636235E+03  0.23572636235E+03  0.00000000000E+00 0. -1.
          1   -1    0    0  501    0 -0.00000000000E+00 -0.00000000000E+00 -0.22280804222E+04  0.22280804222E+04  0.00000000000E+00 0. -1.
         25    2    1    2    0    0  0.21898710382E+03 -0.65640308634E+02 -0.16727635541E+03  0.30962616452E+03  0.12499192341E+03 0.  0.
          2    1    1    2  501    0 -0.42678091834E+02 -0.17755470162E+02 -0.19314623057E+04  0.19320153505E+04  0.00000000000E+00 0. -1.
          1    1    1    2  502    0 -0.17630901198E+03  0.83395778796E+02  0.10638460122E+03  0.22216526957E+03  0.00000000000E+00 0. -1.
         22    1    3    3    0    0  0.83996404591E+02 -0.89784111668E+02 -0.88364040184E+02  0.15140933356E+03  0.00000000000E+00 0.  1.
         22    1    3    3    0    0  0.13499069923E+03  0.24143803034E+02 -0.78912315231E+02  0.15821683095E+03  0.00000000000E+00 0.  1.
</event>
<event>
 7    1  0.6103724E-006  0.9565809E+02  0.7818608E-02  0.1367305E+00
          2   -1    0    0  502    0  0.00000000000E+00  0.00000000000E+00  0.95765805894E+03  0.95765805894E+03  0.00000000000E+00 0. -1.
          1   -1    0    0  501    0 -0.00000000000E+00 -0.00000000000E+00 -0.77230283773E+03  0.77230283773E+03  0.00000000000E+00 0. -1.
         25    2    1    2    0    0 -0.10882194334E+03 -0.50366895912E+02 -0.93189175028E+02  0.19669193652E+03  0.12499782395E+03 0.  0.
          2    1    1    2  501    0  0.64425392044E+02  0.69206096305E+02 -0.62315161131E+03  0.63028409911E+03  0.00000000000E+00 0. -1.
          1    1    1    2  502    0  0.44396551299E+02 -0.18839200394E+02  0.90169600755E+03  0.90298486104E+03  0.00000000000E+00 0. -1.
         22    1    3    3    0    0 -0.58913015165E+02  0.39142037388E+02 -0.38451717043E+02  0.80506999636E+02  0.00000000000E+00 0. -1.
         22    1    3    3    0    0 -0.49908928177E+02 -0.89508933300E+02 -0.54737457985E+02  0.11618493689E+03  0.00000000000E+00 0. -1.
</event>
<event>
 7    1  0.6103724E-006  0.3241299E+02  0.7818608E-02  0.1597029E+00
          2   -1    0    0  502    0  0.00000000000E+00  0.00000000000E+00  0.68449453212E+03  0.68449453212E+03  0.00000000000E+00 0. -1.
          1   -1    0    0  501    0 -0.00000000000E+00 -0.00000000000E+00 -0.11799512507E+04  0.11799512507E+04  0.00000000000E+00 0. -1.
         25    2    1    2    0    0 -0.57620934538E+02  0.33676323894E+01 -0.25023095154E+03  0.28561099796E+03  0.12500639985E+03 0.  0.
          2    1    1    2  501    0  0.25987282173E+02 -0.10274960977E+02 -0.91142292979E+03  0.91185123272E+03  0.00000000000E+00 0. -1.
          1    1    1    2  502    0  0.31633652365E+02  0.69073285874E+01  0.66619716275E+03  0.66698355213E+03  0.00000000000E+00 0. -1.
         22    1    3    3    0    0 -0.50937136834E+02 -0.13852586549E+02 -0.25959053375E+03  0.26490324890E+03  0.00000000000E+00 0. -1.
         22    1    3    3    0    0 -0.66837977046E+01  0.17220218939E+02  0.93595822136E+01  0.20707749063E+02  0.00000000000E+00 0. -1.
</event>
<event>
 7    1  0.6103724E-006  0.7720820E+02  0.7818608E-02  0.1352998E+00
          2   -1    0    0  502    0  0.00000000000E+00  0.00000000000E+00  0.43843755824E+03  0.43843755824E+03  0.00000000000E+00 0. -1.
          1   -1    0    0  501    0 -0.00000000000E+00 -0.00000000000E+00 -0.10887280978E+04  0.10887280978E+04  0.00000000000E+00 0. -1.
         25    2    1    2    0    0 -0.33832119487E+02  0.78283742992E+02 -0.19370191820E+02  0.15255591158E+03  0.12500058041E+03 0.  0.
          2    1    1    2  501    0  0.73843638998E+02 -0.24064150518E+02 -0.99819135631E+03  0.10012082452E+04  0.00000000000E+00 0. -1.
          1    1    1    2  502    0 -0.40011519510E+02 -0.54219592474E+02  0.36727100860E+03  0.37340149927E+03  0.00000000000E+00 0. -1.
         22    1    3    3    0    0 -0.67390470929E+02  0.55186256149E+02 -0.51039433835E+02  0.10095554589E+03  0.00000000000E+00 0.  1.
         22    1    3    3    0    0  0.33558351442E+02  0.23097486843E+02  0.31669242014E+02  0.51600365694E+02  0.00000000000E+00 0.  1.
</event>
<event>
 7    1  0.6103724E-006  0.4432036E+02  0.7818608E-02  0.1569584E+00
          2   -1    0    0  502    0  0.00000000000E+00  0.00000000000E+00  0.24779161982E+03  0.24779161982E+03  0.00000000000E+00 0. -1.
          1   -1    0    0  501    0 -0.00000000000E+00 -0.00000000000E+00 -0.11811003460E+04  0.11811003460E+04  0.00000000000E+00 0. -1.
         25    2    1    2    0    0  0.59573587082E+01 -0.19860980890E+02 -0.19646422876E+03  0.23378003153E+03  0.12499984510E+03 0.  0.
          2    1    1    2  501    0  0.12616068891E+02 -0.20643639214E+02 -0.96365853692E+03  0.96396218848E+03  0.00000000000E+00 0. -1.
          1    1    1    2  502    0 -0.18573427599E+02  0.40504620104E+02  0.22681403951E+03  0.23114974580E+03  0.00000000000E+00 0. -1.
         22    1    3    3    0    0  0.11175451074E+02  0.46395457416E+02 -0.35026927229E+02  0.59197253371E+02  0.00000000000E+00 0.  1.
         22    1    3    3    0    0 -0.52180923661E+01 -0.66256438306E+02 -0.16143730153E+03  0.17458277816E+03  0.00000000000E+00 0.  1.
</event>
<event>
 7    1  0.6103724E-006  0.1573737E+03  0.7818608E-02  0.1393469E+00
          2   -1    0    0  502    0  0.00000000000E+00  0.00000000000E+00  0.12231269888E+04  0.12231269888E+04  0.00000000000E+00 0. -1.
          1   -1    0    0  501    0 -0.00000000000E+00 -0.00000000000E+00 -0.47295530868E+02  0.47295530868E+02  0.00000000000E+00 0. -1.
         25    2    1    2    0    0 -0.22312511273E+02  0.16776899354E+03  0.55027644017E+03  0.58912965478E+03  0.12500122471E+03 0.  0.
          2    1    1    2  501    0  0.36482123291E+02 -0.14879039505E+03  0.18541754583E+03  0.24051859238E+03  0.00000000000E+00 0. -1.
          1    1    1    2  502    0 -0.14169612017E+02 -0.18978598490E+02  0.44013747196E+03  0.44077427253E+03  0.00000000000E+00 0. -1.
         22    1    3    3    0    0  0.38845047125E+02  0.49104293701E+02  0.28922284055E+03  0.29592232231E+03  0.00000000000E+00 0. -1.
         22    1    3    3    0    0 -0.61157558399E+02  0.11866469984E+03  0.26105359962E+03  0.29320733247E+03  0.00000000000E+00 0. -1.
</event>
<event>
 7    1  0.6103724E-006  0.9696636E+02  0.7818608E-02  0.1320152E+00
          2   -1    0    0  502    0  0.00000000000E+00  0.00000000000E+00  0.31996302229E+04  0.31996302229E+04  0.00000000000E+00 0. -1.
          1   -1    0    0  501    0 -0.00000000000E+00 -0.00000000000E+00 -0.40524831530E+03  0.40524831530E+03  0.00000000000E+00 0. -1.
         25    2    1    2    0    0  0.10397875239E+02  0.16303370773E+03  0.46900174147E+03  0.51213034581E+03  0.12500700753E+03 0.  0.
          2    1    1    2  501    0 -0.24495842328E+02 -0.93014820636E+02 -0.37717649867E+03  0.38924788284E+03  0.00000000000E+00 0. -1.
          1    1    1    2  502    0  0.14097967089E+02 -0.70018887094E+02  0.27025566648E+04  0.27035003096E+04  0.00000000000E+00 0. -1.
         22    1    3    3    0    0  0.63943681406E+02  0.69948629694E+02  0.26762730859E+03  0.28391192559E+03  0.00000000000E+00 0. -1.
         22    1    3    3    0    0 -0.53545806167E+02  0.93085078036E+02  0.20137443288E+03  0.22821842022E+03  0.00000000000E+00 0. -1.
</event>
<event>
 7    1  0.6103724E-006  0.4198959E+02  0.7818608E-02  0.1561275E+00
          2   -1    0    0  502    0  0.00000000000E+00  0.00000000000E+00  0.86155503217E+03  0.86155503217E+03  0.00000000000E+00 0. -1.
          1   -1    0    0  501    0 -0.00000000000E+00 -0.00000000000E+00 -0.23187738932E+02  0.23187738932E+02  0.00000000000E+00 0. -1.
         25    2    1    2    0    0  0.17295349868E+02 -0.85197865562E+00  0.25037504247E+03  0.28036652576E+03  0.12497148427E+03 0.  0.
          2    1    1    2  501    0  0.25240475014E+02  0.93231072143E+01  0.17192056273E+02  0.31930685962E+02  0.00000000000E+00 0. -1.
          1    1    1    2  502    0 -0.42535824882E+02 -0.84711285587E+01  0.57080019450E+03  0.57244555938E+03  0.00000000000E+00 0. -1.
         22    1    3    3    0    0 -0.42876268761E+01 -0.56906934185E+02  0.17449289652E+03  0.18358800026E+03  0.00000000000E+00 0.  1.
         22    1    3    3    0    0  0.21582976744E+02  0.56054955530E+02  0.75882145945E+02  0.96778525499E+02  0.00000000000E+00 0.  1.
</event>
<event>
 7    1  0.6103724E-006  0.1304250E+03  0.7818608E-02  0.1302397E+00
          2   -1    0    0  502    0  0.00000000000E+00  0.00000000000E+00  0.93743030414E+03  0.93743030414E+03  0.00000000000E+00 0. -1.
          1   -1    0    0  501    0 -0.00000000000E+00 -0.00000000000E+00 -0.54112907057E+03  0.54112907057E+03  0.00000000000E+00 0. -1.
         25    2    1    2    0    0 -0.31802328176E+02 -0.17190139825E+03  0.11083780643E+03  0.24180727930E+03  0.12499704872E+03 0.  0.
          2    1    1    2  501    0  0.43050679209E+02  0.45121683730E+02 -0.46824134105E+03  0.47237620685E+03  0.00000000000E+00 0. -1.
          1    1    1    2  502    0 -0.11248351034E+02  0.12677971452E+03  0.75370476820E+03  0.76437588857E+03  0.00000000000E+00 0. -1.
         22    1    3    3    0    0  0.59991971468E+01 -0.17434950571E+03  0.75806614159E+02  0.19021141726E+03  0.00000000000E+00 0. -1.
         22    1    3    3    0    0 -0.37801525322E+02  0.24481074607E+01  0.35031192272E+02  0.51595862032E+02  0.00000000000E+00 0. -1.
</event>
<event>
 7    1  0.6103724E-006  0.7475244E+02  0.7818608E-02  0.1425794E+00
          2   -1    0    0  502    0  0.00000000000E+00  0.00000000000E+00  0.32101023546E+04  0.32101023546E+04  0.00000000000E+00 0. -1.
          1   -1    0    0  501    0 -0.00000000000E+00 -0.00000000000E+00 -0.12155587952E+03  0.12155587952E+03  0.00000000000E+00 0. -1.
         25    2    1    2    0    0 -0.89815622449E+02  0.90975234218E+01  0.22742964341E+04  0.22795173261E+04  0.12500143644E+03 0.  0.
          2    1    1    2  501    0  0.70575102350E+02  0.24526664397E+02 -0.10676482054E+03  0.13031166196E+03  0.00000000000E+00 0. -1.
          1    1    1    2  502    0  0.19240520100E+02 -0.33624187819E+02  0.92101486157E+03  0.92182924604E+03  0.00000000000E+00 0. -1.
         22    1    3    3    0    0  0.27733370590E+02 -0.94764484785E+01  0.75432064329E+03  0.75488977726E+03  0.00000000000E+00 0.  1.
         22    1    3    3    0    0 -0.11754899304E+03  0.18573971900E+02  0.15199757908E+04  0.15246275489E+04  0.00000000000E+00 0.  1.
</event>
<event>
 7    1  0.6103724E-006  0.1090426E+03  0.7818608E-02  0.1307704E+00
          2   -1    0    0  502    0  0.00000000000E+00  0.00000000000E+00  0.78306905405E+03  0.78306905405E+03  0.00000000000E+00 0. -1.
          1   -1    0    0  501    0 -0.00000000000E+00 -0.00000000000E+00 -0.19708859655E+04  0.19708859655E+04  0.00000000000E+00 0. -1.
         25    2    1    2    0    0  0.55611927657E+02  0.57279397829E+02  0.21807310181E+03  0.26373237786E+03  0.12500109392E+03 0.  0.
          2    1    1    2  501    0  0.63060623608E+02 -0.32754247135E+02 -0.19406266294E+04  0.19419271865E+04  0.00000000000E+00 0. -1.
          1    1    1    2  502    0 -0.11867255127E+03 -0.24525150694E+02  0.53473661618E+03  0.54829545514E+03  0.00000000000E+00 0. -1.
         22    1    3    3    0    0 -0.15558442620E+02 -0.29906237327E+02  0.70453688844E+02  0.78103587879E+02  0.00000000000E+00 0.  1.
         22    1    3    3    0    0  0.71170370277E+02  0.87185635156E+02  0.14761941297E+03  0.18562878998E+03  0.00000000000E+00 0.  1.
</event>
<event>
 7    1  0.6103724E-006  0.2478134E+03  0.7818608E-02  0.1122911E+00
          2   -1    0    0  502    0  0.00000000000E+00  0.00000000000E+00  0.19559234507E+04  0.19559234507E+04  0.00000000000E+00 0. -1.
          1   -1    0    0  501    0 -0.00000000000E+00 -0.00000000000E+00 -0.27486152971E+03  0.27486152971E+03  0.00000000000E+00 0. -1.
         25    2    1    2    0    0 -0.38659750385E+02 -0.18384257020E+03  0.25032678318E+03  0.33701701490E+03  0.12499721213E+03 0.  0.
          2    1    1    2  501    0  0.25099412432E+03  0.56070857342E+02 -0.14731090743E+03  0.29638234586E+03  0.00000000000E+00 0. -1.
          1    1    1    2  502    0 -0.21233437394E+03  0.12777171285E+03  0.15780460452E+04  0.15973856196E+04  0.00000000000E+00 0. -1.
         22    1    3    3    0    0 -0.70341245781E+02 -0.18036021535E+03  0.21953832145E+03  0.29270253283E+03  0.00000000000E+00 0. -1.
         22    1    3    3    0    0  0.31681495396E+02 -0.34823548487E+01  0.30788461726E+02  0.44314482072E+02  0.00000000000E+00 0. -1.
</event>
<event>
 7    1  0.6103724E-006  0.4875139E+02  0.7818608E-02  0.1502672E+00
          2   -1    0    0  502    0  0.00000000000E+00  0.00000000000E+00  0.19162390691E+03  0.19162390691E+03  0.00000000000E+00 0. -1.
          1   -1    0    0  501    0 -0.00000000000E+00 -0.00000000000E+00 -0.21699723799E+03  0.21699723799E+03  0.00000000000E+00 0. -1.
         25    2    1    2    0    0  0.73470345144E+02  0.17130721453E+02 -0.12423925971E+03  0.19170682558E+03  0.12499904034E+03 0.  0.
          2    1    1    2  501    0 -0.42527600895E+02 -0.28403287904E+01 -0.49131584306E+02  0.65042884945E+02  0.00000000000E+00 0. -1.
          1    1    1    2  502    0 -0.30942744249E+02 -0.14290392662E+02  0.14799751293E+03  0.15187143437E+03  0.00000000000E+00 0. -1.
         22    1    3    3    0    0  0.23512141808E+02  0.67122439116E+02 -0.39468195606E+02  0.81338681509E+02  0.00000000000E+00 0.  1.
         22    1    3    3    0    0  0.49958203336E+02 -0.49991717663E+02 -0.84771064105E+02  0.11036814407E+03  0.00000000000E+00 0.  1.
</event>
<event>
 7    1  0.6103724E-006  0.1830135E+03  0.7818608E-02  0.1350873E+00
          2   -1    0    0  502    0  0.00000000000E+00  0.00000000000E+00  0.15356374553E+04  0.15356374553E+04  0.00000000000E+00 0. -1.
          1   -1    0    0  501    0 -0.00000000000E+00 -0.00000000000E+00 -0.27071798982E+03  0.27071798982E+03  0.00000000000E+00 0. -1.
         25    2    1    2    0    0 -0.13957494467E+03  0.13227834049E+03  0.83533897607E+03  0.86625290179E+03  0.12499664150E+03 0.  0.
          2    1    1    2  501    0  0.14949306320E+03 -0.10508425645E+03 -0.22219591522E+03  0.28768368330E+03  0.00000000000E+00 0. -1.
          1    1    1    2  502    0 -0.99181185290E+01 -0.27194084046E+02  0.65177640464E+03  0.65241886004E+03  0.00000000000E+00 0. -1.
         22    1    3    3    0    0 -0.53551128596E+02  0.12438995940E+03  0.39643896652E+03  0.41893249999E+03  0.00000000000E+00 0.  1.
         22    1    3    3    0    0 -0.86023816076E+02  0.78883810943E+01  0.43890000955E+03  0.44732040181E+03  0.00000000000E+00 0.  1.
</event>
<event>
 7    1  0.6103724E-006  0.4939809E+02  0.7818608E-02  0.1500271E+00
          2   -1    0    0  502    0  0.00000000000E+00  0.00000000000E+00  0.17479642926E+04  0.17479642926E+04  0.00000000000E+00 0. -1.
          1   -1    0    0  501    0 -0.00000000000E+00 -0.00000000000E+00 -0.83525592965E+03  0.83525592965E+03  0.00000000000E+00 0. -1.
         25    2    1    2    0    0 -0.29863053194E+02  0.22134194858E+02  0.27491009804E+03  0.30427919744E+03  0.12501417304E+03 0.  0.
          2    1    1    2  501    0  0.49071298613E+02  0.61567168870E+01 -0.81962546208E+03  0.82111618885E+03  0.00000000000E+00 0. -1.
          1    1    1    2  502    0 -0.19208245419E+02 -0.28290911745E+02  0.14574237270E+04  0.14578248360E+04  0.00000000000E+00 0. -1.
         22    1    3    3    0    0 -0.29030111315E+02  0.19406827919E+02  0.60931539507E+01  0.35447127640E+02  0.00000000000E+00 0.  1.
         22    1    3    3    0    0 -0.83294187877E+00  0.27273669390E+01  0.26881694409E+03  0.26883206980E+03  0.00000000000E+00 0.  1.
</event>
<event>
 7    1  0.6103724E-006  0.5856911E+02  0.7818608E-02  0.1535381E+00
          2   -1    0    0  502    0  0.00000000000E+00  0.00000000000E+00  0.12508729055E+02  0.12508729055E+02  0.00000000000E+00 0. -1.
          1   -1    0    0  501    0 -0.00000000000E+00 -0.00000000000E+00 -0.13696034882E+04  0.13696034882E+04  0.00000000000E+00 0. -1.
         25    2    1    2    0    0 -0.46897446578E+02  0.10965056208E+02 -0.75493021968E+03  0.76672057258E+03  0.12498478661E+03 0.  0.
          2    1    1    2  501    0 -0.42600981906E+01  0.22387984862E+02 -0.46125310198E+03  0.46181575806E+03  0.00000000000E+00 0. -1.
          1    1    1    2  502    0  0.51157544769E+02 -0.33353041070E+02 -0.14091143748E+03  0.15357588661E+03  0.00000000000E+00 0. -1.
         22    1    3    3    0    0 -0.57438466935E+02  0.59427464041E+02 -0.41044533839E+03  0.41868386257E+03  0.00000000000E+00 0. -1.
         22    1    3    3    0    0  0.10541020357E+02 -0.48462407834E+02 -0.34448488129E+03  0.34803671002E+03  0.00000000000E+00 0. -1.
</event>
<event>
 7    1  0.6103724E-006  0.5729978E+02  0.7818608E-02  0.1518722E+00
          2   -1    0    0  502    0  0.00000000000E+00  0.00000000000E+00  0.74219749040E+03  0.74219749040E+03  0.00000000000E+00 0. -1.
          1   -1    0    0  501    0 -0.00000000000E+00 -0.00000000000E+00 -0.48414910750E+03  0.48414910750E+03  0.00000000000E+00 0. -1.
         25    2    1    2    0    0 -0.67841285573E+02  0.20555941341E+02  0.58166531270E+02  0.15502638427E+03  0.12499939083E+03 0.  0.
          2    1    1    2  501    0  0.45727835123E+02 -0.34253447037E+02 -0.43357815223E+03  0.43732636284E+03  0.00000000000E+00 0. -1.
          1    1    1    2  502    0  0.22113450449E+02  0.13697505695E+02  0.63346000386E+03  0.63399385079E+03  0.00000000000E+00 0. -1.
         22    1    3    3    0    0  0.29605704517E+02  0.33360047524E+02  0.25919230685E+02  0.51586791236E+02  0.00000000000E+00 0.  1.
         22    1    3    3    0    0 -0.97446990090E+02 -0.12804106182E+02  0.32247300585E+02  0.10343959304E+03  0.00000000000E+00 0.  1.
</event>
<event>
 7    1  0.6103724E-006  0.1102767E+03  0.7818608E-02  0.1345397E+00
          2   -1    0    0  502    0  0.00000000000E+00  0.00000000000E+00  0.48977614671E+03  0.48977614671E+03  0.00000000000E+00 0. -1.
          1   -1    0    0  501    0 -0.00000000000E+00 -0.00000000000E+00 -0.14640863107E+04  0.14640863107E+04  0.00000000000E+00 0. -1.
         25    2    1    2    0    0 -0.64667032791E+02 -0.17674221033E+02 -0.44862039439E+03  0.47050958529E+03  0.12499923349E+03 0.  0.
          2    1    1    2  501    0 -0.29666539332E+02 -0.40673058666E+02 -0.99745441230E+03  0.99872403890E+03  0.00000000000E+00 0. -1.
          1    1    1    2  502    0  0.94333572123E+02  0.58347279699E+02  0.47176464271E+03  0.48462883322E+03  0.00000000000E+00 0. -1.
         22    1    3    3    0    0 -0.67410393022E+02  0.43186414410E+02 -0.28003844702E+03  0.29125720470E+03  0.00000000000E+00 0. -1.
         22    1    3    3    0    0  0.27433602307E+01 -0.60860635444E+02 -0.16858194736E+03  0.17925238059E+03  0.00000000000E+00 0. -1.
</event>
<event>
 7    1  0.6103724E-006  0.1296234E+03  0.7818608E-02  0.1424922E+00
          2   -1    0    0  502    0  0.00000000000E+00  0.00000000000E+00  0.43550359221E+03  0.43550359221E+03  0.00000000000E+00 0. -1.
          1   -1    0    0  501    0 -0.00000000000E+00 -0.00000000000E+00 -0.42738931768E+03  0.42738931768E+03  0.00000000000E+00 0. -1.
         25    2    1    2    0    0  0.14101730874E+03 -0.23869283849E+02  0.72786986879E+02  0.20341717564E+03  0.12499991125E+03 0.  0.
          2    1    1    2  501    0 -0.19132057047E+02 -0.11822251627E+02 -0.34813579057E+03  0.34886147669E+03  0.00000000000E+00 0. -1.
          1    1    1    2  502    0 -0.12188525169E+03  0.35691535476E+02  0.28346307822E+03  0.31061425756E+03  0.00000000000E+00 0. -1.
         22    1    3    3    0    0  0.13709754879E+03  0.26226545455E+02  0.50356805881E+02  0.14838927680E+03  0.00000000000E+00 0.  1.
         22    1    3    3    0    0  0.39197599474E+01 -0.50095829304E+02  0.22430180997E+02  0.55027898845E+02  0.00000000000E+00 0.  1.
</event>
<event>
 7    1  0.6103724E-006  0.4235176E+02  0.7818608E-02  0.1524328E+00
          2   -1    0    0  502    0  0.00000000000E+00  0.00000000000E+00  0.65559608679E+02  0.65559608679E+02  0.00000000000E+00 0. -1.
          1   -1    0    0  501    0 -0.00000000000E+00 -0.00000000000E+00 -0.43761384107E+03  0.43761384107E+03  0.00000000000E+00 0. -1.
         25    2    1    2    0    0  0.53076357390E+02 -0.52355193044E+02 -0.85270562431E+02  0.16868613598E+03  0.12500311077E+03 0.  0.
          2    1    1    2  501    0 -0.32525136469E+02  0.25394050134E+02 -0.29639251190E+03  0.29925117109E+03  0.00000000000E+00 0. -1.
          1    1    1    2  502    0 -0.20551220921E+02  0.26961142910E+02  0.96088419377E+01  0.35236142691E+02  0.00000000000E+00 0. -1.
         22    1    3    3    0    0  0.44022269589E+02  0.35827509180E+02 -0.29670889505E+02  0.64046329464E+02  0.00000000000E+00 0. -1.
         22    1    3    3    0    0  0.90540878011E+01 -0.88182702225E+02 -0.55599672926E+02  0.10463980651E+03  0.00000000000E+00 0. -1.
</event>
<event>
 7    1  0.6103724E-006  0.1009799E+03  0.7818608E-02  0.1391972E+00
          2   -1    0    0  502    0  0.00000000000E+00  0.00000000000E+00  0.15087509941E+04  0.15087509941E+04  0.00000000000E+00 0. -1.
          1   -1    0    0  501    0 -0.00000000000E+00 -0.00000000000E+00 -0.34475777166E+03  0.34475777166E+03  0.00000000000E+00 0. -1.
         25    2    1    2    0    0 -0.62661740381E+02 -0.43250961423E+02  0.33210427706E+03  0.36292556292E+03  0.12499829602E+03 0.  0.
          2    1    1    2  501    0  0.97310560662E+02  0.29287433408E+02 -0.32119837136E+03  0.33689092112E+03  0.00000000000E+00 0. -1.
          1    1    1    2  502    0 -0.34648820281E+02  0.13963528015E+02  0.11530873168E+04  0.11536922817E+04  0.00000000000E+00 0. -1.
         22    1    3    3    0    0  0.60656157435E+01 -0.42827805079E+02  0.25899870027E+03  0.26258587038E+03  0.00000000000E+00 0. -1.
         22    1    3    3    0    0 -0.68727356125E+02 -0.42315634357E+00  0.73105576791E+02  0.10033969254E+03  0.00000000000E+00 0. -1.
</event>
<event>
 7    1  0.6103724E-006  0.7069888E+02  0.7818608E-02  0.1452830E+00
          2   -1    0    0  502    0  0.00000000000E+00  0.00000000000E+00  0.91003083854E+03  0.91003083854E+03  0.00000000000E+00 0. -1.
          1   -1    0    0  501    0 -0.00000000000E+00 -0.00000000000E+00 -0.73974506035E+03  0.73974506035E+03  0.00000000000E+00 0. -1.
         25    2    1    2    0    0  0.45623781622E+02  0.83979988047E+02 -0.13002431438E+03  0.20412176520E+03  0.12500081943E+03 0.  0.
          2    1    1    2  501    0 -0.16528151768E+02 -0.67455202175E+02 -0.57024378179E+03  0.57445744383E+03  0.00000000000E+00 0. -1.
          1    1    1    2  502    0 -0.29095629853E+02 -0.16524785872E+02  0.87055387437E+03  0.87119668985E+03  0.00000000000E+00 0. -1.
         22    1    3    3    0    0  0.44602409580E+02 -0.76966207890E+01 -0.29147963061E+00  0.45262543812E+02  0.00000000000E+00 0.  1.
         22    1    3    3    0    0  0.10213720415E+01  0.91676608836E+02 -0.12973283475E+03  0.15885922139E+03  0.00000000000E+00 0.  1.
</event>
<event>
 7    1  0.6103724E-006  0.3193565E+03  0.7818608E-02  0.1153252E+00
          2   -1    0    0  502    0  0.00000000000E+00  0.00000000000E+00  0.13228463490E+04  0.13228463490E+04  0.00000000000E+00 0. -1.
          1   -1    0    0  501    0 -0.00000000000E+00 -0.00000000000E+00 -0.21822293118E+03  0.21822293118E+03  0.00000000000E+00 0. -1.
         25    2    1    2    0    0 -0.35967381796E+03 -0.19614086082E+03  0.81516929405E+03  0.92084921256E+03  0.12500320676E+03 0.  0.
          2    1    1    2  501    0  0.28751582699E+03  0.10005958301E+03 -0.25706894888E+01  0.30444027225E+03  0.00000000000E+00 0. -1.
          1    1    1    2  502    0  0.72157990966E+02  0.96081277804E+02  0.29202481323E+03  0.31577979535E+03  0.00000000000E+00 0. -1.
         22    1    3    3    0    0 -0.87395024411E+01 -0.36332009980E+01 -0.30734596238E+01  0.99511409632E+01  0.00000000000E+00 0.  1.
         22    1    3    3    0    0 -0.35093431552E+03 -0.19250765982E+03  0.81824275368E+03  0.91089807160E+03  0.00000000000E+00 0.  1.
</event>
<event>
 7    1  0.6103724E-006  0.8849467E+02  0.7818608E-02  0.1348766E+00
          2   -1    0    0  502    0  0.00000000000E+00  0.00000000000E+00  0.75352907277E+02  0.75352907277E+02  0.00000000000E+00 0. -1.
          1   -1    0    0  501    0 -0.00000000000E+00 -0.00000000000E+00 -0.19598493022E+04  0.19598493022E+04  0.00000000000E+00 0. -1.
         25    2    1    2    0    0  0.70777002412E+02 -0.42691752314E+01 -0.49299406323E+03  0.51351490453E+03  0.12500720324E+03 0.  0.
          2    1    1    2  501    0 -0.74300385753E+02 -0.56578078442E+02 -0.14404760229E+04  0.14435001901E+04  0.00000000000E+00 0. -1.
          1    1    1    2  502    0  0.35233833411E+01  0.60847253674E+02  0.48973691159E+02  0.78187114895E+02  0.00000000000E+00 0. -1.
         22    1    3    3    0    0  0.25103016107E+02 -0.33764158177E+02 -0.42200553281E+03  0.42409768865E+03  0.00000000000E+00 0.  1.
         22    1    3    3    0    0  0.45673986305E+02  0.29494982945E+02 -0.70988530427E+02  0.89417215882E+02  0.00000000000E+00 0.  1.
</event>
<event>
 7    1  0.6103724E-006  0.1163536E+03  0.7818608E-02  0.1401418E+00
          2   -1    0    0  502    0  0.00000000000E+00  0.00000000000E+00  0.12126928815E+03  0.12126928815E+03  0.00000000000E+00 0. -1.
          1   -1    0    0  501    0 -0.00000000000E+00 -0.00000000000E+00 -0.14491738955E+04  0.14491738955E+04  0.00000000000E+00 0. -1.
         25    2    1    2    0    0 -0.66492620598E+02 -0.72346516957E+02 -0.13475655833E+03  0.20842249798E+03  0.12500128216E+03 0.  0.
          2    1    1    2  501    0  0.59653050988E+02  0.10163189009E+03 -0.12720938878E+04  0.12775407575E+04  0.00000000000E+00 0. -1.
          1    1    1    2  502    0  0.68395696106E+01 -0.29285373130E+02  0.78945838837E+02  0.84479928158E+02  0.00000000000E+00 0. -1.
         22    1    3    3    0    0 -0.19730141406E+02  0.28275935397E+02 -0.74656131268E+02  0.82233478209E+02  0.00000000000E+00 0.  1.
         22    1    3    3    0    0 -0.46762479192E+02 -0.10062245235E+03 -0.60100427065E+02  0.12618901977E+03  0.00000000000E+00 0.  1.
</event>
<event>
 7    1  0.6103724E-006  0.5808829E+02  0.7818608E-02  0.1416686E+00
          2   -1    0    0  502    0  0.00000000000E+00  0.00000000000E+00  0.15101552826E+03  0.15101552826E+03  0.00000000000E+00 0. -1.
          1   -1    0    0  501    0 -0.00000000000E+00 -0.00000000000E+00 -0.11770168869E+04  0.11770168869E+04  0.00000000000E+00 0. -1.
         25    2    1    2    0    0  0.45100254936E+02  0.10122561343E+03 -0.48163042145E+02  0.17383885870E+03  0.12497844756E+03 0.  0.
          2    1    1    2  501    0 -0.25291507655E+02 -0.51566647853E+02 -0.10570599485E+04  0.10586191545E+04  0.00000000000E+00 0. -1.
          1    1    1    2  502    0 -0.19808747281E+02 -0.49658965578E+02  0.79221632020E+02  0.95574401965E+02  0.00000000000E+00 0. -1.
         22    1    3    3    0    0  0.61641832757E+01  0.91645807325E+02  0.20696375622E+02  0.94155674920E+02  0.00000000000E+00 0. -1.
         22    1    3    3    0    0  0.38936071660E+02  0.95798061050E+01 -0.68859417767E+02  0.79683183775E+02  0.00000000000E+00 0. -1.
</event>
<event>
 7    1  0.6103724E-006  0.5951335E+02  0.7818608E-02  0.1532674E+00
          2   -1    0    0  502    0  0.00000000000E+00  0.00000000000E+00  0.10130742985E+02  0.10130742985E+02  0.00000000000E+00 0. -1.
          1   -1    0    0  501    0 -0.00000000000E+00 -0.00000000000E+00 -0.19425481285E+04  0.19425481285E+04  0.00000000000E+00 0. -1.
         25    2    1    2    0    0 -0.42097923527E+02 -0.33434687335E+02 -0.14109866593E+04  0.14175326072E+04  0.12500090501E+03 0.  0.
          2    1    1    2  501    0  0.61056541805E+02  0.20715445452E+02 -0.49897503164E+03  0.50312335782E+03  0.00000000000E+00 0. -1.
          1    1    1    2  502    0 -0.18958618277E+02  0.12719241883E+02 -0.22455694607E+02  0.32022906510E+02  0.00000000000E+00 0. -1.
         22    1    3    3    0    0  0.54295950576E+01 -0.54210073380E+02 -0.27402991483E+03  0.27939328335E+03  0.00000000000E+00 0.  1.
         22    1    3    3    0    0 -0.47527518585E+02  0.20775386045E+02 -0.11369567445E+04  0.11381393238E+04  0.00000000000E+00 0.  1.
</event>
<event>
 7    1  0.6103724E-006  0.1063203E+03  0.7818608E-02  0.1275842E+00
          2   -1    0    0  502    0  0.00000000000E+00  0.00000000000E+00  0.15156939948E+04  0.15156939948E+04  0.00000000000E+00 0. -1.
          1   -1    0    0  501    0 -0.00000000000E+00 -0.00000000000E+00 -0.62060637507E+02  0.62060637507E+02  0.00000000000E+00 0. -1.
         25    2    1    2    0    0  0.52250362127E+02  0.51973375715E+02  0.35157397240E+03  0.38034456960E+03  0.12500560558E+03 0.  0.
          2    1    1    2  501    0 -0.10199581594E+03  0.41991527984E+02  0.22431101851E+02  0.11255926981E+03  0.00000000000E+00 0. -1.
          1    1    1    2  502    0  0.49745453809E+02 -0.93964903699E+02  0.10796282830E+04  0.10848507929E+04  0.00000000000E+00 0. -1.
         22    1    3    3    0    0 -0.21949297600E+02  0.56425355676E+02  0.90422225176E+02  0.10881990275E+03  0.00000000000E+00 0. -1.
         22    1    3    3    0    0  0.74199659727E+02 -0.44519799604E+01  0.26115174722E+03  0.27152466685E+03  0.00000000000E+00 0. -1.
</event>
<event>
 7    1  0.1054965E-005  0.5285111E+02  0.7818608E-02  0.1487900E+00
          2   -1    0    0  502    0  0.00000000000E+00  0.00000000000E+00  0.17638867814E+04  0.17638867814E+04  0.00000000000E+00 0. -1.
          1   -1    0    0  501    0 -0.00000000000E+00 -0.00000000000E+00 -0.12116846056E+04  0.12116846056E+04  0.00000000000E+00 0. -1.
         25    2    1    2    0    0 -0.53576923361E+02 -0.64029475214E+02 -0.52337319659E+03  0.54453126936E+03  0.12499815997E+03 0.  0.
          2    1    1    2  501    0  0.30716589629E+02  0.16401395705E+02 -0.67688677300E+03  0.67778183667E+03  0.00000000000E+00 0. -1.
          1    1    1    2  502    0  0.22860333732E+02  0.47628079509E+02  0.17524621454E+04  0.17532582810E+04  0.00000000000E+00 0. -1.
         22    1    3    3    0    0  0.78757472745E+01  0.19650948898E+02 -0.15715245258E+02  0.26365813495E+02  0.00000000000E+00 0.  1.
         22    1    3    3    0    0 -0.61452670635E+02 -0.83680424111E+02 -0.50765795133E+03  0.51816545587E+03  0.00000000000E+00 0.  1.
</event>
<event>
 7    1  0.7292001E-006  0.6977976E+02  0.7818608E-02  0.1361358E+00
          2   -1    0    0  502    0  0.00000000000E+00  0.00000000000E+00  0.86141354661E+03  0.86141354661E+03  0.00000000000E+00 0. -1.
          1   -1    0    0  501    0 -0.00000000000E+00 -0.00000000000E+00 -0.77893035947E+03  0.77893035947E+03  0.00000000000E+00 0. -1.
         25    2    1    2    0    0 -0.74690567915E+02 -0.19669983158E+02 -0.21239219199E+03  0.25826477957E+03  0.12499865589E+03 0.  0.
          2    1    1    2  501    0  0.24640003255E+02  0.67860679392E+02 -0.53975495037E+03  0.54456184958E+03  0.00000000000E+00 0. -1.
          1    1    1    2  502    0  0.50050564661E+02 -0.48190696234E+02  0.83463032950E+03  0.83751727693E+03  0.00000000000E+00 0. -1.
         22    1    3    3    0    0  0.26430194512E+02  0.10944578092E+02 -0.99992875922E+02  0.10400439513E+03  0.00000000000E+00 0. -1.
         22    1    3    3    0    0 -0.10112076243E+03 -0.30614561250E+02 -0.11239931607E+03  0.15426038444E+03  0.00000000000E+00 0. -1.
</event>
<event>
 7    1  0.6103724E-006  0.9403343E+02  0.7818608E-02  0.1318339E+00
          2   -1    0    0  502    0  0.00000000000E+00  0.00000000000E+00  0.23269033932E+03  0.23269033932E+03  0.00000000000E+00 0. -1.
          1   -1    0    0  501    0 -0.00000000000E+00 -0.00000000000E+00 -0.27718834159E+04  0.27718834159E+04  0.00000000000E+00 0. -1.
         25    2    1    2    0    0  0.14879032662E+03 -0.39971683599E+00 -0.12143444579E+04  0.12297950304E+04  0.12499853365E+03 0.  0.
          2    1    1    2  501    0 -0.63824973069E+02 -0.39111604705E+02 -0.15391070793E+04  0.15409263273E+04  0.00000000000E+00 0. -1.
          1    1    1    2  502    0 -0.84965353552E+02  0.39511321541E+02  0.21425846061E+03  0.23385239742E+03  0.00000000000E+00 0. -1.
         22    1    3    3    0    0  0.79375391067E+02  0.47511903482E+02 -0.88500396206E+03  0.88982573943E+03  0.00000000000E+00 0.  1.
         22    1    3    3    0    0  0.69414935554E+02 -0.47911620318E+02 -0.32934049584E+03  0.33996929102E+03  0.00000000000E+00 0.  1.
</event>
<event>
 7    1  0.6103724E-006  0.4351715E+02  0.7818608E-02  0.1591673E+00
          2   -1    0    0  502    0  0.00000000000E+00  0.00000000000E+00  0.99476469364E+03  0.99476469364E+03  0.00000000000E+00 0. -1.
          1   -1    0    0  501    0 -0.00000000000E+00 -0.00000000000E+00 -0.56039377072E+02  0.56039377072E+02  0.00000000000E+00 0. -1.
         25    2    1    2    0    0  0.28326376396E+02  0.25707139651E+02  0.38385933847E+03  0.40550452326E+03  0.12499074376E+03 0.  0.
          2    1    1    2  501    0  0.14769471681E+02 -0.15625415182E+02 -0.41793978901E+02  0.47000293252E+02  0.00000000000E+00 0. -1.
          1    1    1    2  502    0 -0.43095848078E+02 -0.10081724469E+02  0.59665995700E+03  0.59829925420E+03  0.00000000000E+00 0. -1.
         22    1    3    3    0    0  0.69347182015E+02  0.36020051696E+02  0.31619229138E+03  0.32570545115E+03  0.00000000000E+00 0.  1.
         22    1    3    3    0    0 -0.41020805618E+02 -0.10312912045E+02  0.67667047090E+02  0.79799072114E+02  0.00000000000E+00 0.  1.
</event>
<event>
 7    1  0.6103724E-006  0.4096381E+02  0.7818608E-02  0.1589486E+00
          2   -1    0    0  502    0  0.00000000000E+00  0.00000000000E+00  0.22462154825E+03  0.22462154825E+03  0.00000000000E+00 0. -1.
          1   -1    0    0  501    0 -0.00000000000E+00 -0.00000000000E+00 -0.15441560445E+03  0.15441560445E+03  0.00000000000E+00 0. -1.
         25    2    1    2    0    0 -0.30541282686E+02 -0.53841040446E+02 -0.22116057279E+01  0.13950446667E+03  0.12499990975E+03 0.  0.
          2    1    1    2  501    0  0.15190516911E+02  0.36516133545E+02 -0.77941840183E+02  0.87402003777E+02  0.00000000000E+00 0. -1.
          1    1    1    2  502    0  0.15350765775E+02  0.17324906900E+02  0.15035938971E+03  0.15213068225E+03  0.00000000000E+00 0. -1.
         22    1    3    3    0    0  0.26663205552E+02  0.28371297946E+02 -0.53467252045E+01  0.39299421724E+02  0.00000000000E+00 0.  1.
         22    1    3    3    0    0 -0.57204488238E+02 -0.82212338391E+02  0.31351194766E+01  0.10020504495E+03  0.00000000000E+00 0.  1.
</event>
<event>
 7    1  0.6103724E-006  0.4390932E+02  0.7818608E-02  0.1498093E+00
          2   -1    0    0  502    0  0.00000000000E+00  0.00000000000E+00  0.58056197227E+03  0.58056197227E+03  0.00000000000E+00 0. -1.
          1   -1    0    0  501    0 -0.00000000000E+00 -0.00000000000E+00 -0.23146096505E+03  0.23146096505E+03  0.00000000000E+00 0. -1.
         25    2    1    2    0    0 -0.14280408263E+02  0.13031976072E+01  0.10980387654E+02  0.12630261126E+03  0.12500460917E+03 0.  0.
          2    1    1    2  501    0  0.29330565932E+02  0.34730638476E+02 -0.17006537257E+03  0.17603616189E+03  0.00000000000E+00 0. -1.
          1    1    1    2  502    0 -0.15050157669E+02 -0.36033836083E+02  0.50818599213E+03  0.50968416416E+03  0.00000000000E+00 0. -1.
         22    1    3    3    0    0 -0.46380900968E+02 -0.21258131827E+02  0.49665879357E+02  0.71202497959E+02  0.00000000000E+00 0. -1.
         22    1    3    3    0    0  0.32100492705E+02  0.22561329434E+02 -0.38685491703E+02  0.55100113303E+02  0.00000000000E+00 0. -1.
</event>
<event>
 7    1  0.6103724E-006  0.1066744E+03  0.7818608E-02  0.1273015E+00
          2   -1    0    0  502    0  0.00000000000E+00  0.00000000000E+00  0.18458073737E+03  0.18458073737E+03  0.00000000000E+00 0. -1.
          1   -1    0    0  501    0 -0.00000000000E+00 -0.00000000000E+00 -0.84164422601E+03  0.84164422601E+03  0.00000000000E+00 0. -1.
         25    2    1    2    0    0 -0.16107272823E+03 -0.68598632607E+02  0.11553244245E+02  0.21542593845E+03  0.12499864532E+03 0.  0.
          2    1    1    2  501    0  0.61907054340E+02  0.84954796721E+02 -0.69816962575E+03  0.70603868674E+03  0.00000000000E+00 0. -1.
          1    1    1    2  502    0  0.99165673886E+02 -0.16356164114E+02  0.29552892859E+02  0.10476033819E+03  0.00000000000E+00 0. -1.
         22    1    3    3    0    0 -0.15899492723E+03 -0.14667532791E+02 -0.23707159017E+01  0.15968764416E+03  0.00000000000E+00 0. -1.
         22    1    3    3    0    0 -0.20778009949E+01 -0.53931099816E+02  0.13923960147E+02  0.55738294291E+02  0.00000000000E+00 0. -1.
</event>
<event>
 7    1  0.6103724E-006  0.6597285E+02  0.7818608E-02  0.1395261E+00
          2   -1    0    0  502    0  0.00000000000E+00  0.00000000000E+00  0.22920172536E+04  0.22920172536E+04  0.00000000000E+00 0. -1.
          1   -1    0    0  501    0 -0.00000000000E+00 -0.00000000000E+00 -0.81488191364E+02  0.81488191364E+02  0.00000000000E+00 0. -1.
         25    2    1    2    0    0  0.29610308049E+02  0.85998489613E+02  0.38603630276E+03  0.41583902251E+03  0.12500222013E+03 0.  0.
          2    1    1    2  501    0 -0.54743450741E+02 -0.36295853374E+02 -0.49874150166E+02  0.82472208810E+02  0.00000000000E+00 0. -1.
          1    1    1    2  502    0  0.25133142692E+02 -0.49702636239E+02  0.18743669097E+04  0.18751942137E+04  0.00000000000E+00 0. -1.
         22    1    3    3    0    0  0.44950099070E+01  0.57013919069E+02  0.45318675921E+02  0.72969681847E+02  0.00000000000E+00 0.  1.
         22    1    3    3    0    0  0.25115298142E+02  0.28984570544E+02  0.34071762684E+03  0.34286934067E+03  0.00000000000E+00 0.  1.
</event>
<event>
 7    1  0.6103724E-006  0.6496174E+02  0.7818608E-02  0.1462891E+00
          2   -1    0    0  502    0  0.00000000000E+00  0.00000000000E+00  0.18684153367E+04  0.18684153367E+04  0.00000000000E+00 0. -1.
          1   -1    0    0  501    0 -0.00000000000E+00 -0.00000000000E+00 -0.18264654040E+03  0.18264654040E+03  0.00000000000E+00 0. -1.
         25    2    1    2    0    0  0.17011926799E+02  0.28882022270E+02  0.11678963383E+03  0.17432163390E+03  0.12499854644E+03 0.  0.
          2    1    1    2  501    0  0.28147236425E+02  0.18788803385E+02 -0.15138589923E+03  0.15512245658E+03  0.00000000000E+00 0. -1.
          1    1    1    2  502    0 -0.45159163225E+02 -0.47670825655E+02  0.17203650617E+04  0.17216177866E+04  0.00000000000E+00 0. -1.
         22    1    3    3    0    0 -0.45138560863E+02  0.14853144738E+02  0.96313087806E+02  0.10739793512E+03  0.00000000000E+00 0. -1.
         22    1    3    3    0    0  0.62150487663E+02  0.14028877532E+02  0.20476546024E+02  0.66923698782E+02  0.00000000000E+00 0. -1.
</event>
<event>
 7    1  0.6103724E-006  0.1150290E+03  0.7818608E-02  0.1419253E+00
          2   -1    0    0  502    0  0.00000000000E+00  0.00000000000E+00  0.16341506991E+03  0.16341506991E+03  0.00000000000E+00 0. -1.
          1   -1    0    0  501    0 -0.00000000000E+00 -0.00000000000E+00 -0.25037300150E+04  0.25037300150E+04  0.00000000000E+00 0. -1.
         25    2    1    2    0    0 -0.11336656476E+03  0.79336995736E+02 -0.83378456215E+03  0.85438192773E+03  0.12500178180E+03 0.  0.
          2    1    1    2  501    0  0.14072280455E+02 -0.22418900910E+02 -0.16381375411E+04  0.16383513786E+04  0.00000000000E+00 0. -1.
          1    1    1    2  502    0  0.99294284302E+02 -0.56918094826E+02  0.13160715819E+03  0.17441177856E+03  0.00000000000E+00 0. -1.
         22    1    3    3    0    0 -0.12973996843E+03  0.94097208081E+02 -0.65882979043E+03  0.67804383098E+03  0.00000000000E+00 0. -1.
         22    1    3    3    0    0  0.16373403670E+02 -0.14760212346E+02 -0.17495477173E+03  0.17633809675E+03  0.00000000000E+00 0. -1.
</event>
<event>
 7    1  0.6103724E-006  0.4821961E+02  0.7818608E-02  0.1461882E+00
          2   -1    0    0  502    0  0.00000000000E+00  0.00000000000E+00  0.17316871060E+03  0.17316871060E+03  0.00000000000E+00 0. -1.
          1   -1    0    0  501    0 -0.00000000000E+00 -0.00000000000E+00 -0.20476401955E+03  0.20476401955E+03  0.00000000000E+00 0. -1.
         25    2    1    2    0    0  0.30518669596E+02  0.93444611731E+01 -0.32785847048E+02  0.13311308430E+03  0.12500189317E+03 0.  0.
          2    1    1    2  501    0 -0.22016934477E+02  0.40304953843E+02 -0.11193269147E+03  0.12098827269E+03  0.00000000000E+00 0. -1.
          1    1    1    2  502    0 -0.85017351191E+01 -0.49649415016E+02  0.11312322957E+03  0.12383137316E+03  0.00000000000E+00 0. -1.
         22    1    3    3    0    0  0.90599517722E+01  0.84646588760E+01 -0.80152011808E+02  0.81105352307E+02  0.00000000000E+00 0. -1.
         22    1    3    3    0    0  0.21458717824E+02  0.87980229713E+00  0.47366164760E+02  0.52007731990E+02  0.00000000000E+00 0. -1.
</event>
<event>
 7    1  0.6103724E-006  0.1610858E+03  0.7818608E-02  0.1278791E+00
          2   -1    0    0  502    0  0.00000000000E+00  0.00000000000E+00  0.12387230872E+04  0.12387230872E+04  0.00000000000E+00 0. -1.
          1   -1    0    0  501    0 -0.00000000000E+00 -0.00000000000E+00 -0.21361695744E+03  0.21361695744E+03  0.00000000000E+00 0. -1.
         25    2    1    2    0    0  0.13528994499E+03 -0.63511282018E+02  0.24576672645E+03  0.31362924507E+03  0.12499986950E+03 0.  0.
          2    1    1    2  501    0 -0.11036746324E+03  0.12134477869E+03 -0.14094992960E+03  0.21626931107E+03  0.00000000000E+00 0. -1.
          1    1    1    2  502    0 -0.24922481755E+02 -0.57833496676E+02  0.92028933288E+03  0.92244148847E+03  0.00000000000E+00 0. -1.
         22    1    3    3    0    0  0.34078124531E+02 -0.20823864297E+02 -0.46239880906E+01  0.40203646124E+02  0.00000000000E+00 0.  1.
         22    1    3    3    0    0  0.10121182046E+03 -0.42687417721E+02  0.25039071454E+03  0.27342559895E+03  0.00000000000E+00 0.  1.
</event>
<event>
 7    1  0.6103724E-006  0.1188050E+03  0.7818608E-02  0.1382982E+00
          2   -1    0    0  502    0  0.00000000000E+00  0.00000000000E+00  0.80531035654E+03  0.80531035654E+03  0.00000000000E+00 0. -1.
          1   -1    0    0  501    0 -0.00000000000E+00 -0.00000000000E+00 -0.59646621275E+02  0.59646621275E+02  0.00000000000E+00 0. -1.
         25    2    1    2    0    0  0.61079599981E+02 -0.86146978011E+02  0.47286054046E+03  0.50036621807E+03  0.12496896456E+03 0.  0.
          2    1    1    2  501    0 -0.94009218327E+02  0.77138593539E+02  0.38125326851E+02  0.12744267845E+03  0.00000000000E+00 0. -1.
          1    1    1    2  502    0  0.32929618346E+02  0.90083844719E+01  0.23467786796E+03  0.23714808130E+03  0.00000000000E+00 0. -1.
         22    1    3    3    0    0  0.89172753588E+02 -0.25075657243E+02  0.32497506515E+03  0.33791916420E+03  0.00000000000E+00 0.  1.
         22    1    3    3    0    0 -0.28093153607E+02 -0.61071320767E+02  0.14788547531E+03  0.16244705386E+03  0.00000000000E+00 0.  1.
</event>
<event>
 7    1  0.6103724E-006  0.1007233E+03  0.7818608E-02  0.1441160E+00
          2   -1    0    0  502    0  0.00000000000E+00  0.00000000000E+00  0.64260818504E+03  0.64260818504E+03  0.00000000000E+00 0. -1.
          1   -1    0    0  501    0 -0.00000000000E+00 -0.00000000000E+00 -0.35896901664E+03  0.35896901664E+03  0.00000000000E+00 0. -1.
         25    2    1    2    0    0 -0.62562335422E+02  0.10767122337E+03  0.30069136238E+03  0.34864119135E+03  0.12501298628E+03 0.  0.
          2    1    1    2  501    0  0.44061427015E+02 -0.89970512096E+02 -0.32696456018E+03  0.34196772656E+03  0.00000000000E+00 0. -1.
          1    1    1    2  502    0  0.18500908407E+02 -0.17700711276E+02  0.30991236619E+03  0.31096828377E+03  0.00000000000E+00 0. -1.
         22    1    3    3    0    0 -0.74365776135E+02  0.40031547494E+02  0.24831085587E+03  0.26228052653E+03  0.00000000000E+00 0.  1.
         22    1    3    3    0    0  0.11803440713E+02  0.67639675878E+02  0.52380506519E+02  0.86360664823E+02  0.00000000000E+00 0.  1.
</event>
<event>
 7    1  0.6103724E-006  0.2072900E+03  0.7818608E-02  0.1248384E+00
          2   -1    0    0  502    0  0.00000000000E+00  0.00000000000E+00  0.35145795385E+04  0.35145795385E+04  0.00000000000E+00 0. -1.
          1   -1    0    0  501    0 -0.00000000000E+00 -0.00000000000E+00 -0.91336857624E+03  0.91336857624E+03  0.00000000000E+00 0. -1.
         25    2    1    2    0    0 -0.17670635999E+01  0.24013957052E+03  0.10761131053E+03  0.29133763462E+03  0.12500914904E+03 0.  0.
          2    1    1    2  501    0  0.52962133836E+02 -0.19869194947E+03 -0.80830410818E+03  0.83404976452E+03  0.00000000000E+00 0. -1.
          1    1    1    2  502    0 -0.51195070236E+02 -0.41447621052E+02  0.33019037599E+04  0.33025607156E+04  0.00000000000E+00 0. -1.
         22    1    3    3    0    0 -0.63138460745E+02  0.12959578995E+03  0.52656525639E+02  0.15347391860E+03  0.00000000000E+00 0. -1.
         22    1    3    3    0    0  0.61371397145E+02  0.11054378057E+03  0.54954784890E+02  0.13786371601E+03  0.00000000000E+00 0. -1.
</event>
<event>
 7    1  0.6103724E-006  0.1001244E+03  0.7818608E-02  0.1299864E+00
          2   -1    0    0  502    0  0.00000000000E+00  0.00000000000E+00  0.18329344484E+04  0.18329344484E+04  0.00000000000E+00 0. -1.
          1   -1    0    0  501    0 -0.00000000000E+00 -0.00000000000E+00 -0.92749248946E+02  0.92749248946E+02  0.00000000000E+00 0. -1.
         25    2    1    2    0    0  0.19703187065E+02  0.62730874687E+02  0.14731348814E+03  0.20408290327E+03  0.12500075758E+03 0.  0.
          2    1    1    2  501    0  0.78102081090E+02 -0.28540804356E+02 -0.35155748408E+02  0.90279783064E+02  0.00000000000E+00 0. -1.
          1    1    1    2  502    0 -0.97805268155E+02 -0.34190070331E+02  0.16280274597E+04  0.16313210110E+04  0.00000000000E+00 0. -1.
         22    1    3    3    0    0  0.69545224139E+02  0.21860584199E+02  0.10165928343E+03  0.12509609606E+03  0.00000000000E+00 0.  1.
         22    1    3    3    0    0 -0.49842037074E+02  0.40870290488E+02  0.45654204710E+02  0.78986807202E+02  0.00000000000E+00 0.  1.
</event>
<event>
 7    1  0.6103724E-006  0.9328717E+02  0.7818608E-02  0.1378093E+00
          2   -1    0    0  502    0  0.00000000000E+00  0.00000000000E+00  0.30311840126E+04  0.30311840126E+04  0.00000000000E+00 0. -1.
          1   -1    0    0  501    0 -0.00000000000E+00 -0.00000000000E+00 -0.80011628341E+03  0.80011628341E+03  0.00000000000E+00 0. -1.
         25    2    1    2    0    0  0.52133864322E+02 -0.12554126008E+03 -0.19056465819E+02  0.18565068494E+03  0.12499792052E+03 0.  0.
          2    1    1    2  501    0 -0.42469837219E+02  0.81340215112E+02 -0.69457141360E+03  0.70060642750E+03  0.00000000000E+00 0. -1.
          1    1    1    2  502    0 -0.96640271030E+01  0.44201044970E+02  0.29446956086E+04  0.29450431836E+04  0.00000000000E+00 0. -1.
         22    1    3    3    0    0  0.93626703095E+02 -0.88393075414E+02 -0.17425772372E+02  0.12993441752E+03  0.00000000000E+00 0. -1.
         22    1    3    3    0    0 -0.41492838772E+02 -0.37148184669E+02 -0.16306934469E+01  0.55716267415E+02  0.00000000000E+00 0. -1.
</event>
<event>
 7    1  0.6103724E-006  0.1108863E+03  0.7818608E-02  0.1271067E+00
          2   -1    0    0  502    0  0.00000000000E+00  0.00000000000E+00  0.25418651310E+03  0.25418651310E+03  0.00000000000E+00 0. -1.
          1   -1    0    0  501    0 -0.00000000000E+00 -0.00000000000E+00 -0.24063854616E+03  0.24063854616E+03  0.00000000000E+00 0. -1.
         25    2    1    2    0    0  0.61028671303E+01 -0.15887749427E+03 -0.30608003094E+01  0.20227115717E+03  0.12499979740E+03 0.  0.
          2    1    1    2  501    0  0.61515346817E+02  0.76955577833E+02 -0.96134625319E+02  0.13765233394E+03  0.00000000000E+00 0. -1.
          1    1    1    2  502    0 -0.67618213947E+02  0.81921916433E+02  0.11274339257E+03  0.15490156816E+03  0.00000000000E+00 0. -1.
         22    1    3    3    0    0 -0.14114206293E+02 -0.58092129329E+02  0.57514983383E+02  0.82957095072E+02  0.00000000000E+00 0.  1.
         22    1    3    3    0    0  0.20217073424E+02 -0.10078536494E+03 -0.60575783692E+02  0.11931406209E+03  0.00000000000E+00 0.  1.
</event>
<event>
 7    1  0.6103724E-006  0.9824721E+02  0.7818608E-02  0.1428863E+00
          2   -1    0    0  502    0  0.00000000000E+00  0.00000000000E+00  0.62198907840E+03  0.62198907840E+03  0.00000000000E+00 0. -1.
          1   -1    0    0  501    0 -0.00000000000E+00 -0.00000000000E+00 -0.29202981918E+03  0.29202981918E+03  0.00000000000E+00 0. -1.
         25    2    1    2    0    0 -0.96848387918E+02 -0.65847117907E+02 -0.85179565321E+02  0.19130445507E+03  0.12500553188E+03 0.  0.
          2    1    1    2  501    0  0.84581386042E+02  0.39795488882E+02 -0.13917536381E+03  0.16765283681E+03  0.00000000000E+00 0. -1.
          1    1    1    2  502    0  0.12267001876E+02  0.26051629025E+02  0.55431418836E+03  0.55506160570E+03  0.00000000000E+00 0. -1.
         22    1    3    3    0    0 -0.10543019952E+03 -0.55401160745E+00 -0.53343797152E+02  0.11815834543E+03  0.00000000000E+00 0. -1.
         22    1    3    3    0    0  0.85818116022E+01 -0.65293106299E+02 -0.31835768169E+02  0.73146109640E+02  0.00000000000E+00 0. -1.
</event>
<event>
 7    1  0.6103724E-006  0.1774604E+03  0.7818608E-02  0.1343392E+00
          2   -1    0    0  502    0  0.00000000000E+00  0.00000000000E+00  0.23242093364E+04  0.23242093364E+04  0.00000000000E+00 0. -1.
          1   -1    0    0  501    0 -0.00000000000E+00 -0.00000000000E+00 -0.75558843407E+02  0.75558843407E+02  0.00000000000E+00 0. -1.
         25    2    1    2    0    0  0.10774097199E+03 -0.10250140734E+03  0.13595663230E+03  0.23711287378E+03  0.12499461386E+03 0.  0.
          2    1    1    2  501    0  0.16540058773E+02 -0.27193159800E+02 -0.92317923925E+01  0.33140118813E+02  0.00000000000E+00 0. -1.
          1    1    1    2  502    0 -0.12428103076E+03  0.12969456714E+03  0.21219256531E+04  0.21295151872E+04  0.00000000000E+00 0. -1.
         22    1    3    3    0    0  0.11435047064E+03 -0.35722148607E+02  0.11682701454E+03  0.16733395759E+03  0.00000000000E+00 0. -1.
         22    1    3    3    0    0 -0.66094986505E+01 -0.66779258733E+02  0.19129617765E+02  0.69778916193E+02  0.00000000000E+00 0. -1.
</event>
<event>
 7    1  0.6103724E-006  0.6583016E+02  0.7818608E-02  0.1455772E+00
          2   -1    0    0  502    0  0.00000000000E+00  0.00000000000E+00  0.98506908381E+03  0.98506908381E+03  0.00000000000E+00 0. -1.
          1   -1    0    0  501    0 -0.00000000000E+00 -0.00000000000E+00 -0.24399581890E+03  0.24399581890E+03  0.00000000000E+00 0. -1.
         25    2    1    2    0    0 -0.61916232018E+02 -0.73402069196E+01  0.33785935000E+03  0.36559813833E+03  0.12500223975E+03 0.  0.
          2    1    1    2  501    0  0.59874018413E+02 -0.27770162870E+02 -0.22489208712E+03  0.23437689919E+03  0.00000000000E+00 0. -1.
          1    1    1    2  502    0  0.20422136051E+01  0.35110369790E+02  0.62810600203E+03  0.62908986520E+03  0.00000000000E+00 0. -1.
         22    1    3    3    0    0 -0.24223856617E+02 -0.28577266993E+02  0.31393089670E+03  0.31615828840E+03  0.00000000000E+00 0. -1.
         22    1    3    3    0    0 -0.37692375402E+02  0.21237060074E+02  0.23928453297E+02  0.49439849931E+02  0.00000000000E+00 0. -1.
</event>
<event>
 7    1  0.6103724E-006  0.2420259E+03  0.7818608E-02  0.1186228E+00
          2   -1    0    0  502    0  0.00000000000E+00  0.00000000000E+00  0.26793169647E+03  0.26793169647E+03  0.00000000000E+00 0. -1.
          1   -1    0    0  501    0 -0.00000000000E+00 -0.00000000000E+00 -0.26681718419E+04  0.26681718419E+04  0.00000000000E+00 0. -1.
         25    2    1    2    0    0 -0.15393263705E+03  0.12060646594E+03 -0.76692336982E+02  0.24443497913E+03  0.12500227236E+03 0.  0.
          2    1    1    2  501    0 -0.10570917525E+03 -0.25372621438E+02 -0.24017965533E+04  0.24042555778E+04  0.00000000000E+00 0. -1.
          1    1    1    2  502    0  0.25964181230E+03 -0.95233844503E+02  0.78248744886E+02  0.28741298146E+03  0.00000000000E+00 0. -1.
         22    1    3    3    0    0 -0.13914010587E+03  0.14348937956E+03 -0.83074148002E+02  0.21644972897E+03  0.00000000000E+00 0.  1.
         22    1    3    3    0    0 -0.14792531187E+02 -0.22882913617E+02  0.63818110197E+01  0.27985250158E+02  0.00000000000E+00 0.  1.
</event>
<event>
 7    1  0.6103724E-006  0.6969185E+02  0.7818608E-02  0.1452709E+00
          2   -1    0    0  502    0  0.00000000000E+00  0.00000000000E+00  0.42077043781E+03  0.42077043781E+03  0.00000000000E+00 0. -1.
          1   -1    0    0  501    0 -0.00000000000E+00 -0.00000000000E+00 -0.81731723260E+03  0.81731723260E+03  0.00000000000E+00 0. -1.
         25    2    1    2    0    0  0.88868930521E+02 -0.38088609446E+02  0.26010063941E+03  0.30434534706E+03  0.12500127468E+03 0.  0.
          2    1    1    2  501    0 -0.68730109662E+02  0.10726438648E+02 -0.79156357546E+03  0.79461423248E+03  0.00000000000E+00 0. -1.
          1    1    1    2  502    0 -0.20138820859E+02  0.27362170798E+02  0.13491614126E+03  0.13912809087E+03  0.00000000000E+00 0. -1.
         22    1    3    3    0    0 -0.25146723395E+00 -0.58052453405E+02  0.55626357164E+02  0.80401754915E+02  0.00000000000E+00 0. -1.
         22    1    3    3    0    0  0.89120397755E+02  0.19963843959E+02  0.20447428225E+03  0.22394359214E+03  0.00000000000E+00 0. -1.
</event>
<event>
 7    1  0.6103724E-006  0.5353889E+02  0.7818608E-02  0.1490311E+00
          2   -1    0    0  502    0  0.00000000000E+00  0.00000000000E+00  0.35999910272E+03  0.35999910272E+03  0.00000000000E+00 0. -1.
          1   -1    0    0  501    0 -0.00000000000E+00 -0.00000000000E+00 -0.73259454240E+03  0.73259454240E+03  0.00000000000E+00 0. -1.
         25    2    1    2    0    0  0.38700391528E+02  0.41933033915E+02 -0.19400146946E+03  0.23773219497E+03  0.12499570686E+03 0.  0.
          2    1    1    2  501    0 -0.31877708901E+02  0.11238156138E+02 -0.51404448597E+03  0.51515455742E+03  0.00000000000E+00 0. -1.
          1    1    1    2  502    0 -0.68226826267E+01 -0.53171190053E+02  0.33545051575E+03  0.33970689273E+03  0.00000000000E+00 0. -1.
         22    1    3    3    0    0  0.13478336865E+02 -0.43796278882E+02 -0.86938842806E+02  0.98275846458E+02  0.00000000000E+00 0.  1.
         22    1    3    3    0    0  0.25222054663E+02  0.85729312797E+02 -0.10706262665E+03  0.13945634851E+03  0.00000000000E+00 0.  1.
</event>
<event>
 7    1  0.6103724E-006  0.4534259E+02  0.7818608E-02  0.1500897E+00
          2   -1    0    0  502    0  0.00000000000E+00  0.00000000000E+00  0.85410770499E+03  0.85410770499E+03  0.00000000000E+00 0. -1.
          1   -1    0    0  501    0 -0.00000000000E+00 -0.00000000000E+00 -0.16783867147E+03  0.16783867147E+03  0.00000000000E+00 0. -1.
         25    2    1    2    0    0 -0.24316181018E+02  0.95627433941E+01  0.20323209024E+03  0.24002537391E+03  0.12500469950E+03 0.  0.
          2    1    1    2  501    0  0.11344837448E+02  0.35316794143E+02 -0.14626093290E+03  0.15089149008E+03  0.00000000000E+00 0. -1.
          1    1    1    2  502    0  0.12971343570E+02 -0.44879537537E+02  0.62929787618E+03  0.63102951247E+03  0.00000000000E+00 0. -1.
         22    1    3    3    0    0 -0.46334916433E+02  0.43702611592E+02  0.18469930019E+03  0.19537316661E+03  0.00000000000E+00 0. -1.
         22    1    3    3    0    0  0.22018735415E+02 -0.34139868198E+02  0.18532790049E+02  0.44652207301E+02  0.00000000000E+00 0. -1.
</event>
<event>
 7    1  0.6103724E-006  0.3546270E+02  0.7818608E-02  0.1544886E+00
          2   -1    0    0  502    0  0.00000000000E+00  0.00000000000E+00  0.15291086190E+04  0.15291086190E+04  0.00000000000E+00 0. -1.
          1   -1    0    0  501    0 -0.00000000000E+00 -0.00000000000E+00 -0.35773322588E+02  0.35773322588E+02  0.00000000000E+00 0. -1.
         25    2    1    2    0    0  0.14168975424E+01 -0.21731546279E+02  0.10067383668E+04  0.10147023902E+04  0.12499813508E+03 0.  0.
          2    1    1    2  501    0 -0.34514796994E+02  0.89984274095E+01 -0.20969434527E+02  0.41375839469E+02  0.00000000000E+00 0. -1.
          1    1    1    2  502    0  0.33097899452E+02  0.12733118869E+02  0.50756636413E+03  0.50880371192E+03  0.00000000000E+00 0. -1.
         22    1    3    3    0    0 -0.57742788072E+02 -0.14776711002E+02  0.67767139661E+03  0.68028751462E+03  0.00000000000E+00 0. -1.
         22    1    3    3    0    0  0.59159685614E+02 -0.69548352766E+01  0.32906697020E+03  0.33441487558E+03  0.00000000000E+00 0. -1.
</event>
<event>
 7    1  0.6103724E-006  0.9033267E+02  0.7818608E-02  0.1338443E+00
          2   -1    0    0  502    0  0.00000000000E+00  0.00000000000E+00  0.46062576736E+03  0.46062576736E+03  0.00000000000E+00 0. -1.
          1   -1    0    0  501    0 -0.00000000000E+00 -0.00000000000E+00 -0.35816949196E+03  0.35816949196E+03  0.00000000000E+00 0. -1.
         25    2    1    2    0    0 -0.14014747245E+02  0.78191538681E+02 -0.71090727040E+01  0.14827800739E+03  0.12500199478E+03 0.  0.
          2    1    1    2  501    0 -0.51246385468E+02 -0.78555916989E+02 -0.26976941541E+03  0.28560945644E+03  0.00000000000E+00 0. -1.
          1    1    1    2  502    0  0.65261132713E+02  0.36437830717E+00  0.37933476351E+03  0.38490779548E+03  0.00000000000E+00 0. -1.
         22    1    3    3    0    0  0.48638215039E+02  0.26803576990E+02  0.25273836651E+02  0.61015362989E+02  0.00000000000E+00 0. -1.
         22    1    3    3    0    0 -0.62652962284E+02  0.51387961692E+02 -0.32382909355E+02  0.87262644402E+02  0.00000000000E+00 0. -1.
</event>
<event>
 7    1  0.6103724E-006  0.6926952E+02  0.7818608E-02  0.1383648E+00
          2   -1    0    0  502    0  0.00000000000E+00  0.00000000000E+00  0.13750376125E+03  0.13750376125E+03  0.00000000000E+00 0. -1.
          1   -1    0    0  501    0 -0.00000000000E+00 -0.00000000000E+00 -0.33434194949E+03  0.33434194949E+03  0.00000000000E+00 0. -1.
         25    2    1    2    0    0  0.93637964950E+02  0.75926949549E+02 -0.10568929881E+02  0.17398148110E+03  0.12499953336E+03 0.  0.
          2    1    1    2  501    0 -0.40163235012E+02 -0.52860666121E+02 -0.22052356618E+03  0.23029975838E+03  0.00000000000E+00 0. -1.
          1    1    1    2  502    0 -0.53474729939E+02 -0.23066283428E+02  0.34254307818E+02  0.67564471265E+02  0.00000000000E+00 0. -1.
         22    1    3    3    0    0  0.69565887399E+02 -0.21582191657E+02  0.12826075641E+01  0.72848121242E+02  0.00000000000E+00 0. -1.
         22    1    3    3    0    0  0.24072077552E+02  0.97509141206E+02 -0.11851537445E+02  0.10113335986E+03  0.00000000000E+00 0. -1.
</event>
<event>
 7    1  0.6103724E-006  0.1221045E+03  0.7818608E-02  0.1293261E+00
          2   -1    0    0  502    0  0.00000000000E+00  0.00000000000E+00  0.12938412961E+04  0.12938412961E+04  0.00000000000E+00 0. -1.
          1   -1    0    0  501    0 -0.00000000000E+00 -0.00000000000E+00 -0.40666026914E+03  0.40666026914E+03  0.00000000000E+00 0. -1.
         25    2    1    2    0    0  0.14043034340E+03 -0.12128842102E+03  0.14669118652E+03  0.26753481536E+03  0.12500004323E+03 0.  0.
          2    1    1    2  501    0 -0.10354299077E+03  0.58887717992E+02 -0.33473683283E+03  0.35529939702E+03  0.00000000000E+00 0. -1.
          1    1    1    2  502    0 -0.36887352625E+02  0.62400703030E+02  0.10752266733E+04  0.10776673529E+04  0.00000000000E+00 0. -1.
         22    1    3    3    0    0  0.54383958043E+01 -0.38125733172E+02 -0.14765218610E+02  0.41245113158E+02  0.00000000000E+00 0.  1.
         22    1    3    3    0    0  0.13499194760E+03 -0.83162687849E+02  0.16145640513E+03  0.22628970220E+03  0.00000000000E+00 0.  1.
</event>
<event>
 7    1  0.6103724E-006  0.7674449E+02  0.7818608E-02  0.1491069E+00
          2   -1    0    0  502    0  0.00000000000E+00  0.00000000000E+00  0.21049936076E+04  0.21049936076E+04  0.00000000000E+00 0. -1.
          1   -1    0    0  501    0 -0.00000000000E+00 -0.00000000000E+00 -0.12046772090E+04  0.12046772090E+04  0.00000000000E+00 0. -1.
         25    2    1    2    0    0  0.58878879569E+02  0.79336192605E+02  0.33732180506E+03  0.37305585688E+03  0.12499487296E+03 0.  0.
          2    1    1    2  501    0 -0.10778706174E+02 -0.20832887603E+02 -0.11858745943E+04  0.11861065480E+04  0.00000000000E+00 0. -1.
          1    1    1    2  502    0 -0.48100173395E+02 -0.58503305002E+02  0.17488691878E+04  0.17505084117E+04  0.00000000000E+00 0. -1.
         22    1    3    3    0    0  0.50427390355E+01 -0.83807609476E+01 -0.80546966151E+01  0.12670615952E+02  0.00000000000E+00 0.  1.
         22    1    3    3    0    0  0.53836140533E+02  0.87716953552E+02  0.34537650168E+03  0.36038524093E+03  0.00000000000E+00 0.  1.
</event>
<event>
 7    1  0.6103724E-006  0.5915054E+02  0.7818608E-02  0.1431975E+00
          2   -1    0    0  502    0  0.00000000000E+00  0.00000000000E+00  0.29827239775E+03  0.29827239775E+03  0.00000000000E+00 0. -1.
          1   -1    0    0  501    0 -0.00000000000E+00 -0.00000000000E+00 -0.14619301055E+03  0.14619301055E+03  0.00000000000E+00 0. -1.
         25    2    1    2    0    0 -0.10151422684E+02 -0.67329320779E+02  0.16457299020E+03  0.21759005877E+03  0.12499950301E+03 0.  0.
          2    1    1    2  501    0 -0.33015215726E+02  0.49474007054E+02 -0.10645409657E+03  0.12194325123E+03  0.00000000000E+00 0. -1.
          1    1    1    2  502    0  0.43166638410E+02  0.17855313724E+02  0.93960493572E+02  0.10493209829E+03  0.00000000000E+00 0. -1.
         22    1    3    3    0    0  0.49206853789E+02 -0.66489278466E+02  0.89274855217E+02  0.12170512884E+03  0.00000000000E+00 0. -1.
         22    1    3    3    0    0 -0.59358276473E+02 -0.84004231266E+00  0.75298134985E+02  0.95884929938E+02  0.00000000000E+00 0. -1.
</event>
<event>
 7    1  0.7083337E-006  0.7028866E+02  0.7818608E-02  0.1476768E+00
          2   -1    0    0  502    0  0.00000000000E+00  0.00000000000E+00  0.12338337431E+04  0.12338337431E+04  0.00000000000E+00 0. -1.
          1   -1    0    0  501    0 -0.00000000000E+00 -0.00000000000E+00 -0.24651839649E+04  0.24651839649E+04  0.00000000000E+00 0. -1.
         25    2    1    2    0    0  0.70943647089E+02  0.62754343673E+02 -0.45143760795E+03  0.47790377135E+03  0.12499996834E+03 0.  0.
          2    1    1    2  501    0 -0.11042708577E+02 -0.26075363228E+02 -0.19994024746E+04  0.19996029909E+04  0.00000000000E+00 0. -1.
          1    1    1    2  502    0 -0.59900938512E+02 -0.36678980444E+02  0.12194898607E+04  0.12215109457E+04  0.00000000000E+00 0. -1.
         22    1    3    3    0    0  0.16613499860E+02  0.26931970357E+02 -0.12268126062E+02  0.33938861530E+02  0.00000000000E+00 0. -1.
         22    1    3    3    0    0  0.54330147229E+02  0.35822373315E+02 -0.43916948189E+03  0.44396490982E+03  0.00000000000E+00 0. -1.
</event>
<event>
 7    1  0.6103724E-006  0.5980802E+02  0.7818608E-02  0.1479735E+00
          2   -1    0    0  502    0  0.00000000000E+00  0.00000000000E+00  0.95086354747E+03  0.95086354747E+03  0.00000000000E+00 0. -1.
          1   -1    0    0  501    0 -0.00000000000E+00 -0.00000000000E+00 -0.72345451047E+02  0.72345451047E+02  0.00000000000E+00 0. -1.
         25    2    1    2    0    0  0.41433893303E+02  0.35595456033E+02  0.68866825354E+03  0.70204839440E+03  0.12499672254E+03 0.  0.
          2    1    1    2  501    0  0.23481336872E+02 -0.22596107401E+02 -0.56961405963E+02  0.65624378246E+02  0.00000000000E+00 0. -1.
          1    1    1    2  502    0 -0.64915230175E+02 -0.12999348632E+02  0.24681124885E+03  0.25553622587E+03  0.00000000000E+00 0. -1.
         22    1    3    3    0    0  0.11229241403E+02  0.76660382501E+02  0.29145496107E+03  0.30157736062E+03  0.00000000000E+00 0.  1.
         22    1    3    3    0    0  0.30204651900E+02 -0.41064926469E+02  0.39721329247E+03  0.40047103378E+03  0.00000000000E+00 0.  1.
</event>
<event>
 7    1  0.6103724E-006  0.9553175E+02  0.7818608E-02  0.1414526E+00
          2   -1    0    0  502    0  0.00000000000E+00  0.00000000000E+00  0.38472573300E+03  0.38472573300E+03  0.00000000000E+00 0. -1.
          1   -1    0    0  501    0 -0.00000000000E+00 -0.00000000000E+00 -0.10409788166E+04  0.10409788166E+04  0.00000000000E+00 0. -1.
         25    2    1    2    0    0 -0.67054294759E+02 -0.60325822182E+02  0.19887983140E+03  0.25162231696E+03  0.12500047915E+03 0.  0.
          2    1    1    2  501    0  0.18112522094E+02 -0.27653361008E+02 -0.99841762327E+03  0.99896472525E+03  0.00000000000E+00 0. -1.
          1    1    1    2  502    0  0.48941772665E+02  0.87979183191E+02  0.14328470824E+03  0.17511750741E+03  0.00000000000E+00 0. -1.
         22    1    3    3    0    0 -0.24614396512E+02 -0.47406985606E+02  0.20023660228E+03  0.20723896277E+03  0.00000000000E+00 0.  1.
         22    1    3    3    0    0 -0.42439898247E+02 -0.12918836576E+02 -0.13567708757E+01  0.44383354187E+02  0.00000000000E+00 0.  1.
</event>
<event>
 7    1  0.6103724E-006  0.8499008E+02  0.7818608E-02  0.1492977E+00
          2   -1    0    0  502    0  0.00000000000E+00  0.00000000000E+00  0.15204780116E+04  0.15204780116E+04  0.00000000000E+00 0. -1.
          1   -1    0    0  501    0 -0.00000000000E+00 -0.00000000000E+00 -0.17655293517E+02  0.17655293517E+02  0.00000000000E+00 0. -1.
         25    2    1    2    0    0 -0.32628626554E+02 -0.72173699590E+02  0.75655846829E+03  0.77089522472E+03  0.12500024545E+03 0.  0.
          2    1    1    2  501    0 -0.20733343677E+02  0.26464833591E+01  0.59195738856E+01  0.21723645393E+02  0.00000000000E+00 0. -1.
          1    1    1    2  502    0  0.53361970231E+02  0.69527216231E+02  0.74034467595E+03  0.74551443505E+03  0.00000000000E+00 0. -1.
         22    1    3    3    0    0 -0.77780379675E+02 -0.65224428582E+02  0.48338192920E+03  0.49392519982E+03  0.00000000000E+00 0. -1.
         22    1    3    3    0    0  0.45151753121E+02 -0.69492710081E+01  0.27317653909E+03  0.27697002489E+03  0.00000000000E+00 0. -1.
</event>
<event>
 7    1  0.6103724E-006  0.1276901E+03  0.7818608E-02  0.1407090E+00
          2   -1    0    0  502    0  0.00000000000E+00  0.00000000000E+00  0.32071839015E+03  0.32071839015E+03  0.00000000000E+00 0. -1.
          1   -1    0    0  501    0 -0.00000000000E+00 -0.00000000000E+00 -0.57025781931E+03  0.57025781931E+03  0.00000000000E+00 0. -1.
         25    2    1    2    0    0  0.58605125084E+02 -0.98644540194E+02  0.62050759927E+01  0.16977616650E+03  0.12498054948E+03 0.  0.
          2    1    1    2  501    0  0.26184198313E+02 -0.11039175964E+01 -0.46966703974E+03  0.47039766060E+03  0.00000000000E+00 0. -1.
          1    1    1    2  502    0 -0.84789323398E+02  0.99748457790E+02  0.21392253458E+03  0.25080238236E+03  0.00000000000E+00 0. -1.
         22    1    3    3    0    0  0.86459406369E+01  0.28131226630E+02 -0.12984698218E+02  0.32167073056E+02  0.00000000000E+00 0. -1.
         22    1    3    3    0    0  0.49959184448E+02 -0.12677576682E+03  0.19189774211E+02  0.13760909344E+03  0.00000000000E+00 0. -1.
</event>
<event>
 7    1  0.6103724E-006  0.6392382E+02  0.7818608E-02  0.1416965E+00
          2   -1    0    0  502    0  0.00000000000E+00  0.00000000000E+00  0.36613774858E+02  0.36613774858E+02  0.00000000000E+00 0. -1.
          1   -1    0    0  501    0 -0.00000000000E+00 -0.00000000000E+00 -0.46641051921E+03  0.46641051921E+03  0.00000000000E+00 0. -1.
         25    2    1    2    0    0 -0.10643479007E+02 -0.29586261151E+02 -0.17151941140E+03  0.21455260160E+03  0.12500111948E+03 0.  0.
          2    1    1    2  501    0  0.52204368130E+02  0.54544146354E+02 -0.19236400809E+03  0.20665011871E+03  0.00000000000E+00 0. -1.
          1    1    1    2  502    0 -0.41560889123E+02 -0.24957885204E+02 -0.65913324858E+02  0.81821573759E+02  0.00000000000E+00 0. -1.
         22    1    3    3    0    0 -0.67610676763E+02 -0.15499186624E+02 -0.80581198342E+02  0.10632383517E+03  0.00000000000E+00 0.  1.
         22    1    3    3    0    0  0.56967197757E+02 -0.14087074527E+02 -0.90938213061E+02  0.10822876643E+03  0.00000000000E+00 0.  1.
</event>
<event>
 7    1  0.6103724E-006  0.1573288E+03  0.7818608E-02  0.1244348E+00
          2   -1    0    0  502    0  0.00000000000E+00  0.00000000000E+00  0.40923223326E+03  0.40923223326E+03  0.00000000000E+00 0. -1.
          1   -1    0    0  501    0 -0.00000000000E+00 -0.00000000000E+00 -0.12538295319E+04  0.12538295319E+04  0.00000000000E+00 0. -1.
         25    2    1    2    0    0 -0.17434937683E+03 -0.37644377550E+02 -0.20939926911E+03  0.30213844617E+03  0.12499912953E+03 0.  0.
          2    1    1    2  501    0  0.58449522662E+02 -0.68935822120E+02 -0.97879925648E+03  0.98296311160E+03  0.00000000000E+00 0. -1.
          1    1    1    2  502    0  0.11589985417E+03  0.10658019967E+03  0.34360122699E+03  0.37796020736E+03  0.00000000000E+00 0. -1.
         22    1    3    3    0    0 -0.14318453661E+03 -0.86237019616E+01 -0.21574943930E+03  0.25908299890E+03  0.00000000000E+00 0.  1.
         22    1    3    3    0    0 -0.31164840222E+02 -0.29020675588E+02  0.63501701929E+01  0.43055447264E+02  0.00000000000E+00 0.  1.
</event>
<event>
 7    1  0.6103724E-006  0.7927763E+02  0.7818608E-02  0.1361371E+00
          2   -1    0    0  502    0  0.00000000000E+00  0.00000000000E+00  0.16984799175E+03  0.16984799175E+03  0.00000000000E+00 0. -1.
          1   -1    0    0  501    0 -0.00000000000E+00 -0.00000000000E+00 -0.93790077418E+03  0.93790077418E+03  0.00000000000E+00 0. -1.
         25    2    1    2    0    0 -0.89673199502E+02 -0.10345391796E+03 -0.16581673229E+03  0.24872317882E+03  0.12499614045E+03 0.  0.
          2    1    1    2  501    0  0.43665141845E+02  0.42807797526E+02 -0.71793277212E+03  0.72053217654E+03  0.00000000000E+00 0. -1.
          1    1    1    2  502    0  0.46008057657E+02  0.60646120436E+02  0.11569672198E+03  0.13849341057E+03  0.00000000000E+00 0. -1.
         22    1    3    3    0    0 -0.71255942142E+02 -0.10661891176E+03 -0.18291801977E+03  0.22339204013E+03  0.00000000000E+00 0. -1.
         22    1    3    3    0    0 -0.18417257360E+02  0.31649938000E+01  0.17101287476E+02  0.25331138699E+02  0.00000000000E+00 0. -1.
</event>
<event>
 7    1  0.6103724E-006  0.1130569E+03  0.7818608E-02  0.1364826E+00
          2   -1    0    0  502    0  0.00000000000E+00  0.00000000000E+00  0.19284065583E+04  0.19284065583E+04  0.00000000000E+00 0. -1.
          1   -1    0    0  501    0 -0.00000000000E+00 -0.00000000000E+00 -0.15090728432E+03  0.15090728432E+03  0.00000000000E+00 0. -1.
         25    2    1    2    0    0 -0.33787456250E+02  0.96498342665E+02  0.40253576642E+03  0.43371994377E+03  0.12499769614E+03 0.  0.
          2    1    1    2  501    0 -0.40804262200E+02 -0.83871323670E+01 -0.12984494398E+03  0.13636363621E+03  0.00000000000E+00 0. -1.
          1    1    1    2  502    0  0.74591718449E+02 -0.88111210298E+02  0.15048084515E+04  0.15092302626E+04  0.00000000000E+00 0. -1.
         22    1    3    3    0    0  0.32397080151E+02  0.87083154823E+02  0.20223789585E+03  0.22256058315E+03  0.00000000000E+00 0.  1.
         22    1    3    3    0    0 -0.66184536400E+02  0.94151878427E+01  0.20029787058E+03  0.21115936062E+03  0.00000000000E+00 0.  1.
</event>
<event>
 7    1  0.6103724E-006  0.1341883E+03  0.7818608E-02  0.1365040E+00
          2   -1    0    0  502    0  0.00000000000E+00  0.00000000000E+00  0.17819904460E+04  0.17819904460E+04  0.00000000000E+00 0. -1.
          1   -1    0    0  501    0 -0.00000000000E+00 -0.00000000000E+00 -0.28816014117E+02  0.28816014117E+02  0.00000000000E+00 0. -1.
         25    2    1    2    0    0 -0.13918407659E+03  0.61648986272E+02  0.68308946180E+03  0.71092169483E+03  0.12500255464E+03 0.  0.
          2    1    1    2  501    0  0.32773875600E+02  0.12381013430E+02  0.17161763953E+02  0.39012082198E+02  0.00000000000E+00 0. -1.
          1    1    1    2  502    0  0.10641020099E+03 -0.74029999702E+02  0.10529232061E+04  0.10608726831E+04  0.00000000000E+00 0. -1.
         22    1    3    3    0    0 -0.11741023459E+02 -0.27407565416E+02  0.22943751581E+03  0.23136680819E+03  0.00000000000E+00 0.  1.
         22    1    3    3    0    0 -0.12744305313E+03  0.89056551687E+02  0.45365194600E+03  0.47955488663E+03  0.00000000000E+00 0.  1.
</event>
<event>
 7    1  0.6103724E-006  0.1163217E+03  0.7818608E-02  0.1323137E+00
          2   -1    0    0  502    0  0.00000000000E+00  0.00000000000E+00  0.22019007551E+03  0.22019007551E+03  0.00000000000E+00 0. -1.
          1   -1    0    0  501    0 -0.00000000000E+00 -0.00000000000E+00 -0.66174415255E+03  0.66174415255E+03  0.00000000000E+00 0. -1.
         25    2    1    2    0    0  0.12484260252E+02 -0.10093117062E+03 -0.73304256178E+02  0.17702887621E+03  0.12499100400E+03 0.  0.
          2    1    1    2  501    0 -0.56842639832E+02 -0.11409378568E+02 -0.51306659291E+03  0.51633185877E+03  0.00000000000E+00 0. -1.
          1    1    1    2  502    0  0.44358379579E+02  0.11234054919E+03  0.14481677204E+03  0.18857349309E+03  0.00000000000E+00 0. -1.
         22    1    3    3    0    0  0.63381994113E+02 -0.21754825555E+02 -0.30966439479E+02  0.73820525511E+02  0.00000000000E+00 0.  1.
         22    1    3    3    0    0 -0.50897733861E+02 -0.79176345070E+02 -0.42337816699E+02  0.10320835070E+03  0.00000000000E+00 0.  1.
</event>
<event>
 7    1  0.6103724E-006  0.7948686E+02  0.7818608E-02  0.1506388E+00
          2   -1    0    0  502    0  0.00000000000E+00  0.00000000000E+00  0.35205489726E+02  0.35205489726E+02  0.00000000000E+00 0. -1.
          1   -1    0    0  501    0 -0.00000000000E+00 -0.00000000000E+00 -0.12897900540E+04  0.12897900540E+04  0.00000000000E+00 0. -1.
         25    2    1    2    0    0  0.21992224160E+02  0.83669127269E+02 -0.30297544810E+03  0.33897253427E+03  0.12499630417E+03 0.  0.
          2    1    1    2  501    0 -0.36978169313E+02 -0.69856822274E+02 -0.96052942743E+03  0.96377598101E+03  0.00000000000E+00 0. -1.
          1    1    1    2  502    0  0.14985945153E+02 -0.13812304995E+02  0.89203112576E+01  0.22247028439E+02  0.00000000000E+00 0. -1.
         22    1    3    3    0    0 -0.11915739498E+00  0.58855472500E+02 -0.29987062798E+03  0.30559184277E+03  0.00000000000E+00 0.  1.
         22    1    3    3    0    0  0.22111381555E+02  0.24813654769E+02 -0.31048201224E+01  0.33380691503E+02  0.00000000000E+00 0.  1.
</event>
<event>
 7    1  0.6103724E-006  0.8788948E+02  0.7818608E-02  0.1431443E+00
          2   -1    0    0  502    0  0.00000000000E+00  0.00000000000E+00  0.65732236655E+03  0.65732236655E+03  0.00000000000E+00 0. -1.
          1   -1    0    0  501    0 -0.00000000000E+00 -0.00000000000E+00 -0.85930751110E+03  0.85930751110E+03  0.00000000000E+00 0. -1.
         25    2    1    2    0    0  0.67551452776E+02  0.26361723939E+02 -0.72104862503E+02  0.16149389935E+03  0.12499211603E+03 0.  0.
          2    1    1    2  501    0 -0.67620885305E+02 -0.57927101666E+02 -0.73942890493E+03  0.74477059467E+03  0.00000000000E+00 0. -1.
          1    1    1    2  502    0  0.69432529192E-01  0.31565377727E+02  0.60954862288E+03  0.61036538364E+03  0.00000000000E+00 0. -1.
         22    1    3    3    0    0 -0.33791079710E+02  0.78911857963E+01  0.17464849022E+01  0.34744180675E+02  0.00000000000E+00 0. -1.
         22    1    3    3    0    0  0.10134253249E+03  0.18470538143E+02 -0.73851347405E+02  0.12674971867E+03  0.00000000000E+00 0. -1.
</event>
<event>
 7    1  0.6103724E-006  0.6848922E+02  0.7818608E-02  0.1399132E+00
          2   -1    0    0  502    0  0.00000000000E+00  0.00000000000E+00  0.68429979440E+03  0.68429979440E+03  0.00000000000E+00 0. -1.
          1   -1    0    0  501    0 -0.00000000000E+00 -0.00000000000E+00 -0.21273293426E+03  0.21273293426E+03  0.00000000000E+00 0. -1.
         25    2    1    2    0    0  0.22395787262E+02 -0.10913649765E+03  0.14816995158E+03  0.22358824833E+03  0.12500009533E+03 0.  0.
          2    1    1    2  501    0 -0.28945695950E+02  0.43226972015E+02 -0.16889051923E+03  0.17672133971E+03  0.00000000000E+00 0. -1.
          1    1    1    2  502    0  0.65499086877E+01  0.65909525631E+02  0.49228742779E+03  0.49672314062E+03  0.00000000000E+00 0. -1.
         22    1    3    3    0    0  0.54970348515E+01 -0.91892464459E+02  0.21362643983E+02  0.94502936327E+02  0.00000000000E+00 0.  1.
         22    1    3    3    0    0  0.16898752411E+02 -0.17244033187E+02  0.12680730760E+03  0.12908531200E+03  0.00000000000E+00 0.  1.
</event>
<event>
 7    1  0.6103724E-006  0.1099255E+03  0.7818608E-02  0.1355268E+00
          2   -1    0    0  502    0  0.00000000000E+00  0.00000000000E+00  0.12553410779E+04  0.12553410779E+04  0.00000000000E+00 0. -1.
          1   -1    0    0  501    0 -0.00000000000E+00 -0.00000000000E+00 -0.54117492956E+03  0.54117492956E+03  0.00000000000E+00 0. -1.
         25    2    1    2    0    0  0.13996788779E+03  0.53577830493E+02  0.12104978283E+03  0.22965111848E+03  0.12499997105E+03 0.  0.
          2    1    1    2  501    0 -0.46424635682E+02  0.44752241714E+00 -0.48305731691E+03  0.48528323533E+03  0.00000000000E+00 0. -1.
          1    1    1    2  502    0 -0.93543252109E+02 -0.54025352910E+02  0.10761736824E+04  0.10815816537E+04  0.00000000000E+00 0. -1.
         22    1    3    3    0    0  0.39282737185E+00  0.53869230483E+02  0.20544581090E+02  0.57655252305E+02  0.00000000000E+00 0.  1.
         22    1    3    3    0    0  0.13957506042E+03 -0.29139999052E+00  0.10050520174E+03  0.17199586617E+03  0.00000000000E+00 0.  1.
</event>
<event>
 7    1  0.6103724E-006  0.4454811E+02  0.7818608E-02  0.1515432E+00
          2   -1    0    0  502    0  0.00000000000E+00  0.00000000000E+00  0.57230394402E+02  0.57230394402E+02  0.00000000000E+00 0. -1.
          1   -1    0    0  501    0 -0.00000000000E+00 -0.00000000000E+00 -0.14942476223E+04  0.14942476223E+04  0.00000000000E+00 0. -1.
         25    2    1    2    0    0  0.11000489742E+02 -0.14590360977E+02 -0.55283883152E+03  0.56708866464E+03  0.12499956209E+03 0.  0.
          2    1    1    2  501    0 -0.15957515729E+02 -0.30254543452E+02 -0.92374600987E+03  0.92437907292E+03  0.00000000000E+00 0. -1.
          1    1    1    2  502    0  0.49570259871E+01  0.44844904429E+02  0.39567613515E+02  0.60010279112E+02  0.00000000000E+00 0. -1.
         22    1    3    3    0    0  0.55501457411E+02  0.16357187018E+02 -0.15269675014E+03  0.16329196810E+03  0.00000000000E+00 0. -1.
         22    1    3    3    0    0 -0.44500967668E+02 -0.30947547995E+02 -0.40014208137E+03  0.40379669654E+03  0.00000000000E+00 0. -1.
</event>
<event>
 7    1  0.6103724E-006  0.8581120E+02  0.7818608E-02  0.1338163E+00
          2   -1    0    0  502    0  0.00000000000E+00  0.00000000000E+00  0.12129939590E+04  0.12129939590E+04  0.00000000000E+00 0. -1.
          1   -1    0    0  501    0 -0.00000000000E+00 -0.00000000000E+00 -0.22180761372E+03  0.22180761372E+03  0.00000000000E+00 0. -1.
         25    2    1    2    0    0 -0.32557976295E+02 -0.97098936779E+02  0.30976260191E+03  0.34937997005E+03  0.12500107435E+03 0.  0.
          2    1    1    2  501    0 -0.33913482651E+02  0.79089344251E+02 -0.19141568230E+03  0.20986951210E+03  0.00000000000E+00 0. -1.
          1    1    1    2  502    0  0.66471458946E+02  0.18009592527E+02  0.87283942571E+03  0.87555209060E+03  0.00000000000E+00 0. -1.
         22    1    3    3    0    0 -0.43565914323E+02 -0.10713607641E+03  0.15241194759E+03  0.19132571580E+03  0.00000000000E+00 0.  1.
         22    1    3    3    0    0  0.11007938028E+02  0.10037139632E+02  0.15735065432E+03  0.15805425425E+03  0.00000000000E+00 0.  1.
</event>
<event>
 7    1  0.7064133E-006  0.1619197E+03  0.7818608E-02  0.1233604E+00
          2   -1    0    0  502    0  0.00000000000E+00  0.00000000000E+00  0.11162514510E+04  0.11162514510E+04  0.00000000000E+00 0. -1.
          1   -1    0    0  501    0 -0.00000000000E+00 -0.00000000000E+00 -0.12450412421E+04  0.12450412421E+04  0.00000000000E+00 0. -1.
         25    2    1    2    0    0  0.60586436309E+02 -0.27822059394E+02 -0.36175214966E+03  0.38850297631E+03  0.12500064628E+03 0.  0.
          2    1    1    2  501    0  0.76660271801E+02 -0.60984894501E+02 -0.86106362109E+03  0.86661785938E+03  0.00000000000E+00 0. -1.
          1    1    1    2  502    0 -0.13724670811E+03  0.88806953895E+02  0.10940259796E+04  0.11061718574E+04  0.00000000000E+00 0. -1.
         22    1    3    3    0    0  0.74085727317E+02 -0.78411084999E+01 -0.35600141652E+03  0.36371305522E+03  0.00000000000E+00 0. -1.
         22    1    3    3    0    0 -0.13499291007E+02 -0.19980950894E+02 -0.57507331403E+01  0.24789921097E+02  0.00000000000E+00 0. -1.
</event>
<event>
 7    1  0.6103724E-006  0.9546449E+02  0.7818608E-02  0.1320015E+00
          2   -1    0    0  502    0  0.00000000000E+00  0.00000000000E+00  0.13135666156E+04  0.13135666156E+04  0.00000000000E+00 0. -1.
          1   -1    0    0  501    0 -0.00000000000E+00 -0.00000000000E+00 -0.19918408628E+03  0.19918408628E+03  0.00000000000E+00 0. -1.
         25    2    1    2    0    0 -0.11414798114E+03 -0.45899794563E+02  0.58393505588E+03  0.60970615100E+03  0.12499955337E+03 0.  0.
          2    1    1    2  501    0  0.92451702458E+02 -0.23420325988E+02 -0.17209615060E+03  0.19675597579E+03  0.00000000000E+00 0. -1.
          1    1    1    2  502    0  0.21696278683E+02  0.69320120552E+02  0.70254362402E+03  0.70628857507E+03  0.00000000000E+00 0. -1.
         22    1    3    3    0    0 -0.12095515512E+03 -0.57497605831E+02  0.34037150032E+03  0.36577162610E+03  0.00000000000E+00 0.  1.
         22    1    3    3    0    0  0.68071739787E+01  0.11597811268E+02  0.24356355556E+03  0.24393452491E+03  0.00000000000E+00 0.  1.
</event>
<event>
 7    1  0.6103724E-006  0.1115377E+03  0.7818608E-02  0.1354100E+00
          2   -1    0    0  502    0  0.00000000000E+00  0.00000000000E+00  0.97734779619E+03  0.97734779619E+03  0.00000000000E+00 0. -1.
          1   -1    0    0  501    0 -0.00000000000E+00 -0.00000000000E+00 -0.10875003066E+04  0.10875003066E+04  0.00000000000E+00 0. -1.
         25    2    1    2    0    0  0.95241699123E+02 -0.10558984202E+03 -0.20691288329E+03  0.28046050282E+03  0.12499982553E+03 0.  0.
          2    1    1    2  501    0 -0.12405284127E+01  0.46193821482E+02 -0.83988993205E+03  0.84116021424E+03  0.00000000000E+00 0. -1.
          1    1    1    2  502    0 -0.94001170710E+02  0.59396020535E+02  0.93665030496E+03  0.94322738570E+03  0.00000000000E+00 0. -1.
         22    1    3    3    0    0  0.43159690723E+02 -0.19464173337E+02  0.32322756386E+01  0.47455880065E+02  0.00000000000E+00 0. -1.
         22    1    3    3    0    0  0.52082008400E+02 -0.86125668679E+02 -0.21014515893E+03  0.23300462275E+03  0.00000000000E+00 0. -1.
</event>
<event>
 7    1  0.6103724E-006  0.1198814E+03  0.7818608E-02  0.1424451E+00
          2   -1    0    0  502    0  0.00000000000E+00  0.00000000000E+00  0.57389368005E+03  0.57389368005E+03  0.00000000000E+00 0. -1.
          1   -1    0    0  501    0 -0.00000000000E+00 -0.00000000000E+00 -0.23877375037E+03  0.23877375037E+03  0.00000000000E+00 0. -1.
         25    2    1    2    0    0 -0.11256757258E+03 -0.69959586103E+02 -0.26933869268E+00  0.18218694737E+03  0.12500483657E+03 0.  0.
          2    1    1    2  501    0  0.88913739882E+02  0.75969856151E+02 -0.12399639194E+03  0.17044699292E+03  0.00000000000E+00 0. -1.
          1    1    1    2  502    0  0.23653832696E+02 -0.60102700483E+01  0.45938566030E+03  0.46003349013E+03  0.00000000000E+00 0. -1.
         22    1    3    3    0    0 -0.94139644358E+01 -0.78051628675E+02  0.28572517978E+01  0.78669202062E+02  0.00000000000E+00 0. -1.
         22    1    3    3    0    0 -0.10315360814E+03  0.80920425718E+01 -0.31265904905E+01  0.10351774531E+03  0.00000000000E+00 0. -1.
</event>
<event>
 7    1  0.8035797E-006  0.5976706E+02  0.7818608E-02  0.1443321E+00
          2   -1    0    0  502    0  0.00000000000E+00  0.00000000000E+00  0.10614359750E+04  0.10614359750E+04  0.00000000000E+00 0. -1.
          1   -1    0    0  501    0 -0.00000000000E+00 -0.00000000000E+00 -0.11680481491E+04  0.11680481491E+04  0.00000000000E+00 0. -1.
         25    2    1    2    0    0 -0.61196516257E+01 -0.17826864821E+02 -0.10246802877E+03  0.16272977981E+03  0.12500414822E+03 0.  0.
          2    1    1    2  501    0  0.47113267764E+01 -0.42199287343E+02 -0.10341392726E+04  0.10350106336E+04  0.00000000000E+00 0. -1.
          1    1    1    2  502    0  0.14083248493E+01  0.60026152164E+02  0.10299951273E+04  0.10317437107E+04  0.00000000000E+00 0. -1.
         22    1    3    3    0    0 -0.16529193078E+02  0.44221810105E+02 -0.60442546232E+01  0.47595333035E+02  0.00000000000E+00 0. -1.
         22    1    3    3    0    0  0.10409541452E+02 -0.62048674926E+02 -0.96423774149E+02  0.11513444678E+03  0.00000000000E+00 0. -1.
</event>
<event>
 7    1  0.6103724E-006  0.4107754E+02  0.7818608E-02  0.1572183E+00
          2   -1    0    0  502    0  0.00000000000E+00  0.00000000000E+00  0.42699051040E+03  0.42699051040E+03  0.00000000000E+00 0. -1.
          1   -1    0    0  501    0 -0.00000000000E+00 -0.00000000000E+00 -0.17745464783E+03  0.17745464783E+03  0.00000000000E+00 0. -1.
         25    2    1    2    0    0  0.33858760740E+02 -0.54264127271E+02 -0.12449032127E+02  0.14096443676E+03  0.12499993137E+03 0.  0.
          2    1    1    2  501    0 -0.26397550321E+02  0.29688762094E+02 -0.96354021123E+02  0.10422260141E+03  0.00000000000E+00 0. -1.
          1    1    1    2  502    0 -0.74612104183E+01  0.24575365177E+02  0.35833891583E+03  0.35925812006E+03  0.00000000000E+00 0. -1.
         22    1    3    3    0    0 -0.43679390365E+02  0.28733948992E+01 -0.83341581547E+01  0.44560113701E+02  0.00000000000E+00 0.  1.
         22    1    3    3    0    0  0.77538151104E+02 -0.57137522170E+02 -0.41148739727E+01  0.96404323058E+02  0.00000000000E+00 0.  1.
</event>
<event>
 7    1  0.6103724E-006  0.4982244E+02  0.7818608E-02  0.1501771E+00
          2   -1    0    0  502    0  0.00000000000E+00  0.00000000000E+00  0.32338731863E+04  0.32338731863E+04  0.00000000000E+00 0. -1.
          1   -1    0    0  501    0 -0.00000000000E+00 -0.00000000000E+00 -0.10524261001E+02  0.10524261001E+02  0.00000000000E+00 0. -1.
         25    2    1    2    0    0  0.18780604596E+02  0.62262919454E+02  0.62925379327E+03  0.64483657991E+03  0.12499798477E+03 0.  0.
          2    1    1    2  501    0 -0.30474850237E+02 -0.14048121186E+02  0.11079692588E+03  0.11576711532E+03  0.00000000000E+00 0. -1.
          1    1    1    2  502    0  0.11694245642E+02 -0.48214798268E+02  0.24832982061E+04  0.24837937521E+04  0.00000000000E+00 0. -1.
         22    1    3    3    0    0  0.42061967407E+02  0.49744373496E+02  0.13519665989E+03  0.15007281113E+03  0.00000000000E+00 0.  1.
         22    1    3    3    0    0 -0.23281362811E+02  0.12518545958E+02  0.49405713339E+03  0.49476376878E+03  0.00000000000E+00 0.  1.
</event>
<event>
 7    1  0.6103724E-006  0.1451414E+03  0.7818608E-02  0.1220368E+00
          2   -1    0    0  502    0  0.00000000000E+00  0.00000000000E+00  0.13860971401E+04  0.13860971401E+04  0.00000000000E+00 0. -1.
          1   -1    0    0  501    0 -0.00000000000E+00 -0.00000000000E+00 -0.11640927678E+04  0.11640927678E+04  0.00000000000E+00 0. -1.
         25    2    1    2    0    0 -0.49651122280E+02 -0.35528617445E+01  0.33810247350E+03  0.36388937036E+03  0.12499733798E+03 0.  0.
          2    1    1    2  501    0 -0.86836766194E+02  0.11629881261E+03 -0.11389908223E+04  0.11482012590E+04  0.00000000000E+00 0. -1.
          1    1    1    2  502    0  0.13648788847E+03 -0.11274595087E+03  0.10228927212E+04  0.10380992786E+04  0.00000000000E+00 0. -1.
         22    1    3    3    0    0 -0.81081457472E+02 -0.21451607088E+02  0.14569086089E+03  0.16810770696E+03  0.00000000000E+00 0.  1.
         22    1    3    3    0    0  0.31430335192E+02  0.17898745344E+02  0.19241161261E+03  0.19578166340E+03  0.00000000000E+00 0.  1.
</event>
<event>
 7    1  0.7857063E-006  0.7457863E+02  0.7818608E-02  0.1447274E+00
          2   -1    0    0  502    0  0.00000000000E+00  0.00000000000E+00  0.27079947828E+04  0.27079947828E+04  0.00000000000E+00 0. -1.
          1   -1    0    0  501    0 -0.00000000000E+00 -0.00000000000E+00 -0.12776595025E+04  0.12776595025E+04  0.00000000000E+00 0. -1.
         25    2    1    2    0    0 -0.87837174627E+01  0.10599805171E+03 -0.74672498194E+03  0.76454919579E+03  0.12499813387E+03 0.  0.
          2    1    1    2  501    0 -0.48190691157E+01 -0.32692109595E+02 -0.52098395411E+03  0.52203091661E+03  0.00000000000E+00 0. -1.
          1    1    1    2  502    0  0.13602786578E+02 -0.73305942111E+02  0.26980442164E+04  0.26990741729E+04  0.00000000000E+00 0. -1.
         22    1    3    3    0    0 -0.53174204903E+02  0.69070173191E+02 -0.60904207129E+03  0.61524826655E+03  0.00000000000E+00 0.  1.
         22    1    3    3    0    0  0.44390487440E+02  0.36927878516E+02 -0.13768291065E+03  0.14930092924E+03  0.00000000000E+00 0.  1.
</event>
<event>
 7    1  0.6103724E-006  0.4824865E+02  0.7818608E-02  0.1474214E+00
          2   -1    0    0  502    0  0.00000000000E+00  0.00000000000E+00  0.86872057218E+03  0.86872057218E+03  0.00000000000E+00 0. -1.
          1   -1    0    0  501    0 -0.00000000000E+00 -0.00000000000E+00 -0.29755800467E+03  0.29755800467E+03  0.00000000000E+00 0. -1.
         25    2    1    2    0    0 -0.80287392417E+01 -0.57884323691E+02  0.77684980220E+01  0.13819380178E+03  0.12498848629E+03 0.  0.
          2    1    1    2  501    0 -0.30572383504E+02  0.28810182266E+02 -0.22970507074E+03  0.23351470352E+03  0.00000000000E+00 0. -1.
          1    1    1    2  502    0  0.38601122745E+02  0.29074141426E+02  0.79309914023E+03  0.79457007155E+03  0.00000000000E+00 0. -1.
         22    1    3    3    0    0  0.18060510948E+01  0.35350976474E+02  0.24380387209E+02  0.42980886899E+02  0.00000000000E+00 0.  1.
         22    1    3    3    0    0 -0.98347903365E+01 -0.93235300165E+02 -0.16611889187E+02  0.95212914881E+02  0.00000000000E+00 0.  1.
</event>
<event>
 7    1  0.6103724E-006  0.4542183E+02  0.7818608E-02  0.1573009E+00
          2   -1    0    0  502    0  0.00000000000E+00  0.00000000000E+00  0.31590608644E+02  0.31590608644E+02  0.00000000000E+00 0. -1.
          1   -1    0    0  501    0 -0.00000000000E+00 -0.00000000000E+00 -0.15091796421E+04  0.15091796421E+04  0.00000000000E+00 0. -1.
         25    2    1    2    0    0  0.41459418168E+02  0.42292014736E+02 -0.30890508376E+03  0.33845915630E+03  0.12499900738E+03 0.  0.
          2    1    1    2  501    0 -0.18377522566E+02 -0.41210781749E+02 -0.11769164818E+04  0.11777811626E+04  0.00000000000E+00 0. -1.
          1    1    1    2  502    0 -0.23081895602E+02 -0.10812329869E+01  0.82325321279E+01  0.24529931810E+02  0.00000000000E+00 0. -1.
         22    1    3    3    0    0 -0.21536790007E+02 -0.33056352313E+02 -0.74283571941E+02  0.84110670027E+02  0.00000000000E+00 0. -1.
         22    1    3    3    0    0  0.62996208175E+02  0.75348367049E+02 -0.23462151182E+03  0.25434848627E+03  0.00000000000E+00 0. -1.
</event>
<event>
 7    1  0.6103724E-006  0.2039266E+03  0.7818608E-02  0.1254301E+00
          2   -1    0    0  502    0  0.00000000000E+00  0.00000000000E+00  0.90105574670E+03  0.90105574670E+03  0.00000000000E+00 0. -1.
          1   -1    0    0  501    0 -0.00000000000E+00 -0.00000000000E+00 -0.80721348387E+03  0.80721348387E+03  0.00000000000E+00 0. -1.
         25    2    1    2    0    0 -0.13097017738E+03 -0.21123532822E+03 -0.89511728816E+02  0.29224994392E+03  0.12499651544E+03 0.  0.
          2    1    1    2  501    0  0.58594559757E+02  0.23473441209E+02 -0.60199742366E+03  0.60529763172E+03  0.00000000000E+00 0. -1.
          1    1    1    2  502    0  0.72375617625E+02  0.18776188701E+03  0.78535141531E+03  0.81072165493E+03  0.00000000000E+00 0. -1.
         22    1    3    3    0    0 -0.13891410703E+03 -0.11597711448E+03 -0.43275753211E+02  0.18606614692E+03  0.00000000000E+00 0.  1.
         22    1    3    3    0    0  0.79439296495E+01 -0.95258213743E+02 -0.46235975605E+02  0.10618379699E+03  0.00000000000E+00 0.  1.
</event>
<event>
 7    1  0.6103724E-006  0.8655911E+02  0.7818608E-02  0.1315590E+00
          2   -1    0    0  502    0  0.00000000000E+00  0.00000000000E+00  0.59903221825E+03  0.59903221825E+03  0.00000000000E+00 0. -1.
          1   -1    0    0  501    0 -0.00000000000E+00 -0.00000000000E+00 -0.15630853934E+03  0.15630853934E+03  0.00000000000E+00 0. -1.
         25    2    1    2    0    0  0.74305659400E+02 -0.18298600315E+02  0.12085303613E+03  0.18996387033E+03  0.12499858358E+03 0.  0.
          2    1    1    2  501    0 -0.57801492631E+02 -0.66672520988E+02 -0.10078155903E+03  0.13395208190E+03  0.00000000000E+00 0. -1.
          1    1    1    2  502    0 -0.16504166770E+02  0.84971121303E+02  0.42265220182E+03  0.43142480536E+03  0.00000000000E+00 0. -1.
         22    1    3    3    0    0  0.96064359016E+02 -0.46607516069E+02  0.69435879847E+02  0.12736547035E+03  0.00000000000E+00 0. -1.
         22    1    3    3    0    0 -0.21758699616E+02  0.28308915754E+02  0.51417156280E+02  0.62598399980E+02  0.00000000000E+00 0. -1.
</event>
<event>
 7    1  0.6103724E-006  0.6677451E+02  0.7818608E-02  0.1454964E+00
          2   -1    0    0  502    0  0.00000000000E+00  0.00000000000E+00  0.15338545815E+04  0.15338545815E+04  0.00000000000E+00 0. -1.
          1   -1    0    0  501    0 -0.00000000000E+00 -0.00000000000E+00 -0.80919212088E+02  0.80919212088E+02  0.00000000000E+00 0. -1.
         25    2    1    2    0    0  0.31657182269E+02  0.42665763995E+02  0.60645865436E+03  0.62148187046E+03  0.12500028503E+03 0.  0.
          2    1    1    2  501    0  0.32212944424E+02 -0.13370731777E+02 -0.67839216289E+02  0.76279810720E+02  0.00000000000E+00 0. -1.
          1    1    1    2  502    0 -0.63870126693E+02 -0.29295032218E+02  0.91431593129E+03  0.91701211236E+03  0.00000000000E+00 0. -1.
         22    1    3    3    0    0 -0.33071085125E+02  0.48601213703E+02  0.41834105790E+03  0.42245119880E+03  0.00000000000E+00 0. -1.
         22    1    3    3    0    0  0.64728267394E+02 -0.59354497081E+01  0.18811759646E+03  0.19903067166E+03  0.00000000000E+00 0. -1.
</event>
<event>
 7    1  0.6103724E-006  0.1300663E+03  0.7818608E-02  0.1256094E+00
          2   -1    0    0  502    0  0.00000000000E+00  0.00000000000E+00  0.16832140844E+04  0.16832140844E+04  0.00000000000E+00 0. -1.
          1   -1    0    0  501    0 -0.00000000000E+00 -0.00000000000E+00 -0.22075562376E+04  0.22075562376E+04  0.00000000000E+00 0. -1.
         25    2    1    2    0    0  0.10798707113E+03  0.16007192240E+03 -0.32057241658E+00  0.23000952926E+03  0.12498021008E+03 0.  0.
          2    1    1    2  501    0 -0.11295413696E+03 -0.62974143284E+02 -0.20888828198E+04  0.20928821788E+04  0.00000000000E+00 0. -1.
          1    1    1    2  502    0  0.49670658242E+01 -0.97097779116E+02  0.15648612390E+04  0.15678786139E+04  0.00000000000E+00 0. -1.
         22    1    3    3    0    0  0.37856719924E+02 -0.31777709198E+01 -0.31829278519E+02  0.49561400732E+02  0.00000000000E+00 0. -1.
         22    1    3    3    0    0  0.70130351209E+02  0.16324969332E+03  0.31508706102E+02  0.18044812853E+03  0.00000000000E+00 0. -1.
</event>
<event>
 7    1  0.6103724E-006  0.8554145E+02  0.7818608E-02  0.1418372E+00
          2   -1    0    0  502    0  0.00000000000E+00  0.00000000000E+00  0.20075007668E+03  0.20075007668E+03  0.00000000000E+00 0. -1.
          1   -1    0    0  501    0 -0.00000000000E+00 -0.00000000000E+00 -0.12512531774E+04  0.12512531774E+04  0.00000000000E+00 0. -1.
         25    2    1    2    0    0  0.90332395968E+02  0.64439972810E+02  0.59614191425E+02  0.17745701446E+03  0.12499875322E+03 0.  0.
          2    1    1    2  501    0 -0.21033967389E+02 -0.29014144430E+02 -0.11735776878E+04  0.11741247113E+04  0.00000000000E+00 0. -1.
          1    1    1    2  502    0 -0.69298428579E+02 -0.35425828380E+02  0.63460395695E+02  0.10042152828E+03  0.00000000000E+00 0. -1.
         22    1    3    3    0    0  0.73404178203E+01 -0.32614164643E+02  0.33079101803E+02  0.47029697482E+02  0.00000000000E+00 0. -1.
         22    1    3    3    0    0  0.82991978147E+02  0.97054137453E+02  0.26535089622E+02  0.13042731698E+03  0.00000000000E+00 0. -1.
</event>
<event>
 7    1  0.6103724E-006  0.1318364E+03  0.7818608E-02  0.1428839E+00
          2   -1    0    0  502    0  0.00000000000E+00  0.00000000000E+00  0.74799478957E+02  0.74799478957E+02  0.00000000000E+00 0. -1.
          1   -1    0    0  501    0 -0.00000000000E+00 -0.00000000000E+00 -0.12802120634E+04  0.12802120634E+04  0.00000000000E+00 0. -1.
         25    2    1    2    0    0 -0.11362553580E+03  0.55730425689E+02 -0.10298548719E+03  0.20554291509E+03  0.12500094655E+03 0.  0.
          2    1    1    2  501    0 -0.28072239538E+01  0.21278365233E+02 -0.91758652066E+03  0.91783749773E+03  0.00000000000E+00 0. -1.
          1    1    1    2  502    0  0.11643275975E+03 -0.77008790922E+02 -0.18484057661E+03  0.23163112957E+03  0.00000000000E+00 0. -1.
         22    1    3    3    0    0 -0.40903350493E+02  0.80366376792E+02 -0.90490263595E+02  0.12775103290E+03  0.00000000000E+00 0. -1.
         22    1    3    3    0    0 -0.72722185304E+02 -0.24635951104E+02 -0.12495223598E+02  0.77791882192E+02  0.00000000000E+00 0. -1.
</event>
<event>
 7    1  0.6103724E-006  0.2136635E+03  0.7818608E-02  0.1223721E+00
          2   -1    0    0  502    0  0.00000000000E+00  0.00000000000E+00  0.27600482333E+04  0.27600482333E+04  0.00000000000E+00 0. -1.
          1   -1    0    0  501    0 -0.00000000000E+00 -0.00000000000E+00 -0.51496862290E+03  0.51496862290E+03  0.00000000000E+00 0. -1.
         25    2    1    2    0    0  0.14238657813E+02 -0.28873301429E+03  0.19315461993E+03  0.36946528330E+03  0.12500558166E+03 0.  0.
          2    1    1    2  501    0 -0.22825034147E+02  0.78997935855E+02 -0.41835976927E+03  0.42636434255E+03  0.00000000000E+00 0. -1.
          1    1    1    2  502    0  0.85863763339E+01  0.20973507844E+03  0.24702847597E+04  0.24791872303E+04  0.00000000000E+00 0. -1.
         22    1    3    3    0    0  0.58907269896E+02 -0.21506063541E+03  0.16958503751E+03  0.28014322818E+03  0.00000000000E+00 0. -1.
         22    1    3    3    0    0 -0.44668612082E+02 -0.73672378877E+02  0.23569582428E+02  0.89322055118E+02  0.00000000000E+00 0. -1.
</event>
<event>
 7    1  0.6103724E-006  0.5270412E+02  0.7818608E-02  0.1476944E+00
          2   -1    0    0  502    0  0.00000000000E+00  0.00000000000E+00  0.14074124035E+04  0.14074124035E+04  0.00000000000E+00 0. -1.
          1   -1    0    0  501    0 -0.00000000000E+00 -0.00000000000E+00 -0.16561713226E+03  0.16561713226E+03  0.00000000000E+00 0. -1.
         25    2    1    2    0    0 -0.86669674916E+01 -0.19510122448E+02  0.17890397148E+03  0.21928144304E+03  0.12498783559E+03 0.  0.
          2    1    1    2  501    0 -0.36458434988E+02 -0.96659661066E+01 -0.14237402435E+03  0.14728547515E+03  0.00000000000E+00 0. -1.
          1    1    1    2  502    0  0.45125402479E+02  0.29176088555E+02  0.12052653241E+04  0.12064626175E+04  0.00000000000E+00 0. -1.
         22    1    3    3    0    0 -0.39301788889E+02 -0.49271475603E+02  0.16113341829E+03  0.17302106059E+03  0.00000000000E+00 0.  1.
         22    1    3    3    0    0  0.30634821397E+02  0.29761353155E+02  0.17770553191E+02  0.46260382450E+02  0.00000000000E+00 0.  1.
</event>
<event>
 7    1  0.6103724E-006  0.6175391E+02  0.7818608E-02  0.1510346E+00
          2   -1    0    0  502    0  0.00000000000E+00  0.00000000000E+00  0.10525491958E+03  0.10525491958E+03  0.00000000000E+00 0. -1.
          1   -1    0    0  501    0 -0.00000000000E+00 -0.00000000000E+00 -0.15827629444E+04  0.15827629444E+04  0.00000000000E+00 0. -1.
         25    2    1    2    0    0  0.41231552436E+02 -0.26229110036E+02 -0.32175421046E+03  0.34862529899E+03  0.12500328004E+03 0.  0.
          2    1    1    2  501    0  0.20147650117E+02  0.15690620093E+02 -0.12368661715E+04  0.12371297626E+04  0.00000000000E+00 0. -1.
          1    1    1    2  502    0 -0.61379202554E+02  0.10538489943E+02  0.81112357111E+02  0.10226280239E+03  0.00000000000E+00 0. -1.
         22    1    3    3    0    0  0.35920966955E+02  0.31712563517E+02 -0.25758838860E+03  0.26200721458E+03  0.00000000000E+00 0.  1.
         22    1    3    3    0    0  0.53105854812E+01 -0.57941673552E+02 -0.64165821853E+02  0.86618084407E+02  0.00000000000E+00 0.  1.
</event>
<event>
 7    1  0.6103724E-006  0.1267867E+03  0.7818608E-02  0.1305226E+00
          2   -1    0    0  502    0  0.00000000000E+00  0.00000000000E+00  0.84393779182E+03  0.84393779182E+03  0.00000000000E+00 0. -1.
          1   -1    0    0  501    0 -0.00000000000E+00 -0.00000000000E+00 -0.30363161146E+03  0.30363161146E+03  0.00000000000E+00 0. -1.
         25    2    1    2    0    0 -0.63593195459E+02 -0.28096004376E+02  0.16364509986E+03  0.21734148034E+03  0.12499648155E+03 0.  0.
          2    1    1    2  501    0  0.12430539488E+03  0.42989037850E+02 -0.25953871741E+03  0.29096431810E+03  0.00000000000E+00 0. -1.
          1    1    1    2  502    0 -0.60712199416E+02 -0.14893033474E+02  0.63619979791E+03  0.63926360484E+03  0.00000000000E+00 0. -1.
         22    1    3    3    0    0 -0.22428174743E+02 -0.41367323464E+02 -0.10439220199E+01  0.47067698543E+02  0.00000000000E+00 0. -1.
         22    1    3    3    0    0 -0.41165020716E+02  0.13271319088E+02  0.16468902188E+03  0.17027378180E+03  0.00000000000E+00 0. -1.
</event>
<event>
 7    1  0.6103724E-006  0.4968487E+02  0.7818608E-02  0.1490549E+00
          2   -1    0    0  502    0  0.00000000000E+00  0.00000000000E+00  0.24424113335E+03  0.24424113335E+03  0.00000000000E+00 0. -1.
          1   -1    0    0  501    0 -0.00000000000E+00 -0.00000000000E+00 -0.20866614019E+04  0.20866614019E+04  0.00000000000E+00 0. -1.
         25    2    1    2    0    0 -0.15848626454E+01 -0.19719989485E+02 -0.49731207687E+03  0.51316309642E+03  0.12500268778E+03 0.  0.
          2    1    1    2  501    0 -0.32139095416E+02 -0.17008169665E+02 -0.15785818784E+04  0.15790006162E+04  0.00000000000E+00 0. -1.
          1    1    1    2  502    0  0.33723958061E+02  0.36728159151E+02  0.23347368672E+03  0.23873882259E+03  0.00000000000E+00 0. -1.
         22    1    3    3    0    0 -0.18616946405E+02  0.49987921550E+02 -0.17446952066E+03  0.18244176230E+03  0.00000000000E+00 0. -1.
         22    1    3    3    0    0  0.17032083759E+02 -0.69707911036E+02 -0.32284255622E+03  0.33072133412E+03  0.00000000000E+00 0. -1.
</event>
<event>
 7    1  0.6103724E-006  0.7044557E+02  0.7818608E-02  0.1369812E+00
          2   -1    0    0  502    0  0.00000000000E+00  0.00000000000E+00  0.83612858138E+03  0.83612858138E+03  0.00000000000E+00 0. -1.
          1   -1    0    0  501    0 -0.00000000000E+00 -0.00000000000E+00 -0.46056388096E+03  0.46056388096E+03  0.00000000000E+00 0. -1.
         25    2    1    2    0    0  0.48557571624E+02 -0.23893718230E+02  0.32887076407E+03  0.35596225797E+03  0.12499760840E+03 0.  0.
          2    1    1    2  501    0 -0.58810864980E+02 -0.39422801076E+02 -0.44210621615E+03  0.44773963578E+03  0.00000000000E+00 0. -1.
          1    1    1    2  502    0  0.10253293356E+02  0.63316519305E+02  0.48880015249E+03  0.49299056859E+03  0.00000000000E+00 0. -1.
         22    1    3    3    0    0  0.85511513320E+02  0.76521179216E+01  0.18133588446E+03  0.20063269128E+03  0.00000000000E+00 0. -1.
         22    1    3    3    0    0 -0.36953941696E+02 -0.31545836151E+02  0.14753487962E+03  0.15532956669E+03  0.00000000000E+00 0. -1.
</event>
<event>
 7    1  0.6103724E-006  0.9269705E+02  0.7818608E-02  0.1351569E+00
          2   -1    0    0  502    0  0.00000000000E+00  0.00000000000E+00  0.12700634276E+04  0.12700634276E+04  0.00000000000E+00 0. -1.
          1   -1    0    0  501    0 -0.00000000000E+00 -0.00000000000E+00 -0.27182988149E+04  0.27182988149E+04  0.00000000000E+00 0. -1.
         25    2    1    2    0    0  0.10631647598E+03  0.68784735135E+02  0.90102616929E+02  0.19944409118E+03  0.12499972431E+03 0.  0.
          2    1    1    2  501    0 -0.50219298696E+02 -0.77764047437E+02 -0.26621060247E+04  0.26637150208E+04  0.00000000000E+00 0. -1.
          1    1    1    2  502    0 -0.56097177284E+02  0.89793123018E+01  0.11237680205E+04  0.11252031306E+04  0.00000000000E+00 0. -1.
         22    1    3    3    0    0  0.59737108753E+02  0.49719816557E+02 -0.18371137436E+02  0.79862888824E+02  0.00000000000E+00 0.  1.
         22    1    3    3    0    0  0.46579367226E+02  0.19064918578E+02  0.10847375436E+03  0.11958120236E+03  0.00000000000E+00 0.  1.
</event>
<event>
 7    1  0.6103724E-006  0.3520128E+02  0.7818608E-02  0.1590815E+00
          2   -1    0    0  502    0  0.00000000000E+00  0.00000000000E+00  0.77284910704E+03  0.77284910704E+03  0.00000000000E+00 0. -1.
          1   -1    0    0  501    0 -0.00000000000E+00 -0.00000000000E+00 -0.17935019513E+04  0.17935019513E+04  0.00000000000E+00 0. -1.
         25    2    1    2    0    0  0.37476483414E+02  0.48333429934E+02 -0.71806730630E+02  0.15659555633E+03  0.12500141775E+03 0.  0.
          2    1    1    2  501    0 -0.17830909688E+02 -0.30223244886E+02 -0.16788730581E+04  0.16792397479E+04  0.00000000000E+00 0. -1.
          1    1    1    2  502    0 -0.19645573726E+02 -0.18110185048E+02  0.73002694445E+03  0.73051575410E+03  0.00000000000E+00 0. -1.
         22    1    3    3    0    0 -0.33801443825E+02 -0.20942638218E+02 -0.20838847849E+02  0.44893087217E+02  0.00000000000E+00 0. -1.
         22    1    3    3    0    0  0.71277927240E+02  0.69276068152E+02 -0.50967882781E+02  0.11170246911E+03  0.00000000000E+00 0. -1.
</event>
<event>
 7    1  0.6103724E-006  0.4402459E+02  0.7818608E-02  0.1516738E+00
          2   -1    0    0  502    0  0.00000000000E+00  0.00000000000E+00  0.36095390282E+02  0.36095390282E+02  0.00000000000E+00 0. -1.
          1   -1    0    0  501    0 -0.00000000000E+00 -0.00000000000E+00 -0.25422878621E+04  0.25422878621E+04  0.00000000000E+00 0. -1.
         25    2    1    2    0    0 -0.15586928793E+02 -0.75609104106E+01 -0.12509237000E+03  0.17768812489E+03  0.12499939591E+03 0.  0.
          2    1    1    2  501    0 -0.11757504162E+02  0.42425529803E+02 -0.23395128911E+04  0.23399270783E+04  0.00000000000E+00 0. -1.
          1    1    1    2  502    0  0.27344432955E+02 -0.34864619392E+02 -0.41587210710E+02  0.60768049118E+02  0.00000000000E+00 0. -1.
         22    1    3    3    0    0  0.17157898944E+02  0.33187944926E+02 -0.11939434912E+03  0.12510333244E+03  0.00000000000E+00 0.  1.
         22    1    3    3    0    0 -0.32744827737E+02 -0.40748855336E+02 -0.56980208805E+01  0.52584792447E+02  0.00000000000E+00 0.  1.
</event>
<event>
 7    1  0.6103724E-006  0.7147220E+02  0.7818608E-02  0.1488654E+00
          2   -1    0    0  502    0  0.00000000000E+00  0.00000000000E+00  0.36612853943E+03  0.36612853943E+03  0.00000000000E+00 0. -1.
          1   -1    0    0  501    0 -0.00000000000E+00 -0.00000000000E+00 -0.98315776590E+02  0.98315776590E+02  0.00000000000E+00 0. -1.
         25    2    1    2    0    0  0.47902729081E+02  0.21152199528E+02  0.43412537228E+02  0.14230772386E+03  0.12499901153E+03 0.  0.
          2    1    1    2  501    0 -0.71768376709E+02 -0.30452429946E+02 -0.16657792774E+02  0.79721593343E+02  0.00000000000E+00 0. -1.
          1    1    1    2  502    0  0.23865647628E+02  0.93002304180E+01  0.24105801838E+03  0.24241499881E+03  0.00000000000E+00 0. -1.
         22    1    3    3    0    0 -0.20643722216E+02 -0.22947769196E+02 -0.21911738917E+02  0.37853502882E+02  0.00000000000E+00 0.  1.
         22    1    3    3    0    0  0.68546451297E+02  0.44099968724E+02  0.65324276146E+02  0.10445422098E+03  0.00000000000E+00 0.  1.
</event>
<event>
 7    1  0.6103724E-006  0.8574849E+02  0.7818608E-02  0.1346010E+00
          2   -1    0    0  502    0  0.00000000000E+00  0.00000000000E+00  0.38541181440E+03  0.38541181440E+03  0.00000000000E+00 0. -1.
          1   -1    0    0  501    0 -0.00000000000E+00 -0.00000000000E+00 -0.43626771267E+03  0.43626771267E+03  0.00000000000E+00 0. -1.
         25    2    1    2    0    0  0.97865013768E+02 -0.10748636772E+03  0.40879168123E+02  0.19602817262E+03  0.12500023164E+03 0.  0.
          2    1    1    2  501    0 -0.42547973009E+02  0.48347592002E+02 -0.34954211326E+03  0.35542581308E+03  0.00000000000E+00 0. -1.
          1    1    1    2  502    0 -0.55317040759E+02  0.59138775714E+02  0.25780704687E+03  0.27022554137E+03  0.00000000000E+00 0. -1.
         22    1    3    3    0    0 -0.12643615881E+02  0.19155892541E+02  0.10441648754E+02  0.25215813893E+02  0.00000000000E+00 0. -1.
         22    1    3    3    0    0  0.11050862965E+03 -0.12664226026E+03  0.30437519369E+02  0.17081235873E+03  0.00000000000E+00 0. -1.
</event>
<event>
 7    1  0.6103724E-006  0.5124668E+02  0.7818608E-02  0.1512067E+00
          2   -1    0    0  502    0  0.00000000000E+00  0.00000000000E+00  0.62467072693E+02  0.62467072693E+02  0.00000000000E+00 0. -1.
          1   -1    0    0  501    0 -0.00000000000E+00 -0.00000000000E+00 -0.13012615624E+04  0.13012615624E+04  0.00000000000E+00 0. -1.
         25    2    1    2    0    0  0.76607881275E+02 -0.10807936681E+02 -0.46648947740E+03  0.48910382724E+03  0.12499816929E+03 0.  0.
          2    1    1    2  501    0 -0.29456232135E+02 -0.75820477912E+01 -0.81059251991E+03  0.81116298633E+03  0.00000000000E+00 0. -1.
          1    1    1    2  502    0 -0.47151649140E+02  0.18389984473E+02  0.38287507638E+02  0.63461821489E+02  0.00000000000E+00 0. -1.
         22    1    3    3    0    0  0.21935940496E+02 -0.49546494580E+02 -0.35436532527E+03  0.35848406431E+03  0.00000000000E+00 0.  1.
         22    1    3    3    0    0  0.54671940779E+02  0.38738557898E+02 -0.11212415213E+03  0.13061976293E+03  0.00000000000E+00 0.  1.
</event>
<event>
 7    1  0.6103724E-006  0.2521142E+03  0.7818608E-02  0.1261076E+00
          2   -1    0    0  502    0  0.00000000000E+00  0.00000000000E+00  0.38938213790E+04  0.38938213790E+04  0.00000000000E+00 0. -1.
          1   -1    0    0  501    0 -0.00000000000E+00 -0.00000000000E+00 -0.71592829303E+03  0.71592829303E+03  0.00000000000E+00 0. -1.
         25    2    1    2    0    0 -0.45214484188E+01  0.21239489670E+03  0.45281911414E+03  0.51555824269E+03  0.12499246311E+03 0.  0.
          2    1    1    2  501    0 -0.20126993249E+02 -0.25329844399E+03 -0.66080541168E+03  0.70797527477E+03  0.00000000000E+00 0. -1.
          1    1    1    2  502    0  0.24648441668E+02  0.40903547293E+02  0.33858793835E+04  0.33862161546E+04  0.00000000000E+00 0. -1.
         22    1    3    3    0    0  0.38224961146E+02  0.73551660814E+02  0.79019698945E+02  0.11452120889E+03  0.00000000000E+00 0.  1.
         22    1    3    3    0    0 -0.42746409565E+02  0.13884323588E+03  0.37379941519E+03  0.40103703380E+03  0.00000000000E+00 0.  1.
</event>
<event>
 7    1  0.6103724E-006  0.1266549E+03  0.7818608E-02  0.1267842E+00
          2   -1    0    0  502    0  0.00000000000E+00  0.00000000000E+00  0.29822262744E+02  0.29822262744E+02  0.00000000000E+00 0. -1.
          1   -1    0    0  501    0 -0.00000000000E+00 -0.00000000000E+00 -0.19684637294E+04  0.19684637294E+04  0.00000000000E+00 0. -1.
         25    2    1    2    0    0  0.21078686950E+02 -0.79281636219E+01 -0.54141021068E+03  0.55611249300E+03  0.12501568626E+03 0.  0.
          2    1    1    2  501    0  0.26605733100E+02  0.12526386937E+03 -0.12061436117E+04  0.12129226332E+04  0.00000000000E+00 0. -1.
          1    1    1    2  502    0 -0.47684420050E+02 -0.11733570574E+03 -0.19108764424E+03  0.22925086595E+03  0.00000000000E+00 0. -1.
         22    1    3    3    0    0 -0.32823999611E+02 -0.42784849182E+02 -0.14838808176E+03  0.15788280805E+03  0.00000000000E+00 0.  1.
         22    1    3    3    0    0  0.53902686561E+02  0.34856685560E+02 -0.39302212893E+03  0.39822968495E+03  0.00000000000E+00 0.  1.
</event>
<event>
 7    1  0.6103724E-006  0.1689433E+03  0.7818608E-02  0.1392941E+00
          2   -1    0    0  502    0  0.00000000000E+00  0.00000000000E+00  0.13274413542E+04  0.13274413542E+04  0.00000000000E+00 0. -1.
          1   -1    0    0  501    0 -0.00000000000E+00 -0.00000000000E+00 -0.63781364290E+03  0.63781364290E+03  0.00000000000E+00 0. -1.
         25    2    1    2    0    0 -0.84115942411E+02 -0.12242676287E+03  0.13972796561E+03  0.23919179908E+03  0.12500003335E+03 0.  0.
          2    1    1    2  501    0  0.92597444078E+02  0.14289519843E+03 -0.57564503624E+03  0.60030036826E+03  0.00000000000E+00 0. -1.
          1    1    1    2  502    0 -0.84815016671E+01 -0.20468435565E+02  0.11255447819E+04  0.11257628298E+04  0.00000000000E+00 0. -1.
         22    1    3    3    0    0 -0.75159257846E+02 -0.60739078609E+02  0.12402672894E+02  0.97426772528E+02  0.00000000000E+00 0.  1.
         22    1    3    3    0    0 -0.89566845652E+01 -0.61687684258E+02  0.12732529271E+03  0.14176502655E+03  0.00000000000E+00 0.  1.
</event>
<event>
 7    1  0.6103724E-006  0.1608046E+03  0.7818608E-02  0.1383959E+00
          2   -1    0    0  502    0  0.00000000000E+00  0.00000000000E+00  0.12386454629E+04  0.12386454629E+04  0.00000000000E+00 0. -1.
          1   -1    0    0  501    0 -0.00000000000E+00 -0.00000000000E+00 -0.56109223363E+03  0.56109223363E+03  0.00000000000E+00 0. -1.
         25    2    1    2    0    0  0.14114050345E+03  0.99800417304E+02 -0.23393303744E+03  0.31659169185E+03  0.12499947333E+03 0.  0.
          2    1    1    2  501    0  0.97577257578E+00 -0.25004807332E+02 -0.27988388124E+03  0.28100031940E+03  0.00000000000E+00 0. -1.
          1    1    1    2  502    0 -0.14211627603E+03 -0.74795609972E+02  0.11913701480E+04  0.12021456853E+04  0.00000000000E+00 0. -1.
         22    1    3    3    0    0 -0.14277017609E+02  0.43386811347E+02 -0.71277310334E+02  0.84656385460E+02  0.00000000000E+00 0.  1.
         22    1    3    3    0    0  0.15541752106E+03  0.56413605957E+02 -0.16265572711E+03  0.23193530639E+03  0.00000000000E+00 0.  1.
</event>
<event>
 7    1  0.6103724E-006  0.9284824E+02  0.7818608E-02  0.1428221E+00
          2   -1    0    0  502    0  0.00000000000E+00  0.00000000000E+00  0.12238499828E+04  0.12238499828E+04  0.00000000000E+00 0. -1.
          1   -1    0    0  501    0 -0.00000000000E+00 -0.00000000000E+00 -0.14105353201E+04  0.14105353201E+04  0.00000000000E+00 0. -1.
         25    2    1    2    0    0  0.44213604635E+01  0.98083711688E+02  0.34685001369E+03  0.38153606117E+03  0.12499948420E+03 0.  0.
          2    1    1    2  501    0  0.28416472335E+02 -0.11402176821E+02 -0.13905245998E+04  0.13908616639E+04  0.00000000000E+00 0. -1.
          1    1    1    2  502    0 -0.32837832798E+02 -0.86681534866E+02  0.85698924880E+03  0.86198757781E+03  0.00000000000E+00 0. -1.
         22    1    3    3    0    0 -0.51671140482E+02  0.36857511081E+02  0.22717775235E+03  0.23587732838E+03  0.00000000000E+00 0. -1.
         22    1    3    3    0    0  0.56092500946E+02  0.61226200607E+02  0.11967226134E+03  0.14565873279E+03  0.00000000000E+00 0. -1.
</event>
<event>
 7    1  0.6103724E-006  0.2427334E+03  0.7818608E-02  0.1147812E+00
          2   -1    0    0  502    0  0.00000000000E+00  0.00000000000E+00  0.88498547518E+03  0.88498547518E+03  0.00000000000E+00 0. -1.
          1   -1    0    0  501    0 -0.00000000000E+00 -0.00000000000E+00 -0.23388110026E+04  0.23388110026E+04  0.00000000000E+00 0. -1.
         25    2    1    2    0    0  0.38116528815E+03 -0.85402936166E+02  0.73094775499E+02  0.41659203591E+03  0.12500175913E+03 0.  0.
          2    1    1    2  501    0 -0.23897071573E+03 -0.51946940766E+01 -0.21492188677E+04  0.21624698215E+04  0.00000000000E+00 0. -1.
          1    1    1    2  502    0 -0.14219457241E+03  0.90597630243E+02  0.62229856474E+03  0.64473462037E+03  0.00000000000E+00 0. -1.
         22    1    3    3    0    0  0.20070908666E+03  0.18201854787E+02  0.25541221769E+02  0.20314477349E+03  0.00000000000E+00 0.  1.
         22    1    3    3    0    0  0.18045620148E+03 -0.10360479095E+03  0.47553553730E+02  0.21344726242E+03  0.00000000000E+00 0.  1.
</event>
<event>
 7    1  0.6103724E-006  0.8153005E+02  0.7818608E-02  0.1441929E+00
          2   -1    0    0  502    0  0.00000000000E+00  0.00000000000E+00  0.44826488252E+03  0.44826488252E+03  0.00000000000E+00 0. -1.
          1   -1    0    0  501    0 -0.00000000000E+00 -0.00000000000E+00 -0.23202493032E+04  0.23202493032E+04  0.00000000000E+00 0. -1.
         25    2    1    2    0    0 -0.99238532662E+02  0.38738067038E+02 -0.43400556547E+03  0.46402931247E+03  0.12495378254E+03 0.  0.
          2    1    1    2  501    0  0.19069542455E+02 -0.25010758824E+02 -0.18672809241E+04  0.18675457786E+04  0.00000000000E+00 0. -1.
          1    1    1    2  502    0  0.80168990206E+02 -0.13727308214E+02  0.42930206897E+03  0.43693909462E+03  0.00000000000E+00 0. -1.
         22    1    3    3    0    0 -0.14720238278E+02 -0.41917506282E+02 -0.16231977418E+03  0.16828984473E+03  0.00000000000E+00 0.  1.
         22    1    3    3    0    0 -0.84518294384E+02  0.80655573320E+02 -0.27168579128E+03  0.29573946774E+03  0.00000000000E+00 0.  1.
</event>
<event>
 7    1  0.6103724E-006  0.8010972E+02  0.7818608E-02  0.1376569E+00
          2   -1    0    0  502    0  0.00000000000E+00  0.00000000000E+00  0.18241761234E+03  0.18241761234E+03  0.00000000000E+00 0. -1.
          1   -1    0    0  501    0 -0.00000000000E+00 -0.00000000000E+00 -0.20134677207E+03  0.20134677207E+03  0.00000000000E+00 0. -1.
         25    2    1    2    0    0  0.10967059762E+03  0.25893945498E+02 -0.11833203017E+02  0.16871541459E+03  0.12500691994E+03 0.  0.
          2    1    1    2  501    0 -0.35006160898E+02 -0.40258359400E+02 -0.88703122805E+02  0.10351043811E+03  0.00000000000E+00 0. -1.
          1    1    1    2  502    0 -0.74664436722E+02  0.14364413902E+02  0.81607166088E+02  0.11153853170E+03  0.00000000000E+00 0. -1.
         22    1    3    3    0    0  0.13864523947E+02 -0.18167913983E+02  0.43861791343E+02  0.49458617678E+02  0.00000000000E+00 0. -1.
         22    1    3    3    0    0  0.95806073673E+02  0.44061859481E+02 -0.55694994361E+02  0.11925679691E+03  0.00000000000E+00 0. -1.
</event>
<event>
 7    1  0.6103724E-006  0.1817998E+03  0.7818608E-02  0.1379333E+00
          2   -1    0    0  502    0  0.00000000000E+00  0.00000000000E+00  0.11498113396E+04  0.11498113396E+04  0.00000000000E+00 0. -1.
          1   -1    0    0  501    0 -0.00000000000E+00 -0.00000000000E+00 -0.30332954634E+03  0.30332954634E+03  0.00000000000E+00 0. -1.
         25    2    1    2    0    0 -0.15716084915E+03  0.66915772014E+02  0.21629616506E+03  0.30263414364E+03  0.12500456324E+03 0.  0.
          2    1    1    2  501    0 -0.40433660987E+01  0.22624330399E+02 -0.25007993711E+03  0.25113379717E+03  0.00000000000E+00 0. -1.
          1    1    1    2  502    0  0.16120421524E+03 -0.89540102412E+02  0.88026556528E+03  0.89937294509E+03  0.00000000000E+00 0. -1.
         22    1    3    3    0    0 -0.41348255392E+02 -0.12914699423E+02  0.13136087656E+03  0.13831900656E+03  0.00000000000E+00 0. -1.
         22    1    3    3    0    0 -0.11581259375E+03  0.79830471436E+02  0.84935288500E+02  0.16431513708E+03  0.00000000000E+00 0. -1.
</event>
<event>
 7    1  0.6103724E-006  0.1130614E+03  0.7818608E-02  0.1375343E+00
          2   -1    0    0  502    0  0.00000000000E+00  0.00000000000E+00  0.18359540986E+04  0.18359540986E+04  0.00000000000E+00 0. -1.
          1   -1    0    0  501    0 -0.00000000000E+00 -0.00000000000E+00 -0.18802844552E+03  0.18802844552E+03  0.00000000000E+00 0. -1.
         25    2    1    2    0    0  0.42721483020E+02 -0.98550743118E+02  0.14765824402E+03  0.22128288676E+03  0.12500313942E+03 0.  0.
          2    1    1    2  501    0 -0.78516617239E+01  0.11410822556E+03 -0.12933191587E+03  0.17265306309E+03  0.00000000000E+00 0. -1.
          1    1    1    2  502    0 -0.34869821296E+02 -0.15557482439E+02  0.16295993250E+04  0.16300465943E+04  0.00000000000E+00 0. -1.
         22    1    3    3    0    0  0.22305910475E+02 -0.97729978106E+02  0.16593863892E+03  0.19386679486E+03  0.00000000000E+00 0.  1.
         22    1    3    3    0    0  0.20415572545E+02 -0.82076501115E+00 -0.18280394898E+02  0.27416091901E+02  0.00000000000E+00 0.  1.
</event>
<event>
 7    1  0.6103724E-006  0.6921027E+02  0.7818608E-02  0.1423245E+00
          2   -1    0    0  502    0  0.00000000000E+00  0.00000000000E+00  0.11402487401E+04  0.11402487401E+04  0.00000000000E+00 0. -1.
          1   -1    0    0  501    0 -0.00000000000E+00 -0.00000000000E+00 -0.13178944670E+04  0.13178944670E+04  0.00000000000E+00 0. -1.
         25    2    1    2    0    0 -0.34628617700E+02  0.69495542997E+02  0.46487188057E+03  0.48760617071E+03  0.12500056286E+03 0.  0.
          2    1    1    2  501    0  0.59722950830E+02 -0.34990619094E+02 -0.13049237659E+04  0.13067582825E+04  0.00000000000E+00 0. -1.
          1    1    1    2  502    0 -0.25094333129E+02 -0.34504923903E+02  0.66240615845E+03  0.66377875386E+03  0.00000000000E+00 0. -1.
         22    1    3    3    0    0 -0.65666128327E+02 -0.10344452869E+01  0.27413229013E+03  0.28188938075E+03  0.00000000000E+00 0.  1.
         22    1    3    3    0    0  0.31037510627E+02  0.70529988284E+02  0.19073959044E+03  0.20571678997E+03  0.00000000000E+00 0.  1.
</event>
<event>
 7    1  0.6103724E-006  0.9737214E+02  0.7818608E-02  0.1292621E+00
          2   -1    0    0  502    0  0.00000000000E+00  0.00000000000E+00  0.65255182684E+03  0.65255182684E+03  0.00000000000E+00 0. -1.
          1   -1    0    0  501    0 -0.00000000000E+00 -0.00000000000E+00 -0.36691808099E+03  0.36691808099E+03  0.00000000000E+00 0. -1.
         25    2    1    2    0    0  0.11143257988E+03  0.50426969015E+02 -0.59225983675E+02  0.18462662043E+03  0.12497668888E+03 0.  0.
          2    1    1    2  501    0 -0.30939229747E+02 -0.93817584552E+02 -0.23127867756E+03  0.25149314465E+03  0.00000000000E+00 0. -1.
          1    1    1    2  502    0 -0.80493350138E+02  0.43390615537E+02  0.57613840709E+03  0.58335014276E+03  0.00000000000E+00 0. -1.
         22    1    3    3    0    0  0.20300376555E+02  0.77238063225E+02 -0.25897606011E+02  0.83955403019E+02  0.00000000000E+00 0.  1.
         22    1    3    3    0    0  0.91132203330E+02 -0.26811094210E+02 -0.33328377664E+02  0.10067121741E+03  0.00000000000E+00 0.  1.
</event>
<event>
 7    1  0.6103724E-006  0.1153908E+03  0.7818608E-02  0.1362530E+00
          2   -1    0    0  502    0  0.00000000000E+00  0.00000000000E+00  0.20705967944E+04  0.20705967944E+04  0.00000000000E+00 0. -1.
          1   -1    0    0  501    0 -0.00000000000E+00 -0.00000000000E+00 -0.84198116158E+03  0.84198116158E+03  0.00000000000E+00 0. -1.
         25    2    1    2    0    0  0.26617318786E+02  0.74148605755E+02  0.66996492728E+02  0.16222658016E+03  0.12498974309E+03 0.  0.
          2    1    1    2  501    0 -0.71315430168E+01  0.40989404109E+02 -0.79207674805E+03  0.79316868631E+03  0.00000000000E+00 0. -1.
          1    1    1    2  502    0 -0.19485775769E+02 -0.11513800986E+03  0.19536958881E+04  0.19571826895E+04  0.00000000000E+00 0. -1.
         22    1    3    3    0    0  0.70741540114E+02  0.51957139505E+02  0.12464585481E+02  0.88652556277E+02  0.00000000000E+00 0. -1.
         22    1    3    3    0    0 -0.44124221329E+02  0.22191466251E+02  0.54531907248E+02  0.73574023883E+02  0.00000000000E+00 0. -1.
</event>
<event>
 7    1  0.6103724E-006  0.8858434E+02  0.7818608E-02  0.1471037E+00
          2   -1    0    0  502    0  0.00000000000E+00  0.00000000000E+00  0.12150159251E+04  0.12150159251E+04  0.00000000000E+00 0. -1.
          1   -1    0    0  501    0 -0.00000000000E+00 -0.00000000000E+00 -0.49300351379E+03  0.49300351379E+03  0.00000000000E+00 0. -1.
         25    2    1    2    0    0  0.57879393845E+02  0.75474169083E+02  0.68753778181E+02  0.17145973508E+03  0.12499993724E+03 0.  0.
          2    1    1    2  501    0 -0.69250221293E+02 -0.55016829100E+02 -0.43709572872E+03  0.44595416884E+03  0.00000000000E+00 0. -1.
          1    1    1    2  502    0  0.11370827448E+02 -0.20457339983E+02  0.10903543619E+04  0.10906055350E+04  0.00000000000E+00 0. -1.
         22    1    3    3    0    0  0.22292486692E+02  0.30323436596E+01 -0.34017376651E+02  0.40783967257E+02  0.00000000000E+00 0. -1.
         22    1    3    3    0    0  0.35586907153E+02  0.72441825423E+02  0.10277115483E+03  0.13067576783E+03  0.00000000000E+00 0. -1.
</event>
<event>
 7    1  0.6103724E-006  0.1857036E+03  0.7818608E-02  0.1242009E+00
          2   -1    0    0  502    0  0.00000000000E+00  0.00000000000E+00  0.90565746650E+03  0.90565746650E+03  0.00000000000E+00 0. -1.
          1   -1    0    0  501    0 -0.00000000000E+00 -0.00000000000E+00 -0.11397605339E+04  0.11397605339E+04  0.00000000000E+00 0. -1.
         25    2    1    2    0    0  0.40375463184E+02  0.25377050474E+03  0.45223542538E+01  0.28578913214E+03  0.12500131703E+03 0.  0.
          2    1    1    2  501    0 -0.25808045069E+02 -0.74031661256E+02 -0.98686081170E+03  0.98997020345E+03  0.00000000000E+00 0. -1.
          1    1    1    2  502    0 -0.14567418115E+02 -0.17973884348E+03  0.74823539000E+03  0.76965866485E+03  0.00000000000E+00 0. -1.
         22    1    3    3    0    0 -0.25755011193E+02  0.17766878705E+03  0.29469081006E+02  0.18192840688E+03  0.00000000000E+00 0. -1.
         22    1    3    3    0    0  0.66130474377E+02  0.76101717689E+02 -0.24946726752E+02  0.10386072526E+03  0.00000000000E+00 0. -1.
</event>
<event>
 7    1  0.6103724E-006  0.7378326E+02  0.7818608E-02  0.1407518E+00
          2   -1    0    0  502    0  0.00000000000E+00  0.00000000000E+00  0.33232348126E+03  0.33232348126E+03  0.00000000000E+00 0. -1.
          1   -1    0    0  501    0 -0.00000000000E+00 -0.00000000000E+00 -0.97260345849E+03  0.97260345849E+03  0.00000000000E+00 0. -1.
         25    2    1    2    0    0 -0.24086707710E+02  0.20272660611E+02 -0.98841497391E+02  0.16243745485E+03  0.12500053950E+03 0.  0.
          2    1    1    2  501    0  0.50292254692E+02 -0.57104459343E+02 -0.83853163855E+03  0.84197716062E+03  0.00000000000E+00 0. -1.
          1    1    1    2  502    0 -0.26205546983E+02  0.36831798733E+02  0.29709315872E+03  0.30051232428E+03  0.00000000000E+00 0. -1.
         22    1    3    3    0    0  0.31269166309E+02  0.33552741013E+02  0.27896001719E+01  0.45949200866E+02  0.00000000000E+00 0. -1.
         22    1    3    3    0    0 -0.55355874018E+02 -0.13280080403E+02 -0.10163109756E+03  0.11648825398E+03  0.00000000000E+00 0. -1.
</event>
<event>
 7    1  0.6103724E-006  0.9161439E+02  0.7818608E-02  0.1377619E+00
          2   -1    0    0  502    0  0.00000000000E+00  0.00000000000E+00  0.93935085635E+03  0.93935085635E+03  0.00000000000E+00 0. -1.
          1   -1    0    0  501    0 -0.00000000000E+00 -0.00000000000E+00 -0.10792323586E+04  0.10792323586E+04  0.00000000000E+00 0. -1.
         25    2    1    2    0    0 -0.12286248629E+03 -0.25435174029E+02  0.52334849811E+02  0.18467401089E+03  0.12499366055E+03 0.  0.
          2    1    1    2  501    0  0.80188588135E+02  0.43269223913E+02 -0.10103594831E+04  0.10144598171E+04  0.00000000000E+00 0. -1.
          1    1    1    2  502    0  0.42673898158E+02 -0.17834049884E+02  0.81814313105E+03  0.81944938697E+03  0.00000000000E+00 0. -1.
         22    1    3    3    0    0 -0.14215096167E+03 -0.13752737879E+02  0.18492861610E+02  0.14400701245E+03  0.00000000000E+00 0. -1.
         22    1    3    3    0    0  0.19288475378E+02 -0.11682436150E+02  0.33841988201E+02  0.40666998442E+02  0.00000000000E+00 0. -1.
</event>
<event>
 7    1  0.6103724E-006  0.7090658E+02  0.7818608E-02  0.1379875E+00
          2   -1    0    0  502    0  0.00000000000E+00  0.00000000000E+00  0.15950538992E+04  0.15950538992E+04  0.00000000000E+00 0. -1.
          1   -1    0    0  501    0 -0.00000000000E+00 -0.00000000000E+00 -0.51945467276E+02  0.51945467276E+02  0.00000000000E+00 0. -1.
         25    2    1    2    0    0  0.50922851838E+02 -0.11235900592E+03  0.39791799671E+03  0.43495033091E+03  0.12500150080E+03 0.  0.
          2    1    1    2  501    0 -0.36874175968E+02  0.45628843994E+02 -0.58804388843E+01  0.58959950975E+02  0.00000000000E+00 0. -1.
          1    1    1    2  502    0 -0.14048675870E+02  0.66730161923E+02  0.11510708741E+04  0.11530890846E+04  0.00000000000E+00 0. -1.
         22    1    3    3    0    0  0.74576344428E+02 -0.11743478290E+03  0.38052034690E+03  0.40515218595E+03  0.00000000000E+00 0.  1.
         22    1    3    3    0    0 -0.23653492591E+02  0.50757769784E+01  0.17397649810E+02  0.29798144952E+02  0.00000000000E+00 0.  1.
</event>
<event>
 7    1  0.6103724E-006  0.6843088E+02  0.7818608E-02  0.1410135E+00
          2   -1    0    0  502    0  0.00000000000E+00  0.00000000000E+00  0.64050235968E+02  0.64050235968E+02  0.00000000000E+00 0. -1.
          1   -1    0    0  501    0 -0.00000000000E+00 -0.00000000000E+00 -0.18909660162E+04  0.18909660162E+04  0.00000000000E+00 0. -1.
         25    2    1    2    0    0 -0.33489131430E+01 -0.10923671854E+03 -0.31694113273E+03  0.35779932693E+03  0.12499920335E+03 0.  0.
          2    1    1    2  501    0  0.16228992258E+02  0.44909208478E+02 -0.15283436984E+04  0.15290894930E+04  0.00000000000E+00 0. -1.
          1    1    1    2  502    0 -0.12880079115E+02  0.64327510065E+02  0.18369050907E+02  0.68127432216E+02  0.00000000000E+00 0. -1.
         22    1    3    3    0    0  0.12078964718E+02  0.24039240615E+01  0.74460827707E+01  0.14391816709E+02  0.00000000000E+00 0.  1.
         22    1    3    3    0    0 -0.15427877861E+02 -0.11164064260E+03 -0.32438721550E+03  0.34340751022E+03  0.00000000000E+00 0.  1.
</event>
