<event>
 7    1  0.5957303E-006  0.8832438E+02  0.7818608E-02  0.1362939E+00
          2   -1    0    0  502    0  0.00000000000E+00  0.00000000000E+00  0.81390456376E+03  0.81390456376E+03  0.00000000000E+00 0. -1.
          1   -1    0    0  501    0 -0.00000000000E+00 -0.00000000000E+00 -0.13277252647E+03  0.13277252647E+03  0.00000000000E+00 0. -1.
         25    2    1    2    0    0  0.18505881051E+02 -0.33281022668E+02  0.27185303343E+03  0.30162652062E+03  0.12499756819E+03 0.  0.
          2    1    1    2  501    0 -0.56076074012E+02  0.72304227887E+02 -0.98470043311E+02  0.13442015056E+03  0.00000000000E+00 0. -1.
          1    1    1    2  502    0  0.37570192961E+02 -0.39023205219E+02  0.50774904718E+03  0.51063041905E+03  0.00000000000E+00 0. -1.
         22    1    3    3    0    0 -0.27078117224E+02  0.25343846729E+02  0.17863445358E+03  0.18244397224E+03  0.00000000000E+00 0. -1.
         22    1    3    3    0    0  0.45583998274E+02 -0.58624869397E+02  0.93218579847E+02  0.11918254838E+03  0.00000000000E+00 0. -1.
</event>
<event>
 7    1  0.5957303E-006  0.2834566E+03  0.7818608E-02  0.1184403E+00
          2   -1    0    0  502    0  0.00000000000E+00  0.00000000000E+00  0.14290237005E+04  0.14290237005E+04  0.00000000000E+00 0. -1.
          1   -1    0    0  501    0 -0.00000000000E+00 -0.00000000000E+00 -0.16762245105E+03  0.16762245105E+03  0.00000000000E+00 0. -1.
         25    2    1    2    0    0 -0.59462514669E+02  0.32273942443E+03  0.58823082765E+03  0.68508328080E+03  0.12500827294E+03 0.  0.
          2    1    1    2  501    0  0.11740703927E+03 -0.24780095401E+03  0.46925040950E+02  0.27819361090E+03  0.00000000000E+00 0. -1.
          1    1    1    2  502    0 -0.57944524603E+02 -0.74938470412E+02  0.62624538089E+03  0.63336925988E+03  0.00000000000E+00 0. -1.
         22    1    3    3    0    0 -0.89287918625E+02  0.18882469460E+03  0.41025589920E+03  0.46036615920E+03  0.00000000000E+00 0. -1.
         22    1    3    3    0    0  0.29825403956E+02  0.13391472982E+03  0.17797492845E+03  0.22471712160E+03  0.00000000000E+00 0. -1.
</event>
<event>
 7    1  0.5957303E-006  0.2096577E+03  0.7818608E-02  0.1297575E+00
          2   -1    0    0  502    0  0.00000000000E+00  0.00000000000E+00  0.25968824069E+03  0.25968824069E+03  0.00000000000E+00 0. -1.
          1   -1    0    0  501    0 -0.00000000000E+00 -0.00000000000E+00 -0.16449712035E+04  0.16449712035E+04  0.00000000000E+00 0. -1.
         25    2    1    2    0    0 -0.88651675283E+02  0.14910569275E+03  0.50593982212E+01  0.21387578253E+03  0.12500250277E+03 0.  0.
          2    1    1    2  501    0  0.96423108269E+02 -0.18891346132E+03 -0.15303712985E+04  0.15449990365E+04  0.00000000000E+00 0. -1.
          1    1    1    2  502    0 -0.77714329862E+01  0.39807768562E+02  0.14002893743E+03  0.14578462514E+03  0.00000000000E+00 0. -1.
         22    1    3    3    0    0 -0.95697916014E+02  0.42201068789E+02  0.17412706780E+02  0.10602935298E+03  0.00000000000E+00 0.  1.
         22    1    3    3    0    0  0.70462407317E+01  0.10690462397E+03 -0.12353308559E+02  0.10784642955E+03  0.00000000000E+00 0.  1.
</event>
<event>
 7    1  0.5957303E-006  0.3998566E+02  0.7818608E-02  0.1578595E+00
          2   -1    0    0  502    0  0.00000000000E+00  0.00000000000E+00  0.87055495738E+03  0.87055495738E+03  0.00000000000E+00 0. -1.
          1   -1    0    0  501    0 -0.00000000000E+00 -0.00000000000E+00 -0.14157547140E+03  0.14157547140E+03  0.00000000000E+00 0. -1.
         25    2    1    2    0    0 -0.48488857133E+02  0.23246791355E+02 -0.48947124062E+02  0.14460963082E+03  0.12499816718E+03 0.  0.
          2    1    1    2  501    0  0.24021130082E+02 -0.29892316987E+02 -0.36356660596E+02  0.52842899948E+02  0.00000000000E+00 0. -1.
          1    1    1    2  502    0  0.24467727051E+02  0.66455256317E+01  0.81428327063E+03  0.81467789801E+03  0.00000000000E+00 0. -1.
         22    1    3    3    0    0  0.19909680154E+02  0.56569717948E+02 -0.20379735910E+02  0.63339261033E+02  0.00000000000E+00 0. -1.
         22    1    3    3    0    0 -0.68398537287E+02 -0.33322926593E+02 -0.28567388152E+02  0.81270369788E+02  0.00000000000E+00 0. -1.
</event>
<event>
 7    1  0.5957303E-006  0.1083928E+03  0.7818608E-02  0.1394013E+00
          2   -1    0    0  502    0  0.00000000000E+00  0.00000000000E+00  0.20910698394E+04  0.20910698394E+04  0.00000000000E+00 0. -1.
          1   -1    0    0  501    0 -0.00000000000E+00 -0.00000000000E+00 -0.31707179389E+02  0.31707179389E+02  0.00000000000E+00 0. -1.
         25    2    1    2    0    0  0.11343613569E+03  0.43500958634E+02  0.42456409165E+03  0.45895534277E+03  0.12500099383E+03 0.  0.
          2    1    1    2  501    0 -0.84099718799E+02 -0.61154340086E+02  0.17457713869E+03  0.20319890100E+03  0.00000000000E+00 0. -1.
          1    1    1    2  502    0 -0.29336416891E+02  0.17653381451E+02  0.14602214297E+04  0.14606227750E+04  0.00000000000E+00 0. -1.
         22    1    3    3    0    0  0.67290811440E+02  0.46233708677E+02  0.91215267903E+02  0.12241664193E+03  0.00000000000E+00 0. -1.
         22    1    3    3    0    0  0.46145324250E+02 -0.27327500428E+01  0.33334882375E+03  0.33653870084E+03  0.00000000000E+00 0. -1.
</event>
<event>
 7    1  0.5957303E-006  0.1640400E+03  0.7818608E-02  0.1326423E+00
          2   -1    0    0  502    0  0.00000000000E+00  0.00000000000E+00  0.15595727445E+03  0.15595727445E+03  0.00000000000E+00 0. -1.
          1   -1    0    0  501    0 -0.00000000000E+00 -0.00000000000E+00 -0.13847535456E+04  0.13847535456E+04  0.00000000000E+00 0. -1.
         25    2    1    2    0    0  0.12916682134E+03  0.12479638260E+03 -0.87638545453E+03  0.90329122294E+03  0.12500145473E+03 0.  0.
          2    1    1    2  501    0 -0.12558829785E+03 -0.85026503436E+02 -0.48017691470E+03  0.50355912886E+03  0.00000000000E+00 0. -1.
          1    1    1    2  502    0 -0.35785234866E+01 -0.39769879165E+02  0.12776609813E+03  0.13386046821E+03  0.00000000000E+00 0. -1.
         22    1    3    3    0    0  0.13438677539E+03  0.12451384974E+03 -0.61149407250E+03  0.63834826300E+03  0.00000000000E+00 0.  1.
         22    1    3    3    0    0 -0.52199540574E+01  0.28253285680E+00 -0.26489138203E+03  0.26494295994E+03  0.00000000000E+00 0.  1.
</event>
<event>
 7    1  0.5957303E-006  0.1028107E+03  0.7818608E-02  0.1371755E+00
          2   -1    0    0  502    0  0.00000000000E+00  0.00000000000E+00  0.58412201974E+02  0.58412201974E+02  0.00000000000E+00 0. -1.
          1   -1    0    0  501    0 -0.00000000000E+00 -0.00000000000E+00 -0.12023378177E+04  0.12023378177E+04  0.00000000000E+00 0. -1.
         25    2    1    2    0    0  0.78092162650E+02 -0.51931836474E+01 -0.19287516914E+03  0.24279877026E+03  0.12500022777E+03 0.  0.
          2    1    1    2  501    0  0.35043446390E+02  0.25346186184E+02 -0.88368959591E+03  0.88474729398E+03  0.00000000000E+00 0. -1.
          1    1    1    2  502    0 -0.11313560904E+03 -0.20153002536E+02 -0.67360850706E+02  0.13320395547E+03  0.00000000000E+00 0. -1.
         22    1    3    3    0    0 -0.30803724230E+02 -0.18614206128E+02 -0.65041884461E+02  0.74335757415E+02  0.00000000000E+00 0.  1.
         22    1    3    3    0    0  0.10889588688E+03  0.13421022481E+02 -0.12783328468E+03  0.16846301284E+03  0.00000000000E+00 0.  1.
</event>
<event>
 7    1  0.5957303E-006  0.7121333E+02  0.7818608E-02  0.1496292E+00
          2   -1    0    0  502    0  0.00000000000E+00  0.00000000000E+00  0.39881209513E+03  0.39881209513E+03  0.00000000000E+00 0. -1.
          1   -1    0    0  501    0 -0.00000000000E+00 -0.00000000000E+00 -0.39713220009E+03  0.39713220009E+03  0.00000000000E+00 0. -1.
         25    2    1    2    0    0  0.71062609194E+02  0.58276989344E+02 -0.10270483534E+03  0.18606349056E+03  0.12500094962E+03 0.  0.
          2    1    1    2  501    0 -0.10273763655E+02 -0.22108608831E+02 -0.24864352304E+03  0.24983583081E+03  0.00000000000E+00 0. -1.
          1    1    1    2  502    0 -0.60788845539E+02 -0.36168380514E+02  0.35302825341E+03  0.36004497385E+03  0.00000000000E+00 0. -1.
         22    1    3    3    0    0 -0.16419772490E+02  0.75448049133E-01  0.19108177514E+02  0.25193988746E+02  0.00000000000E+00 0. -1.
         22    1    3    3    0    0  0.87482381684E+02  0.58201541295E+02 -0.12181301285E+03  0.16086950181E+03  0.00000000000E+00 0. -1.
</event>
<event>
 7    1  0.5957303E-006  0.1149441E+03  0.7818608E-02  0.1369131E+00
          2   -1    0    0  502    0  0.00000000000E+00  0.00000000000E+00  0.69213542889E+03  0.69213542889E+03  0.00000000000E+00 0. -1.
          1   -1    0    0  501    0 -0.00000000000E+00 -0.00000000000E+00 -0.40683206894E+03  0.40683206894E+03  0.00000000000E+00 0. -1.
         25    2    1    2    0    0  0.12780443047E+03  0.39994469870E+02 -0.15534363533E+03  0.24018440482E+03  0.12499349269E+03 0.  0.
          2    1    1    2  501    0 -0.13250224918E+02 -0.37245597524E+02 -0.20208561942E+03  0.20591600368E+03  0.00000000000E+00 0. -1.
          1    1    1    2  502    0 -0.11455420555E+03 -0.27488723460E+01  0.64273261471E+03  0.65286708932E+03  0.00000000000E+00 0. -1.
         22    1    3    3    0    0 -0.80299975888E+01 -0.18469320773E+01 -0.77877029017E+02  0.78311708371E+02  0.00000000000E+00 0. -1.
         22    1    3    3    0    0  0.13583442806E+03  0.41841401947E+02 -0.77466606311E+02  0.16187269645E+03  0.00000000000E+00 0. -1.
</event>
<event>
 7    1  0.5957303E-006  0.1142219E+03  0.7818608E-02  0.1373016E+00
          2   -1    0    0  502    0  0.00000000000E+00  0.00000000000E+00  0.68155195982E+03  0.68155195982E+03  0.00000000000E+00 0. -1.
          1   -1    0    0  501    0 -0.00000000000E+00 -0.00000000000E+00 -0.69672708820E+02  0.69672708820E+02  0.00000000000E+00 0. -1.
         25    2    1    2    0    0 -0.89329316636E+02  0.16050570796E+02  0.45010038872E+03  0.47587021088E+03  0.12499900018E+03 0.  0.
          2    1    1    2  501    0  0.11740045878E+03  0.10335313733E+02  0.94538021100E+01  0.11823307831E+03  0.00000000000E+00 0. -1.
          1    1    1    2  502    0 -0.28071142146E+02 -0.26385884529E+02  0.15232506016E+03  0.15712137944E+03  0.00000000000E+00 0. -1.
         22    1    3    3    0    0  0.78128906748E+01 -0.38919883537E+02  0.16478969751E+03  0.16950351914E+03  0.00000000000E+00 0.  1.
         22    1    3    3    0    0 -0.97142207311E+02  0.54970454332E+02  0.28531069121E+03  0.30636669174E+03  0.00000000000E+00 0.  1.
</event>
<event>
 7    1  0.5957303E-006  0.1090029E+03  0.7818608E-02  0.1268280E+00
          2   -1    0    0  502    0  0.00000000000E+00  0.00000000000E+00  0.12898285625E+04  0.12898285625E+04  0.00000000000E+00 0. -1.
          1   -1    0    0  501    0 -0.00000000000E+00 -0.00000000000E+00 -0.39235613536E+03  0.39235613536E+03  0.00000000000E+00 0. -1.
         25    2    1    2    0    0 -0.10764237137E+03 -0.12927133347E+03  0.23436705651E+03  0.31442363853E+03  0.12504538985E+03 0.  0.
          2    1    1    2  501    0  0.10488446850E+03  0.26346569722E+02 -0.34133542546E+03  0.35805693143E+03  0.00000000000E+00 0. -1.
          1    1    1    2  502    0  0.27579028693E+01  0.10292476375E+03  0.10044407961E+04  0.10097041279E+04  0.00000000000E+00 0. -1.
         22    1    3    3    0    0  0.17335454170E+02  0.79512309474E+01  0.56902852767E+01  0.19902748338E+02  0.00000000000E+00 0. -1.
         22    1    3    3    0    0 -0.12497782554E+03 -0.13722256442E+03  0.22867677123E+03  0.29452089020E+03  0.00000000000E+00 0. -1.
</event>
<event>
 7    1  0.5957303E-006  0.1996406E+03  0.7818608E-02  0.1183163E+00
          2   -1    0    0  502    0  0.00000000000E+00  0.00000000000E+00  0.92133232080E+03  0.92133232080E+03  0.00000000000E+00 0. -1.
          1   -1    0    0  501    0 -0.00000000000E+00 -0.00000000000E+00 -0.50577998694E+03  0.50577998694E+03  0.00000000000E+00 0. -1.
         25    2    1    2    0    0  0.22868727774E+03 -0.10982358177E+03  0.23071930341E+03  0.36498876103E+03  0.12500523428E+03 0.  0.
          2    1    1    2  501    0 -0.10532543770E+03  0.16795716436E+03 -0.40810232528E+03  0.45370757629E+03  0.00000000000E+00 0. -1.
          1    1    1    2  502    0 -0.12336184004E+03 -0.58133582587E+02  0.59293535572E+03  0.60841597042E+03  0.00000000000E+00 0. -1.
         22    1    3    3    0    0  0.27776211564E+02 -0.72706254879E+02  0.75159954390E+02  0.10819767175E+03  0.00000000000E+00 0.  1.
         22    1    3    3    0    0  0.20091106618E+03 -0.37117326894E+02  0.15555934902E+03  0.25679108929E+03  0.00000000000E+00 0.  1.
</event>
<event>
 7    1  0.5957303E-006  0.4480363E+02  0.7818608E-02  0.1516397E+00
          2   -1    0    0  502    0  0.00000000000E+00  0.00000000000E+00  0.10560775009E+04  0.10560775009E+04  0.00000000000E+00 0. -1.
          1   -1    0    0  501    0 -0.00000000000E+00 -0.00000000000E+00 -0.81127304205E+03  0.81127304205E+03  0.00000000000E+00 0. -1.
         25    2    1    2    0    0  0.40291308300E+02 -0.34434596876E+01 -0.16693012976E+03  0.21243214112E+03  0.12500599753E+03 0.  0.
          2    1    1    2  501    0 -0.34248264422E+02 -0.29801708365E+02 -0.62048612748E+03  0.62214477402E+03  0.00000000000E+00 0. -1.
          1    1    1    2  502    0 -0.60430438772E+01  0.33245168053E+02  0.10322207161E+04  0.10327736279E+04  0.00000000000E+00 0. -1.
         22    1    3    3    0    0  0.21478897107E+02  0.35535765145E+02 -0.16246701161E+01  0.41554460390E+02  0.00000000000E+00 0.  1.
         22    1    3    3    0    0  0.18812411193E+02 -0.38979224832E+02 -0.16530545964E+03  0.17087768073E+03  0.00000000000E+00 0.  1.
</event>
<event>
 7    1  0.5957303E-006  0.5410405E+02  0.7818608E-02  0.1488838E+00
          2   -1    0    0  502    0  0.00000000000E+00  0.00000000000E+00  0.76591164703E+03  0.76591164703E+03  0.00000000000E+00 0. -1.
          1   -1    0    0  501    0 -0.00000000000E+00 -0.00000000000E+00 -0.41658958467E+03  0.41658958467E+03  0.00000000000E+00 0. -1.
         25    2    1    2    0    0  0.80541019257E+01  0.51363386810E+02  0.26689904685E+03  0.29927345471E+03  0.12500573356E+03 0.  0.
          2    1    1    2  501    0 -0.33704029083E+02 -0.24460261348E+01 -0.39810453482E+03  0.39953618768E+03  0.00000000000E+00 0. -1.
          1    1    1    2  502    0  0.25649927158E+02 -0.48917360675E+02  0.48052755033E+03  0.48369158931E+03  0.00000000000E+00 0. -1.
         22    1    3    3    0    0  0.16276582174E+02 -0.23513200246E+02  0.18810382381E+03  0.19026519977E+03  0.00000000000E+00 0. -1.
         22    1    3    3    0    0 -0.82224802481E+01  0.74876587055E+02  0.78795223037E+02  0.10900825494E+03  0.00000000000E+00 0. -1.
</event>
<event>
 7    1  0.5957303E-006  0.6805467E+02  0.7818608E-02  0.1418390E+00
          2   -1    0    0  502    0  0.00000000000E+00  0.00000000000E+00  0.12614797045E+03  0.12614797045E+03  0.00000000000E+00 0. -1.
          1   -1    0    0  501    0 -0.00000000000E+00 -0.00000000000E+00 -0.94555241868E+03  0.94555241868E+03  0.00000000000E+00 0. -1.
         25    2    1    2    0    0 -0.30357727651E+02  0.47344690279E+02 -0.58330296873E+03  0.59919164196E+03  0.12500063654E+03 0.  0.
          2    1    1    2  501    0  0.40133159038E+02  0.20439616869E+02 -0.34278698563E+03  0.34573308478E+03  0.00000000000E+00 0. -1.
          1    1    1    2  502    0 -0.97754313861E+01 -0.67784307148E+02  0.10668550614E+03  0.12677566239E+03  0.00000000000E+00 0. -1.
         22    1    3    3    0    0  0.96840152560E+01  0.23134378945E+02 -0.51931551865E+03  0.51992075122E+03  0.00000000000E+00 0.  1.
         22    1    3    3    0    0 -0.40041742907E+02  0.24210311334E+02 -0.63987450078E+02  0.79270890732E+02  0.00000000000E+00 0.  1.
</event>
<event>
 7    1  0.5957303E-006  0.1734809E+03  0.7818608E-02  0.1270966E+00
          2   -1    0    0  502    0  0.00000000000E+00  0.00000000000E+00  0.13848597659E+03  0.13848597659E+03  0.00000000000E+00 0. -1.
          1   -1    0    0  501    0 -0.00000000000E+00 -0.00000000000E+00 -0.98632425967E+03  0.98632425967E+03  0.00000000000E+00 0. -1.
         25    2    1    2    0    0 -0.13377763922E+03 -0.78012124238E+02 -0.21783195476E+03  0.29505495426E+03  0.12499726891E+03 0.  0.
          2    1    1    2  501    0  0.17807132945E+03  0.33163429667E+02 -0.70723828490E+03  0.73006520467E+03  0.00000000000E+00 0. -1.
          1    1    1    2  502    0 -0.44293690226E+02  0.44848694570E+02  0.77231956591E+02  0.99690077326E+02  0.00000000000E+00 0. -1.
         22    1    3    3    0    0 -0.10129908283E+03 -0.18284432153E+00 -0.64588289895E+02  0.12013819046E+03  0.00000000000E+00 0.  1.
         22    1    3    3    0    0 -0.32478556389E+02 -0.77829279916E+02 -0.15324366487E+03  0.17491676380E+03  0.00000000000E+00 0.  1.
</event>
<event>
 7    1  0.5957303E-006  0.7850374E+02  0.7818608E-02  0.1495933E+00
          2   -1    0    0  502    0  0.00000000000E+00  0.00000000000E+00  0.18557944382E+03  0.18557944382E+03  0.00000000000E+00 0. -1.
          1   -1    0    0  501    0 -0.00000000000E+00 -0.00000000000E+00 -0.11513671047E+04  0.11513671047E+04  0.00000000000E+00 0. -1.
         25    2    1    2    0    0  0.96636242947E+02 -0.13046774557E+02  0.44673726197E+02  0.16471401384E+03  0.12500473097E+03 0.  0.
          2    1    1    2  501    0 -0.75626742030E+02  0.20125620736E+02 -0.10883960121E+04  0.10912059035E+04  0.00000000000E+00 0. -1.
          1    1    1    2  502    0 -0.21009500917E+02 -0.70788461784E+01  0.77934624979E+02  0.81026631194E+02  0.00000000000E+00 0. -1.
         22    1    3    3    0    0  0.11572492096E+03  0.18578560667E+02  0.16728029148E+02  0.11839445598E+03  0.00000000000E+00 0.  1.
         22    1    3    3    0    0 -0.19088678017E+02 -0.31625335224E+02  0.27945697048E+02  0.46319557856E+02  0.00000000000E+00 0.  1.
</event>
<event>
 7    1  0.5957303E-006  0.4397310E+02  0.7818608E-02  0.1574763E+00
          2   -1    0    0  502    0  0.00000000000E+00  0.00000000000E+00  0.66572139624E+02  0.66572139624E+02  0.00000000000E+00 0. -1.
          1   -1    0    0  501    0 -0.00000000000E+00 -0.00000000000E+00 -0.12394154393E+04  0.12394154393E+04  0.00000000000E+00 0. -1.
         25    2    1    2    0    0 -0.23625921705E+02 -0.14959098233E+02 -0.24960020787E+03  0.28054910875E+03  0.12500231941E+03 0.  0.
          2    1    1    2  501    0  0.44441092402E+02  0.38175582342E+01 -0.97107408415E+03  0.97209796901E+03  0.00000000000E+00 0. -1.
          1    1    1    2  502    0 -0.20815170698E+02  0.11141539999E+02  0.47830992297E+02  0.53340501206E+02  0.00000000000E+00 0. -1.
         22    1    3    3    0    0 -0.35478308127E+02 -0.14389223629E+01 -0.25819185438E+03  0.26062197627E+03  0.00000000000E+00 0.  1.
         22    1    3    3    0    0  0.11852386423E+02 -0.13520175870E+02  0.85916465098E+01  0.19927132488E+02  0.00000000000E+00 0.  1.
</event>
<event>
 7    1  0.5957303E-006  0.6076210E+02  0.7818608E-02  0.1454052E+00
          2   -1    0    0  502    0  0.00000000000E+00  0.00000000000E+00  0.75363061729E+03  0.75363061729E+03  0.00000000000E+00 0. -1.
          1   -1    0    0  501    0 -0.00000000000E+00 -0.00000000000E+00 -0.84545520038E+02  0.84545520038E+02  0.00000000000E+00 0. -1.
         25    2    1    2    0    0 -0.14595259615E+02 -0.45750393205E+02  0.24981731463E+03  0.28344236633E+03  0.12499905703E+03 0.  0.
          2    1    1    2  501    0  0.35945133066E+02 -0.14028806763E+02 -0.59969626623E+02  0.71310701355E+02  0.00000000000E+00 0. -1.
          1    1    1    2  502    0 -0.21349873451E+02  0.59779199968E+02  0.47923740925E+03  0.48342306965E+03  0.00000000000E+00 0. -1.
         22    1    3    3    0    0  0.45507364392E+02 -0.45695506414E+02  0.76815083940E+02  0.10029734115E+03  0.00000000000E+00 0. -1.
         22    1    3    3    0    0 -0.60102624007E+02 -0.54886791201E-01  0.17300223069E+03  0.18314502518E+03  0.00000000000E+00 0. -1.
</event>
<event>
 7    1  0.5957303E-006  0.4875904E+02  0.7818608E-02  0.1572220E+00
          2   -1    0    0  502    0  0.00000000000E+00  0.00000000000E+00  0.14128558356E+03  0.14128558356E+03  0.00000000000E+00 0. -1.
          1   -1    0    0  501    0 -0.00000000000E+00 -0.00000000000E+00 -0.96193531330E+03  0.96193531330E+03  0.00000000000E+00 0. -1.
         25    2    1    2    0    0  0.42569976578E+02  0.98843458555E+01  0.19195990858E+02  0.13380420921E+03  0.12500070855E+03 0.  0.
          2    1    1    2  501    0  0.65203156116E+01 -0.20625819608E+02 -0.89473616638E+03  0.89499762368E+03  0.00000000000E+00 0. -1.
          1    1    1    2  502    0 -0.49090292190E+02  0.10741473753E+02  0.54890445781E+02  0.74419063980E+02  0.00000000000E+00 0. -1.
         22    1    3    3    0    0  0.15441204904E+02  0.63829370436E+02 -0.10516634382E+02  0.66507284848E+02  0.00000000000E+00 0. -1.
         22    1    3    3    0    0  0.27128771674E+02 -0.53945024581E+02  0.29712625240E+02  0.67296924359E+02  0.00000000000E+00 0. -1.
</event>
<event>
 7    1  0.5957303E-006  0.1942800E+03  0.7818608E-02  0.1221164E+00
          2   -1    0    0  502    0  0.00000000000E+00  0.00000000000E+00  0.12395613575E+04  0.12395613575E+04  0.00000000000E+00 0. -1.
          1   -1    0    0  501    0 -0.00000000000E+00 -0.00000000000E+00 -0.83799477597E+03  0.83799477597E+03  0.00000000000E+00 0. -1.
         25    2    1    2    0    0 -0.51539862036E+02  0.27416578255E+03  0.28395209873E+02  0.30700992607E+03  0.12500229221E+03 0.  0.
          2    1    1    2  501    0  0.49501532695E+02 -0.18130446917E+03 -0.68397555080E+03  0.70932662883E+03  0.00000000000E+00 0. -1.
          1    1    1    2  502    0  0.20383293411E+01 -0.92861313383E+02  0.10571469224E+04  0.10612195786E+04  0.00000000000E+00 0. -1.
         22    1    3    3    0    0 -0.34349635281E+02  0.12580471830E+03 -0.48359893493E+02  0.13908775607E+03  0.00000000000E+00 0. -1.
         22    1    3    3    0    0 -0.17190226756E+02  0.14836106426E+03  0.76755103366E+02  0.16792217000E+03  0.00000000000E+00 0. -1.
</event>
<event>
 7    1  0.5957303E-006  0.3562605E+02  0.7818608E-02  0.1582417E+00
          2   -1    0    0  502    0  0.00000000000E+00  0.00000000000E+00  0.96733778507E+03  0.96733778507E+03  0.00000000000E+00 0. -1.
          1   -1    0    0  501    0 -0.00000000000E+00 -0.00000000000E+00 -0.50434239816E+03  0.50434239816E+03  0.00000000000E+00 0. -1.
         25    2    1    2    0    0  0.50390581866E+02 -0.37340026751E+02  0.15968485029E+03  0.21226655384E+03  0.12499740049E+03 0.  0.
          2    1    1    2  501    0 -0.24001541353E+02  0.14014362548E+02 -0.47725014097E+03  0.47805875517E+03  0.00000000000E+00 0. -1.
          1    1    1    2  502    0 -0.26389040513E+02  0.23325664203E+02  0.78056067758E+03  0.78135487422E+03  0.00000000000E+00 0. -1.
         22    1    3    3    0    0  0.25493049567E+02 -0.51921187675E+02  0.17157271002E+03  0.18106048749E+03  0.00000000000E+00 0. -1.
         22    1    3    3    0    0  0.24897532298E+02  0.14581160925E+02 -0.11887859730E+02  0.31206066356E+02  0.00000000000E+00 0. -1.
</event>
<event>
 7    1  0.5957303E-006  0.2198958E+03  0.7818608E-02  0.1206969E+00
          2   -1    0    0  502    0  0.00000000000E+00  0.00000000000E+00  0.21881820520E+04  0.21881820520E+04  0.00000000000E+00 0. -1.
          1   -1    0    0  501    0 -0.00000000000E+00 -0.00000000000E+00 -0.90328488834E+03  0.90328488834E+03  0.00000000000E+00 0. -1.
         25    2    1    2    0    0 -0.13585660456E+03  0.54480480237E+02  0.24177491239E+03  0.30904463621E+03  0.12501335601E+03 0.  0.
          2    1    1    2  501    0 -0.65199481931E+02  0.69635601759E+02 -0.85970497670E+03  0.86498135034E+03  0.00000000000E+00 0. -1.
          1    1    1    2  502    0  0.20105608649E+03 -0.12411608200E+03  0.19028272280E+04  0.19174409538E+04  0.00000000000E+00 0. -1.
         22    1    3    3    0    0 -0.56449917823E+02  0.61252950017E+02  0.20499408354E+03  0.22127153318E+03  0.00000000000E+00 0.  1.
         22    1    3    3    0    0 -0.79406686734E+02 -0.67724697806E+01  0.36780828849E+02  0.87773103032E+02  0.00000000000E+00 0.  1.
</event>
<event>
 7    1  0.5957303E-006  0.1429006E+03  0.7818608E-02  0.1398554E+00
          2   -1    0    0  502    0  0.00000000000E+00  0.00000000000E+00  0.20595762887E+04  0.20595762887E+04  0.00000000000E+00 0. -1.
          1   -1    0    0  501    0 -0.00000000000E+00 -0.00000000000E+00 -0.37907572399E+03  0.37907572399E+03  0.00000000000E+00 0. -1.
         25    2    1    2    0    0 -0.11200565049E+03 -0.38382192548E+02 -0.10242548774E+03  0.20033854545E+03  0.12500437516E+03 0.  0.
          2    1    1    2  501    0 -0.24463496241E+02 -0.53808996500E+01 -0.22444230383E+03  0.22583570240E+03  0.00000000000E+00 0. -1.
          1    1    1    2  502    0  0.13646914673E+03  0.43763092198E+02  0.20073683563E+04  0.20124777648E+04  0.00000000000E+00 0. -1.
         22    1    3    3    0    0  0.19618770700E+02  0.80393623870E+01  0.76962284380E+01  0.22555696476E+02  0.00000000000E+00 0. -1.
         22    1    3    3    0    0 -0.13162442119E+03 -0.46421554935E+02 -0.11012171617E+03  0.17778284897E+03  0.00000000000E+00 0. -1.
</event>
<event>
 7    1  0.5957303E-006  0.4184609E+02  0.7818608E-02  0.1511934E+00
          2   -1    0    0  502    0  0.00000000000E+00  0.00000000000E+00  0.25366147144E+03  0.25366147144E+03  0.00000000000E+00 0. -1.
          1   -1    0    0  501    0 -0.00000000000E+00 -0.00000000000E+00 -0.60901487266E+03  0.60901487266E+03  0.00000000000E+00 0. -1.
         25    2    1    2    0    0 -0.10260204701E+02 -0.86702456205E+01 -0.61015816517E+02  0.13975490440E+03  0.12501223332E+03 0.  0.
          2    1    1    2  501    0 -0.30245026004E+02  0.21800249723E+02 -0.50582145371E+03  0.50719360753E+03  0.00000000000E+00 0. -1.
          1    1    1    2  502    0  0.40505230705E+02 -0.13130004103E+02  0.21148386901E+03  0.21572783217E+03  0.00000000000E+00 0. -1.
         22    1    3    3    0    0 -0.28424934723E+02 -0.61134710912E+02 -0.18752800367E+02  0.69979263457E+02  0.00000000000E+00 0.  1.
         22    1    3    3    0    0  0.18164730023E+02  0.52464465292E+02 -0.42263016150E+02  0.69775640945E+02  0.00000000000E+00 0.  1.
</event>
<event>
 7    1  0.5957303E-006  0.5819958E+02  0.7818608E-02  0.1444487E+00
          2   -1    0    0  502    0  0.00000000000E+00  0.00000000000E+00  0.25171751283E+03  0.25171751283E+03  0.00000000000E+00 0. -1.
          1   -1    0    0  501    0 -0.00000000000E+00 -0.00000000000E+00 -0.83788963700E+03  0.83788963700E+03  0.00000000000E+00 0. -1.
         25    2    1    2    0    0  0.88948726387E+02 -0.29815738183E+02  0.95896239247E+02  0.18337182782E+03  0.12501313677E+03 0.  0.
          2    1    1    2  501    0 -0.43149102707E+02  0.26227380479E+01 -0.78719713900E+03  0.78838319330E+03  0.00000000000E+00 0. -1.
          1    1    1    2  502    0 -0.45799623680E+02  0.27193000135E+02  0.10512877558E+03  0.11785212871E+03  0.00000000000E+00 0. -1.
         22    1    3    3    0    0 -0.27522296823E+02  0.14989740237E+02  0.22703479734E+02  0.38699058475E+02  0.00000000000E+00 0. -1.
         22    1    3    3    0    0  0.11647102321E+03 -0.44805478420E+02  0.73192759512E+02  0.14467276934E+03  0.00000000000E+00 0. -1.
</event>
<event>
 7    1  0.5957303E-006  0.1478105E+03  0.7818608E-02  0.1311672E+00
          2   -1    0    0  502    0  0.00000000000E+00  0.00000000000E+00  0.15960748511E+04  0.15960748511E+04  0.00000000000E+00 0. -1.
          1   -1    0    0  501    0 -0.00000000000E+00 -0.00000000000E+00 -0.52343796267E+03  0.52343796267E+03  0.00000000000E+00 0. -1.
         25    2    1    2    0    0  0.10628285833E+03  0.14473363683E+03 -0.49344017354E+02  0.22428586316E+03  0.12500177902E+03 0.  0.
          2    1    1    2  501    0 -0.10828872546E+03 -0.94206081758E+02 -0.37285948369E+03  0.39953151125E+03  0.00000000000E+00 0. -1.
          1    1    1    2  502    0  0.20058671320E+01 -0.50527555077E+02  0.14948403895E+04  0.14956954394E+04  0.00000000000E+00 0. -1.
         22    1    3    3    0    0  0.86350586807E+02  0.15205232834E+03 -0.75612517274E+02  0.19050875876E+03  0.00000000000E+00 0.  1.
         22    1    3    3    0    0  0.19932271525E+02 -0.73186915091E+01  0.26268499920E+02  0.33777104399E+02  0.00000000000E+00 0.  1.
</event>
<event>
 7    1  0.5957303E-006  0.8769242E+02  0.7818608E-02  0.1312759E+00
          2   -1    0    0  502    0  0.00000000000E+00  0.00000000000E+00  0.22957368683E+03  0.22957368683E+03  0.00000000000E+00 0. -1.
          1   -1    0    0  501    0 -0.00000000000E+00 -0.00000000000E+00 -0.51210644082E+03  0.51210644082E+03  0.00000000000E+00 0. -1.
         25    2    1    2    0    0  0.69097866088E+02  0.20465552875E+02 -0.72817641255E+02  0.16159791786E+03  0.12497249388E+03 0.  0.
          2    1    1    2  501    0 -0.18982467365E+01 -0.84379182310E+02 -0.37833858630E+03  0.38763840836E+03  0.00000000000E+00 0. -1.
          1    1    1    2  502    0 -0.67199619352E+02  0.63913629435E+02  0.16862347357E+03  0.19244380143E+03  0.00000000000E+00 0. -1.
         22    1    3    3    0    0 -0.19682447625E+02  0.14398247514E+02  0.21078105391E+02  0.32233442305E+02  0.00000000000E+00 0.  1.
         22    1    3    3    0    0  0.88780313714E+02  0.60673053613E+01 -0.93895746646E+02  0.12936447556E+03  0.00000000000E+00 0.  1.
</event>
<event>
 7    1  0.5957303E-006  0.9899660E+02  0.7818608E-02  0.1381995E+00
          2   -1    0    0  502    0  0.00000000000E+00  0.00000000000E+00  0.40884792527E+02  0.40884792527E+02  0.00000000000E+00 0. -1.
          1   -1    0    0  501    0 -0.00000000000E+00 -0.00000000000E+00 -0.14527940438E+04  0.14527940438E+04  0.00000000000E+00 0. -1.
         25    2    1    2    0    0  0.10835922839E+03 -0.79853499390E+02 -0.70536435042E+03  0.72889110460E+03  0.12500028710E+03 0.  0.
          2    1    1    2  501    0 -0.26180047686E+02  0.31942691424E+02 -0.65556123551E+03  0.65686091673E+03  0.00000000000E+00 0. -1.
          1    1    1    2  502    0 -0.82179180704E+02  0.47910807966E+02 -0.50983665329E+02  0.10792681498E+03  0.00000000000E+00 0. -1.
         22    1    3    3    0    0  0.21370426667E+02  0.94242696996E+01 -0.15912098437E+02  0.28261402512E+02  0.00000000000E+00 0.  1.
         22    1    3    3    0    0  0.86988801723E+02 -0.89277769089E+02 -0.68945225198E+03  0.70062970208E+03  0.00000000000E+00 0.  1.
</event>
<event>
 7    1  0.5957303E-006  0.6034737E+02  0.7818608E-02  0.1447782E+00
          2   -1    0    0  502    0  0.00000000000E+00  0.00000000000E+00  0.16660738491E+04  0.16660738491E+04  0.00000000000E+00 0. -1.
          1   -1    0    0  501    0 -0.00000000000E+00 -0.00000000000E+00 -0.34023187461E+03  0.34023187461E+03  0.00000000000E+00 0. -1.
         25    2    1    2    0    0 -0.31851618403E+02 -0.19663535801E+02 -0.63072686875E+02  0.14492511098E+03  0.12499577484E+03 0.  0.
          2    1    1    2  501    0  0.14051644274E+02 -0.38181501201E+02 -0.23391296266E+03  0.23742482987E+03  0.00000000000E+00 0. -1.
          1    1    1    2  502    0  0.17799974128E+02  0.57845037002E+02  0.16228276240E+04  0.16239557829E+04  0.00000000000E+00 0. -1.
         22    1    3    3    0    0  0.25372595626E+02 -0.50203794867E+02 -0.56503008768E+02  0.79729415072E+02  0.00000000000E+00 0.  1.
         22    1    3    3    0    0 -0.57224214029E+02  0.30540259066E+02 -0.65696781070E+01  0.65195695912E+02  0.00000000000E+00 0.  1.
</event>
<event>
 7    1  0.5957303E-006  0.5567066E+02  0.7818608E-02  0.1432980E+00
          2   -1    0    0  502    0  0.00000000000E+00  0.00000000000E+00  0.11270422879E+03  0.11270422879E+03  0.00000000000E+00 0. -1.
          1   -1    0    0  501    0 -0.00000000000E+00 -0.00000000000E+00 -0.50919863775E+03  0.50919863775E+03  0.00000000000E+00 0. -1.
         25    2    1    2    0    0 -0.72259476361E+02  0.68635639662E+02 -0.10576870860E+03  0.19168675284E+03  0.12499803414E+03 0.  0.
          2    1    1    2  501    0  0.28902060063E+02 -0.45257521572E+02 -0.34945918879E+03  0.35356088155E+03  0.00000000000E+00 0. -1.
          1    1    1    2  502    0  0.43357416298E+02 -0.23378118091E+02  0.58733488423E+02  0.76655232149E+02  0.00000000000E+00 0. -1.
         22    1    3    3    0    0 -0.43819134282E+02 -0.19789657225E+02  0.35778454153E+01  0.48213566972E+02  0.00000000000E+00 0.  1.
         22    1    3    3    0    0 -0.28440342078E+02  0.88425296887E+02 -0.10934655402E+03  0.14347318587E+03  0.00000000000E+00 0.  1.
</event>
<event>
 7    1  0.5957303E-006  0.1367927E+03  0.7818608E-02  0.1269056E+00
          2   -1    0    0  502    0  0.00000000000E+00  0.00000000000E+00  0.12709009870E+04  0.12709009870E+04  0.00000000000E+00 0. -1.
          1   -1    0    0  501    0 -0.00000000000E+00 -0.00000000000E+00 -0.17746421919E+03  0.17746421919E+03  0.00000000000E+00 0. -1.
         25    2    1    2    0    0  0.19066154928E+03  0.40254992556E+02  0.47226666350E+03  0.52595762178E+03  0.12499331048E+03 0.  0.
          2    1    1    2  501    0 -0.79067147190E+02  0.19474029522E+02 -0.13394651411E+03  0.15675624464E+03  0.00000000000E+00 0. -1.
          1    1    1    2  502    0 -0.11159440209E+03 -0.59729022078E+02  0.75511661840E+03  0.76565133974E+03  0.00000000000E+00 0. -1.
         22    1    3    3    0    0  0.69239398731E+02 -0.45498705244E+02  0.17082498816E+03  0.18985626957E+03  0.00000000000E+00 0. -1.
         22    1    3    3    0    0  0.12142215054E+03  0.85753697800E+02  0.30144167534E+03  0.33610135221E+03  0.00000000000E+00 0. -1.
</event>
<event>
 7    1  0.5957303E-006  0.4515631E+02  0.7818608E-02  0.1585930E+00
          2   -1    0    0  502    0  0.00000000000E+00  0.00000000000E+00  0.13957514635E+03  0.13957514635E+03  0.00000000000E+00 0. -1.
          1   -1    0    0  501    0 -0.00000000000E+00 -0.00000000000E+00 -0.19648786583E+04  0.19648786583E+04  0.00000000000E+00 0. -1.
         25    2    1    2    0    0 -0.55773608232E+02 -0.14828019850E+02  0.86468764164E+02  0.16258086200E+03  0.12500049586E+03 0.  0.
          2    1    1    2  501    0  0.44982997259E+02 -0.37214232270E+01 -0.19187702287E+04  0.19193010472E+04  0.00000000000E+00 0. -1.
          1    1    1    2  502    0  0.10790610973E+02  0.18549443077E+02  0.69979526341E+01  0.22571895461E+02  0.00000000000E+00 0. -1.
         22    1    3    3    0    0 -0.45493278995E+02  0.52280901594E+02  0.50490864328E+02  0.85745311742E+02  0.00000000000E+00 0.  1.
         22    1    3    3    0    0 -0.10280329237E+02 -0.67108921444E+02  0.35977899836E+02  0.76835550256E+02  0.00000000000E+00 0.  1.
</event>
<event>
 7    1  0.5957303E-006  0.6762096E+02  0.7818608E-02  0.1448335E+00
          2   -1    0    0  502    0  0.00000000000E+00  0.00000000000E+00  0.90105232634E+03  0.90105232634E+03  0.00000000000E+00 0. -1.
          1   -1    0    0  501    0 -0.00000000000E+00 -0.00000000000E+00 -0.11771898335E+04  0.11771898335E+04  0.00000000000E+00 0. -1.
         25    2    1    2    0    0  0.39422922075E+02 -0.23763697780E+01  0.38279793077E+03  0.40462299805E+03  0.12500280328E+03 0.  0.
          2    1    1    2  501    0 -0.59368174790E+02  0.32539094909E+02 -0.11646486853E+04  0.11666147321E+04  0.00000000000E+00 0. -1.
          1    1    1    2  502    0  0.19945252715E+02 -0.30162725130E+02  0.50571324742E+03  0.50700442968E+03  0.00000000000E+00 0. -1.
         22    1    3    3    0    0 -0.37738033726E+02  0.14694788115E+02  0.21953774677E+03  0.22324183803E+03  0.00000000000E+00 0. -1.
         22    1    3    3    0    0  0.77160955801E+02 -0.17071157893E+02  0.16326018400E+03  0.18138116002E+03  0.00000000000E+00 0. -1.
</event>
<event>
 7    1  0.5957303E-006  0.9197959E+02  0.7818608E-02  0.1486044E+00
          2   -1    0    0  502    0  0.00000000000E+00  0.00000000000E+00  0.32623027032E+03  0.32623027032E+03  0.00000000000E+00 0. -1.
          1   -1    0    0  501    0 -0.00000000000E+00 -0.00000000000E+00 -0.18518000638E+03  0.18518000638E+03  0.00000000000E+00 0. -1.
         25    2    1    2    0    0 -0.66575552436E+02  0.33696044784E+02 -0.76767671834E+02  0.16457705393E+03  0.12499841449E+03 0.  0.
          2    1    1    2  501    0 -0.11915245880E+02  0.16397671026E+02 -0.54971698894E+02  0.58589626887E+02  0.00000000000E+00 0. -1.
          1    1    1    2  502    0  0.78490798315E+02 -0.50093715811E+02  0.27278963467E+03  0.28824359588E+03  0.00000000000E+00 0. -1.
         22    1    3    3    0    0  0.29353858599E+00 -0.37805930156E+02 -0.50743116581E+02  0.63279051828E+02  0.00000000000E+00 0.  1.
         22    1    3    3    0    0 -0.66869091022E+02  0.71501974940E+02 -0.26024555253E+02  0.10129800210E+03  0.00000000000E+00 0.  1.
</event>
<event>
 7    1  0.5957303E-006  0.8779176E+02  0.7818608E-02  0.1363118E+00
          2   -1    0    0  502    0  0.00000000000E+00  0.00000000000E+00  0.89602824677E+03  0.89602824677E+03  0.00000000000E+00 0. -1.
          1   -1    0    0  501    0 -0.00000000000E+00 -0.00000000000E+00 -0.25383626636E+03  0.25383626636E+03  0.00000000000E+00 0. -1.
         25    2    1    2    0    0  0.20775608215E+02 -0.42912285899E+02 -0.10214144683E+03  0.16831618721E+03  0.12499749412E+03 0.  0.
          2    1    1    2  501    0  0.54254340323E+02 -0.41969604535E+01 -0.10995230198E+03  0.12268111767E+03  0.00000000000E+00 0. -1.
          1    1    1    2  502    0 -0.75029948538E+02  0.47109246353E+02  0.85428572923E+03  0.85886720826E+03  0.00000000000E+00 0. -1.
         22    1    3    3    0    0 -0.37205913920E+02  0.20313140857E+02 -0.57999790055E+02  0.71839260634E+02  0.00000000000E+00 0. -1.
         22    1    3    3    0    0  0.57981522134E+02 -0.63225426756E+02 -0.44141656780E+02  0.96476926572E+02  0.00000000000E+00 0. -1.
</event>
<event>
 7    1  0.5957303E-006  0.1021685E+03  0.7818608E-02  0.1310506E+00
          2   -1    0    0  502    0  0.00000000000E+00  0.00000000000E+00  0.46458529844E+03  0.46458529844E+03  0.00000000000E+00 0. -1.
          1   -1    0    0  501    0 -0.00000000000E+00 -0.00000000000E+00 -0.29903436255E+03  0.29903436255E+03  0.00000000000E+00 0. -1.
         25    2    1    2    0    0 -0.12160783148E+02  0.67668341225E+02  0.40696345555E+02  0.14835601379E+03  0.12500570081E+03 0.  0.
          2    1    1    2  501    0  0.86081895090E+02 -0.66278708811E+02 -0.22916136726E+03  0.25360972408E+03  0.00000000000E+00 0. -1.
          1    1    1    2  502    0 -0.73921111942E+02 -0.13896324139E+01  0.35401595759E+03  0.36165392311E+03  0.00000000000E+00 0. -1.
         22    1    3    3    0    0  0.15425947120E+02  0.88185938212E+02  0.61090032925E+02  0.10838224793E+03  0.00000000000E+00 0. -1.
         22    1    3    3    0    0 -0.27586730268E+02 -0.20517596987E+02 -0.20393687370E+02  0.39973765866E+02  0.00000000000E+00 0. -1.
</event>
<event>
 7    1  0.5957303E-006  0.9234152E+02  0.7818608E-02  0.1382953E+00
          2   -1    0    0  502    0  0.00000000000E+00  0.00000000000E+00  0.20892027311E+04  0.20892027311E+04  0.00000000000E+00 0. -1.
          1   -1    0    0  501    0 -0.00000000000E+00 -0.00000000000E+00 -0.22927168404E+04  0.22927168404E+04  0.00000000000E+00 0. -1.
         25    2    1    2    0    0 -0.11053930994E+03  0.69900766725E+02  0.36273588886E+03  0.40534839934E+03  0.12499977419E+03 0.  0.
          2    1    1    2  501    0  0.85962357610E+02 -0.33484344882E+02 -0.22701905987E+04  0.22720642779E+04  0.00000000000E+00 0. -1.
          1    1    1    2  502    0  0.24576952330E+02 -0.36416421844E+02  0.17039406006E+04  0.17045068943E+04  0.00000000000E+00 0. -1.
         22    1    3    3    0    0 -0.14284881155E+02  0.75865813581E+01  0.22737263233E+03  0.22794720437E+03  0.00000000000E+00 0. -1.
         22    1    3    3    0    0 -0.96254428785E+02  0.62314185367E+02  0.13536325653E+03  0.17740119497E+03  0.00000000000E+00 0. -1.
</event>
<event>
 7    1  0.5957303E-006  0.1565932E+03  0.7818608E-02  0.1227378E+00
          2   -1    0    0  502    0  0.00000000000E+00  0.00000000000E+00  0.46539455051E+03  0.46539455051E+03  0.00000000000E+00 0. -1.
          1   -1    0    0  501    0 -0.00000000000E+00 -0.00000000000E+00 -0.11091588384E+04  0.11091588384E+04  0.00000000000E+00 0. -1.
         25    2    1    2    0    0  0.27612392447E+02  0.62736373193E+02 -0.35523406061E+03  0.38277175739E+03  0.12499873480E+03 0.  0.
          2    1    1    2  501    0  0.10408979882E+03  0.28834991471E+02 -0.72176617599E+03  0.72980309382E+03  0.00000000000E+00 0. -1.
          1    1    1    2  502    0 -0.13170219127E+03 -0.91571364664E+02  0.43323594873E+03  0.46197853768E+03  0.00000000000E+00 0. -1.
         22    1    3    3    0    0  0.28641974676E+02  0.20912598364E+02 -0.12665288749E+02  0.37657788341E+02  0.00000000000E+00 0.  1.
         22    1    3    3    0    0 -0.10295822288E+01  0.41823774829E+02 -0.34256877186E+03  0.34511396905E+03  0.00000000000E+00 0.  1.
</event>
<event>
 7    1  0.5957303E-006  0.3716895E+02  0.7818608E-02  0.1620811E+00
          2   -1    0    0  502    0  0.00000000000E+00  0.00000000000E+00  0.59925938807E+03  0.59925938807E+03  0.00000000000E+00 0. -1.
          1   -1    0    0  501    0 -0.00000000000E+00 -0.00000000000E+00 -0.65360412225E+02  0.65360412225E+02  0.00000000000E+00 0. -1.
         25    2    1    2    0    0  0.39644065452E+02 -0.36556385886E+02  0.45356591742E+03  0.47355608260E+03  0.12500120259E+03 0.  0.
          2    1    1    2  501    0 -0.33117822377E+02  0.16433694053E+02 -0.48231047318E+02  0.60770802073E+02  0.00000000000E+00 0. -1.
          1    1    1    2  502    0 -0.65262430747E+01  0.20122691833E+02  0.12856410575E+03  0.13029291562E+03  0.00000000000E+00 0. -1.
         22    1    3    3    0    0  0.78138241226E+02 -0.25777803037E+02  0.38908074406E+03  0.39768568653E+03  0.00000000000E+00 0. -1.
         22    1    3    3    0    0 -0.38494175774E+02 -0.10778582850E+02  0.64485173358E+02  0.75870396070E+02  0.00000000000E+00 0. -1.
</event>
<event>
 7    1  0.5957303E-006  0.1122854E+03  0.7818608E-02  0.1291182E+00
          2   -1    0    0  502    0  0.00000000000E+00  0.00000000000E+00  0.10892986406E+04  0.10892986406E+04  0.00000000000E+00 0. -1.
          1   -1    0    0  501    0 -0.00000000000E+00 -0.00000000000E+00 -0.21163649376E+03  0.21163649376E+03  0.00000000000E+00 0. -1.
         25    2    1    2    0    0  0.18346876113E+03  0.13945775469E+02  0.13551712332E+03  0.26047072445E+03  0.12499934647E+03 0.  0.
          2    1    1    2  501    0 -0.75655802878E+02 -0.27124388580E+02 -0.13473372947E+03  0.15688438680E+03  0.00000000000E+00 0. -1.
          1    1    1    2  502    0 -0.10781295825E+03  0.13178613111E+02  0.87687875303E+03  0.88358002316E+03  0.00000000000E+00 0. -1.
         22    1    3    3    0    0  0.57445199741E+02  0.49860130730E+02  0.98210171271E+02  0.12422246717E+03  0.00000000000E+00 0.  1.
         22    1    3    3    0    0  0.12602356139E+03 -0.35914355260E+02  0.37306952046E+02  0.13624825727E+03  0.00000000000E+00 0.  1.
</event>
<event>
 7    1  0.5957303E-006  0.6991903E+02  0.7818608E-02  0.1392339E+00
          2   -1    0    0  502    0  0.00000000000E+00  0.00000000000E+00  0.12344242335E+04  0.12344242335E+04  0.00000000000E+00 0. -1.
          1   -1    0    0  501    0 -0.00000000000E+00 -0.00000000000E+00 -0.39695582355E+03  0.39695582355E+03  0.00000000000E+00 0. -1.
         25    2    1    2    0    0 -0.31405619942E+02  0.61252766814E+02  0.11588211089E+03  0.18382550013E+03  0.12499974586E+03 0.  0.
          2    1    1    2  501    0 -0.22096369776E+02 -0.66846289164E+02 -0.35889484927E+03  0.36573513471E+03  0.00000000000E+00 0. -1.
          1    1    1    2  502    0  0.53501989719E+02  0.55935223497E+01  0.10804811483E+04  0.10818194222E+04  0.00000000000E+00 0. -1.
         22    1    3    3    0    0 -0.18704240382E+02  0.99411795521E+02  0.93758337845E+02  0.13792454318E+03  0.00000000000E+00 0.  1.
         22    1    3    3    0    0 -0.12701379560E+02 -0.38159028707E+02  0.22123773048E+02  0.45900956945E+02  0.00000000000E+00 0.  1.
</event>
<event>
 7    1  0.5957303E-006  0.1323728E+03  0.7818608E-02  0.1396092E+00
          2   -1    0    0  502    0  0.00000000000E+00  0.00000000000E+00  0.13728446043E+04  0.13728446043E+04  0.00000000000E+00 0. -1.
          1   -1    0    0  501    0 -0.00000000000E+00 -0.00000000000E+00 -0.30272722326E+03  0.30272722326E+03  0.00000000000E+00 0. -1.
         25    2    1    2    0    0  0.84224709265E+02  0.10868463741E+03  0.37878597113E+03  0.42191313349E+03  0.12500291288E+03 0.  0.
          2    1    1    2  501    0 -0.58507430612E+02 -0.11863430916E+03 -0.26539613163E+03  0.29653385208E+03  0.00000000000E+00 0. -1.
          1    1    1    2  502    0 -0.25717278653E+02  0.99496717452E+01  0.95672754151E+03  0.95712484195E+03  0.00000000000E+00 0. -1.
         22    1    3    3    0    0  0.10440941971E+03  0.52787994193E+02  0.30809029419E+03  0.32955656363E+03  0.00000000000E+00 0. -1.
         22    1    3    3    0    0 -0.20184710450E+02  0.55896643218E+02  0.70695676937E+02  0.92356569861E+02  0.00000000000E+00 0. -1.
</event>
<event>
 7    1  0.5957303E-006  0.7230453E+02  0.7818608E-02  0.1375395E+00
          2   -1    0    0  502    0  0.00000000000E+00  0.00000000000E+00  0.33758649093E+04  0.33758649093E+04  0.00000000000E+00 0. -1.
          1   -1    0    0  501    0 -0.00000000000E+00 -0.00000000000E+00 -0.14190323977E+04  0.14190323977E+04  0.00000000000E+00 0. -1.
         25    2    1    2    0    0  0.16921202710E+01  0.10778326009E+03  0.23141683807E+03  0.28424971361E+03  0.12499620921E+03 0.  0.
          2    1    1    2  501    0 -0.38719869637E+02 -0.60978569917E+02 -0.13913934494E+04  0.13932671479E+04  0.00000000000E+00 0. -1.
          1    1    1    2  502    0  0.37027749366E+02 -0.46804690174E+02  0.31168091230E+04  0.31173804455E+04  0.00000000000E+00 0. -1.
         22    1    3    3    0    0 -0.35793642433E+02  0.53317755872E+02  0.27458952867E+02  0.69842408481E+02  0.00000000000E+00 0.  1.
         22    1    3    3    0    0  0.37485762704E+02  0.54465504219E+02  0.20395788520E+03  0.21440730513E+03  0.00000000000E+00 0.  1.
</event>
<event>
 7    1  0.5957303E-006  0.9850278E+02  0.7818608E-02  0.1441018E+00
          2   -1    0    0  502    0  0.00000000000E+00  0.00000000000E+00  0.20416715254E+04  0.20416715254E+04  0.00000000000E+00 0. -1.
          1   -1    0    0  501    0 -0.00000000000E+00 -0.00000000000E+00 -0.24175238655E+03  0.24175238655E+03  0.00000000000E+00 0. -1.
         25    2    1    2    0    0 -0.94959020087E+02 -0.39570318677E+01 -0.15750215880E+03  0.22240817138E+03  0.12500236427E+03 0.  0.
          2    1    1    2  501    0 -0.10470780307E+01  0.26188662216E+02 -0.47191950365E+02  0.53981687453E+02  0.00000000000E+00 0. -1.
          1    1    1    2  502    0  0.96006098118E+02 -0.22231630348E+02  0.20046132480E+04  0.20070340531E+04  0.00000000000E+00 0. -1.
         22    1    3    3    0    0 -0.38440708804E+02 -0.57938784480E+02 -0.11241192548E+03  0.13217803082E+03  0.00000000000E+00 0. -1.
         22    1    3    3    0    0 -0.56518311283E+02  0.53981752612E+02 -0.45090233315E+02  0.90230140562E+02  0.00000000000E+00 0. -1.
</event>
<event>
 7    1  0.5957303E-006  0.2148890E+03  0.7818608E-02  0.1220618E+00
          2   -1    0    0  502    0  0.00000000000E+00  0.00000000000E+00  0.21200320238E+04  0.21200320238E+04  0.00000000000E+00 0. -1.
          1   -1    0    0  501    0 -0.00000000000E+00 -0.00000000000E+00 -0.69129235557E+03  0.69129235557E+03  0.00000000000E+00 0. -1.
         25    2    1    2    0    0  0.56564125120E+00 -0.24539741722E+03 -0.97027101484E+02  0.29199235495E+03  0.12500025839E+03 0.  0.
          2    1    1    2  501    0 -0.72451791554E+02  0.43403616626E+02 -0.48745905694E+03  0.49472160679E+03  0.00000000000E+00 0. -1.
          1    1    1    2  502    0  0.71886150303E+02  0.20199380060E+03  0.20132258267E+04  0.20246104176E+04  0.00000000000E+00 0. -1.
         22    1    3    3    0    0 -0.34934533142E+02 -0.37964617760E+02 -0.58581150342E+02  0.78060777494E+02  0.00000000000E+00 0. -1.
         22    1    3    3    0    0  0.35500174393E+02 -0.20743279946E+03 -0.38445951142E+02  0.21393157746E+03  0.00000000000E+00 0. -1.
</event>
<event>
 7    1  0.5957303E-006  0.9652319E+02  0.7818608E-02  0.1305400E+00
          2   -1    0    0  502    0  0.00000000000E+00  0.00000000000E+00  0.14994891939E+04  0.14994891939E+04  0.00000000000E+00 0. -1.
          1   -1    0    0  501    0 -0.00000000000E+00 -0.00000000000E+00 -0.19042820639E+03  0.19042820639E+03  0.00000000000E+00 0. -1.
         25    2    1    2    0    0 -0.65283180733E+02  0.15585120397E+03  0.37246250233E+03  0.42767252949E+03  0.12499594143E+03 0.  0.
          2    1    1    2  501    0  0.12194457442E+02 -0.81069599232E+02 -0.15044902709E+03  0.17133561937E+03  0.00000000000E+00 0. -1.
          1    1    1    2  502    0  0.53088723291E+02 -0.74781604733E+02  0.10870475123E+04  0.10909092514E+04  0.00000000000E+00 0. -1.
         22    1    3    3    0    0 -0.87357927926E+02  0.13237524541E+03  0.35951392192E+03  0.39294385505E+03  0.00000000000E+00 0. -1.
         22    1    3    3    0    0  0.22074747193E+02  0.23475958552E+02  0.12948580412E+02  0.34728674438E+02  0.00000000000E+00 0. -1.
</event>
<event>
 7    1  0.5957303E-006  0.4003747E+02  0.7818608E-02  0.1516300E+00
          2   -1    0    0  502    0  0.00000000000E+00  0.00000000000E+00  0.20632829591E+04  0.20632829591E+04  0.00000000000E+00 0. -1.
          1   -1    0    0  501    0 -0.00000000000E+00 -0.00000000000E+00 -0.27495937788E+02  0.27495937788E+02  0.00000000000E+00 0. -1.
         25    2    1    2    0    0 -0.20474342866E+02 -0.66766577954E+02  0.51811028301E+03  0.53753114075E+03  0.12499794902E+03 0.  0.
          2    1    1    2  501    0  0.25764084552E+02  0.27710037449E+02  0.28886907593E+01  0.37947052093E+02  0.00000000000E+00 0. -1.
          1    1    1    2  502    0 -0.52897416860E+01  0.39056540505E+02  0.15147880476E+04  0.15153007041E+04  0.00000000000E+00 0. -1.
         22    1    3    3    0    0 -0.83336463009E+01 -0.98029871635E+02  0.46030145063E+03  0.47069813134E+03  0.00000000000E+00 0.  1.
         22    1    3    3    0    0 -0.12140696565E+02  0.31263293681E+02  0.57808832383E+02  0.66833009406E+02  0.00000000000E+00 0.  1.
</event>
<event>
 7    1  0.5957303E-006  0.8467843E+02  0.7818608E-02  0.1390623E+00
          2   -1    0    0  502    0  0.00000000000E+00  0.00000000000E+00  0.12117333677E+04  0.12117333677E+04  0.00000000000E+00 0. -1.
          1   -1    0    0  501    0 -0.00000000000E+00 -0.00000000000E+00 -0.48354603983E+02  0.48354603983E+02  0.00000000000E+00 0. -1.
         25    2    1    2    0    0  0.76536224767E+02 -0.60947130291E+02  0.24133548006E+03  0.28886107857E+03  0.12500224952E+03 0.  0.
          2    1    1    2  501    0  0.62903048942E+01  0.44591265135E+02 -0.29399671463E+00  0.45033712883E+02  0.00000000000E+00 0. -1.
          1    1    1    2  502    0 -0.82826529661E+02  0.16355865156E+02  0.92233728034E+03  0.92619318020E+03  0.00000000000E+00 0. -1.
         22    1    3    3    0    0  0.79976673900E+02 -0.18477859255E+02  0.23081077931E+03  0.24497207085E+03  0.00000000000E+00 0.  1.
         22    1    3    3    0    0 -0.34404491333E+01 -0.42469271036E+02  0.10524700745E+02  0.43889007716E+02  0.00000000000E+00 0.  1.
</event>
<event>
 7    1  0.5957303E-006  0.8598702E+02  0.7818608E-02  0.1372561E+00
          2   -1    0    0  502    0  0.00000000000E+00  0.00000000000E+00  0.91026030044E+03  0.91026030044E+03  0.00000000000E+00 0. -1.
          1   -1    0    0  501    0 -0.00000000000E+00 -0.00000000000E+00 -0.20528073632E+03  0.20528073632E+03  0.00000000000E+00 0. -1.
         25    2    1    2    0    0 -0.92590982065E+01  0.43979263712E+02  0.19187872930E+02  0.13421151541E+03  0.12499859946E+03 0.  0.
          2    1    1    2  501    0 -0.12262112770E+01 -0.94265621177E+02 -0.13184428562E+03  0.16208154299E+03  0.00000000000E+00 0. -1.
          1    1    1    2  502    0  0.10485309483E+02  0.50286357465E+02  0.81763597681E+03  0.81924797835E+03  0.00000000000E+00 0. -1.
         22    1    3    3    0    0 -0.57359283789E+02  0.56797909626E+02 -0.38386233600E+00  0.80723214288E+02  0.00000000000E+00 0.  1.
         22    1    3    3    0    0  0.48100185582E+02 -0.12818645914E+02  0.19571735266E+02  0.53488301127E+02  0.00000000000E+00 0.  1.
</event>
<event>
 7    1  0.5957303E-006  0.4996826E+02  0.7818608E-02  0.1552756E+00
          2   -1    0    0  502    0  0.00000000000E+00  0.00000000000E+00  0.14448751775E+04  0.14448751775E+04  0.00000000000E+00 0. -1.
          1   -1    0    0  501    0 -0.00000000000E+00 -0.00000000000E+00 -0.19243403474E+02  0.19243403474E+02  0.00000000000E+00 0. -1.
         25    2    1    2    0    0 -0.52083650019E+01  0.54446006827E+02  0.30927316050E+03  0.33803401136E+03  0.12500244120E+03 0.  0.
          2    1    1    2  501    0 -0.17299456402E+02 -0.46496317552E+02  0.12566161674E+03  0.13510003945E+03  0.00000000000E+00 0. -1.
          1    1    1    2  502    0  0.22507821404E+02 -0.79496892747E+01  0.99069699680E+03  0.99098453018E+03  0.00000000000E+00 0. -1.
         22    1    3    3    0    0  0.37446286258E+02  0.78850937008E+02  0.19990900715E+03  0.21813597998E+03  0.00000000000E+00 0.  1.
         22    1    3    3    0    0 -0.42654651260E+02 -0.24404930181E+02  0.10936415335E+03  0.11989803138E+03  0.00000000000E+00 0.  1.
</event>
<event>
 7    1  0.5957303E-006  0.5738321E+02  0.7818608E-02  0.1511407E+00
          2   -1    0    0  502    0  0.00000000000E+00  0.00000000000E+00  0.67015952888E+03  0.67015952888E+03  0.00000000000E+00 0. -1.
          1   -1    0    0  501    0 -0.00000000000E+00 -0.00000000000E+00 -0.65942582680E+02  0.65942582680E+02  0.00000000000E+00 0. -1.
         25    2    1    2    0    0 -0.76672151487E+01 -0.54258522825E+02  0.51471417935E+02  0.14586686266E+03  0.12500024508E+03 0.  0.
          2    1    1    2  501    0 -0.19416088510E+02  0.57570725051E+02  0.31799874296E+02  0.68575541421E+02  0.00000000000E+00 0. -1.
          1    1    1    2  502    0  0.27083303659E+02 -0.33122022260E+01  0.52094565397E+03  0.52165970748E+03  0.00000000000E+00 0. -1.
         22    1    3    3    0    0  0.39783123112E+01 -0.85300694812E+02  0.90239226557E+00  0.85398183916E+02  0.00000000000E+00 0. -1.
         22    1    3    3    0    0 -0.11645527460E+02  0.31042171988E+02  0.50569025669E+02  0.60468678741E+02  0.00000000000E+00 0. -1.
</event>
<event>
 7    1  0.5957303E-006  0.8111192E+02  0.7818608E-02  0.1443318E+00
          2   -1    0    0  502    0  0.00000000000E+00  0.00000000000E+00  0.15377408647E+04  0.15377408647E+04  0.00000000000E+00 0. -1.
          1   -1    0    0  501    0 -0.00000000000E+00 -0.00000000000E+00 -0.13753835502E+02  0.13753835502E+02  0.00000000000E+00 0. -1.
         25    2    1    2    0    0 -0.27865244969E+02 -0.75344005280E+02  0.88803258856E+03  0.90037639746E+03  0.12499035058E+03 0.  0.
          2    1    1    2  501    0 -0.25777580347E+01  0.82567598176E+02  0.23786400843E+03  0.25180019780E+03  0.00000000000E+00 0. -1.
          1    1    1    2  502    0  0.30443003003E+02 -0.72235928965E+01  0.39809043224E+03  0.39931810498E+03  0.00000000000E+00 0. -1.
         22    1    3    3    0    0  0.70052089887E+01 -0.15060752276E+02  0.95946554197E+01  0.19182195514E+02  0.00000000000E+00 0. -1.
         22    1    3    3    0    0 -0.34870453957E+02 -0.60283253003E+02  0.87843793314E+03  0.88119420194E+03  0.00000000000E+00 0. -1.
</event>
<event>
 7    1  0.5957303E-006  0.8159971E+02  0.7818608E-02  0.1371172E+00
          2   -1    0    0  502    0  0.00000000000E+00  0.00000000000E+00  0.40141919557E+03  0.40141919557E+03  0.00000000000E+00 0. -1.
          1   -1    0    0  501    0 -0.00000000000E+00 -0.00000000000E+00 -0.32454430696E+03  0.32454430696E+03  0.00000000000E+00 0. -1.
         25    2    1    2    0    0 -0.10515835348E+03 -0.25993392064E+02 -0.22798447531E+03  0.28166552948E+03  0.12499845511E+03 0.  0.
          2    1    1    2  501    0  0.52934119766E+02  0.42444891500E+02 -0.50603847399E+02  0.84642419752E+02  0.00000000000E+00 0. -1.
          1    1    1    2  502    0  0.52224233711E+02 -0.16451499436E+02  0.35546321131E+03  0.35965555329E+03  0.00000000000E+00 0. -1.
         22    1    3    3    0    0 -0.49961327912E+02  0.25250435392E+02 -0.18347967502E+02  0.58909818245E+02  0.00000000000E+00 0. -1.
         22    1    3    3    0    0 -0.55197025565E+02 -0.51243827456E+02 -0.20963650780E+03  0.22275571123E+03  0.00000000000E+00 0. -1.
</event>
<event>
 7    1  0.5957303E-006  0.7187109E+02  0.7818608E-02  0.1419903E+00
          2   -1    0    0  502    0  0.00000000000E+00  0.00000000000E+00  0.36170152954E+04  0.36170152954E+04  0.00000000000E+00 0. -1.
          1   -1    0    0  501    0 -0.00000000000E+00 -0.00000000000E+00 -0.64826249853E+02  0.64826249853E+02  0.00000000000E+00 0. -1.
         25    2    1    2    0    0  0.70741967163E+01 -0.48598499671E+02  0.29389584834E+03  0.32312750904E+03  0.12499903597E+03 0.  0.
          2    1    1    2  501    0 -0.38602282578E+02 -0.16932653791E+02 -0.40891545358E+02  0.58727927482E+02  0.00000000000E+00 0. -1.
          1    1    1    2  502    0  0.31528085861E+02  0.65531153462E+02  0.32991847426E+04  0.32999861088E+04  0.00000000000E+00 0. -1.
         22    1    3    3    0    0  0.53427860544E+02 -0.96322559551E+01  0.57420321906E+02  0.79021579362E+02  0.00000000000E+00 0.  1.
         22    1    3    3    0    0 -0.46353663828E+02 -0.38966243716E+02  0.23647552644E+03  0.24410592968E+03  0.00000000000E+00 0.  1.
</event>
<event>
 7    1  0.5957303E-006  0.1460676E+03  0.7818608E-02  0.1373743E+00
          2   -1    0    0  502    0  0.00000000000E+00  0.00000000000E+00  0.93094105510E+03  0.93094105510E+03  0.00000000000E+00 0. -1.
          1   -1    0    0  501    0 -0.00000000000E+00 -0.00000000000E+00 -0.11895572752E+04  0.11895572752E+04  0.00000000000E+00 0. -1.
         25    2    1    2    0    0  0.16864181552E+03  0.23656208288E+02  0.27731428365E+03  0.34860919250E+03  0.12500191620E+03 0.  0.
          2    1    1    2  501    0 -0.28889981107E+02 -0.78833206923E+01 -0.11457100117E+04  0.11461013082E+04  0.00000000000E+00 0. -1.
          1    1    1    2  502    0 -0.13975183441E+03 -0.15772887596E+02  0.60977950801E+03  0.62578782953E+03  0.00000000000E+00 0. -1.
         22    1    3    3    0    0  0.63952042611E+02  0.59676973122E+02  0.18432014686E+03  0.20402235518E+03  0.00000000000E+00 0.  1.
         22    1    3    3    0    0  0.10468977290E+03 -0.36020764834E+02  0.92994136783E+02  0.14458683732E+03  0.00000000000E+00 0.  1.
</event>
<event>
 7    1  0.5957303E-006  0.6906640E+02  0.7818608E-02  0.1485386E+00
          2   -1    0    0  502    0  0.00000000000E+00  0.00000000000E+00  0.16794256105E+03  0.16794256105E+03  0.00000000000E+00 0. -1.
          1   -1    0    0  501    0 -0.00000000000E+00 -0.00000000000E+00 -0.95680702882E+03  0.95680702882E+03  0.00000000000E+00 0. -1.
         25    2    1    2    0    0  0.82964378013E+02  0.16643874355E+02  0.79241072724E+02  0.17048348468E+03  0.12500145747E+03 0.  0.
          2    1    1    2  501    0 -0.21003379105E+02 -0.17154875199E+02 -0.88859081035E+03  0.88900453313E+03  0.00000000000E+00 0. -1.
          1    1    1    2  502    0 -0.61960998908E+02  0.51100084422E+00  0.20485269861E+02  0.65261572068E+02  0.00000000000E+00 0. -1.
         22    1    3    3    0    0  0.56174624191E+02  0.51282459218E+02 -0.42763620653E+01  0.76182454010E+02  0.00000000000E+00 0.  1.
         22    1    3    3    0    0  0.26789753821E+02 -0.34638584863E+02  0.83517434789E+02  0.94301030667E+02  0.00000000000E+00 0.  1.
</event>
<event>
 7    1  0.5957303E-006  0.1302022E+03  0.7818608E-02  0.1375662E+00
          2   -1    0    0  502    0  0.00000000000E+00  0.00000000000E+00  0.23834573914E+03  0.23834573914E+03  0.00000000000E+00 0. -1.
          1   -1    0    0  501    0 -0.00000000000E+00 -0.00000000000E+00 -0.36953967713E+03  0.36953967713E+03  0.00000000000E+00 0. -1.
         25    2    1    2    0    0  0.85202937478E+02 -0.61509291745E+02 -0.43644277534E+02  0.16903775884E+03  0.12500402964E+03 0.  0.
          2    1    1    2  501    0 -0.10684959041E+03  0.86509517190E+02 -0.24339160629E+03  0.27953569638E+03  0.00000000000E+00 0. -1.
          1    1    1    2  502    0  0.21646652930E+02 -0.25000225445E+02  0.15584194583E+03  0.15931196106E+03  0.00000000000E+00 0. -1.
         22    1    3    3    0    0 -0.29596872708E+02 -0.67879213301E-01 -0.22378424454E+02  0.37104896748E+02  0.00000000000E+00 0. -1.
         22    1    3    3    0    0  0.11479981019E+03 -0.61441412532E+02 -0.21265853080E+02  0.13193286209E+03  0.00000000000E+00 0. -1.
</event>
<event>
 7    1  0.5957303E-006  0.2145564E+03  0.7818608E-02  0.1228224E+00
          2   -1    0    0  502    0  0.00000000000E+00  0.00000000000E+00  0.98809876068E+03  0.98809876068E+03  0.00000000000E+00 0. -1.
          1   -1    0    0  501    0 -0.00000000000E+00 -0.00000000000E+00 -0.26993341661E+04  0.26993341661E+04  0.00000000000E+00 0. -1.
         25    2    1    2    0    0 -0.13265759828E+03 -0.16979013809E+03  0.78990033100E+02  0.26132525717E+03  0.12499894132E+03 0.  0.
          2    1    1    2  501    0 -0.52490073156E+02  0.57888896173E+02 -0.25932630335E+04  0.25944401116E+04  0.00000000000E+00 0. -1.
          1    1    1    2  502    0  0.18514767144E+03  0.11190124192E+03  0.80303759492E+03  0.83166755800E+03  0.00000000000E+00 0. -1.
         22    1    3    3    0    0 -0.37316993864E+02 -0.11047366053E+03 -0.11421039316E+02  0.11716410645E+03  0.00000000000E+00 0.  1.
         22    1    3    3    0    0 -0.95340604418E+02 -0.59316477563E+02  0.90411072417E+02  0.14416115072E+03  0.00000000000E+00 0.  1.
</event>
<event>
 7    1  0.5957303E-006  0.6081814E+02  0.7818608E-02  0.1421944E+00
          2   -1    0    0  502    0  0.00000000000E+00  0.00000000000E+00  0.35806012862E+04  0.35806012862E+04  0.00000000000E+00 0. -1.
          1   -1    0    0  501    0 -0.00000000000E+00 -0.00000000000E+00 -0.31533566548E+03  0.31533566548E+03  0.00000000000E+00 0. -1.
         25    2    1    2    0    0  0.91958932999E+02 -0.29842425794E+02  0.21264956623E+04  0.21323576280E+04  0.12497294287E+03 0.  0.
          2    1    1    2  501    0 -0.60302751433E+02 -0.76098771968E+01 -0.30902925151E+03  0.31494985371E+03  0.00000000000E+00 0. -1.
          1    1    1    2  502    0 -0.31656181566E+02  0.37452302991E+02  0.14477992099E+04  0.14486294699E+04  0.00000000000E+00 0. -1.
         22    1    3    3    0    0  0.35147269599E+02 -0.24492626687E+02  0.18253894213E+04  0.18258920446E+04  0.00000000000E+00 0.  1.
         22    1    3    3    0    0  0.56811663400E+02 -0.53497991079E+01  0.30110624100E+03  0.30646558342E+03  0.00000000000E+00 0.  1.
</event>
<event>
 7    1  0.5957303E-006  0.5709621E+02  0.7818608E-02  0.1478334E+00
          2   -1    0    0  502    0  0.00000000000E+00  0.00000000000E+00  0.24846715908E+03  0.24846715908E+03  0.00000000000E+00 0. -1.
          1   -1    0    0  501    0 -0.00000000000E+00 -0.00000000000E+00 -0.13122256085E+04  0.13122256085E+04  0.00000000000E+00 0. -1.
         25    2    1    2    0    0 -0.53658464358E+02  0.36676647292E+02 -0.34989042835E+03  0.37719085949E+03  0.12500090152E+03 0.  0.
          2    1    1    2  501    0 -0.34063751653E+01 -0.34306633919E+02 -0.94489301537E+03  0.94552173905E+03  0.00000000000E+00 0. -1.
          1    1    1    2  502    0  0.57064839524E+02 -0.23700133731E+01  0.23102499429E+03  0.23798016905E+03  0.00000000000E+00 0. -1.
         22    1    3    3    0    0  0.20569707220E+02  0.26361298356E+02 -0.20144792992E+02  0.39036439269E+02  0.00000000000E+00 0.  1.
         22    1    3    3    0    0 -0.74228171578E+02  0.10315348937E+02 -0.32974563536E+03  0.33815442022E+03  0.00000000000E+00 0.  1.
</event>
<event>
 7    1  0.5957303E-006  0.6953796E+02  0.7818608E-02  0.1401109E+00
          2   -1    0    0  502    0  0.00000000000E+00  0.00000000000E+00  0.81249386815E+02  0.81249386815E+02  0.00000000000E+00 0. -1.
          1   -1    0    0  501    0 -0.00000000000E+00 -0.00000000000E+00 -0.50414624095E+03  0.50414624095E+03  0.00000000000E+00 0. -1.
         25    2    1    2    0    0  0.41913665086E+02  0.12372273837E+02 -0.27939113305E+03  0.30918367767E+03  0.12500125132E+03 0.  0.
          2    1    1    2  501    0  0.22340826491E+02 -0.45226020261E+02 -0.18582671076E+03  0.19255147849E+03  0.00000000000E+00 0. -1.
          1    1    1    2  502    0 -0.64254491577E+02  0.32853746424E+02  0.42320989675E+02  0.83660471604E+02  0.00000000000E+00 0. -1.
         22    1    3    3    0    0 -0.21185937100E+02  0.48435816983E+02 -0.16849288622E+03  0.17659197322E+03  0.00000000000E+00 0. -1.
         22    1    3    3    0    0  0.63099602186E+02 -0.36063543146E+02 -0.11089824682E+03  0.13259170445E+03  0.00000000000E+00 0. -1.
</event>
<event>
 7    1  0.5957303E-006  0.6959950E+02  0.7818608E-02  0.1404050E+00
          2   -1    0    0  502    0  0.00000000000E+00  0.00000000000E+00  0.73926063332E+03  0.73926063332E+03  0.00000000000E+00 0. -1.
          1   -1    0    0  501    0 -0.00000000000E+00 -0.00000000000E+00 -0.55390722468E+02  0.55390722468E+02  0.00000000000E+00 0. -1.
         25    2    1    2    0    0  0.18993952524E+02  0.94809634012E+02  0.26914134817E+03  0.31210828743E+03  0.12499952340E+03 0.  0.
          2    1    1    2  501    0  0.24148382250E+02 -0.42915249461E+02 -0.11858748306E+02  0.50650695089E+02  0.00000000000E+00 0. -1.
          1    1    1    2  502    0 -0.43142334775E+02 -0.51894384551E+02  0.42658731098E+03  0.43189237327E+03  0.00000000000E+00 0. -1.
         22    1    3    3    0    0  0.49218523597E+02 -0.84145430844E+01  0.73639151544E+02  0.88971862072E+02  0.00000000000E+00 0.  1.
         22    1    3    3    0    0 -0.30224571073E+02  0.10322417710E+03  0.19550219663E+03  0.22313642535E+03  0.00000000000E+00 0.  1.
</event>
<event>
 7    1  0.5957303E-006  0.9410039E+02  0.7818608E-02  0.1391007E+00
          2   -1    0    0  502    0  0.00000000000E+00  0.00000000000E+00  0.60244388193E+03  0.60244388193E+03  0.00000000000E+00 0. -1.
          1   -1    0    0  501    0 -0.00000000000E+00 -0.00000000000E+00 -0.37211385372E+03  0.37211385372E+03  0.00000000000E+00 0. -1.
         25    2    1    2    0    0 -0.12538388305E+03 -0.17869580798E+02 -0.10552928059E+03  0.20688884933E+03  0.12500450739E+03 0.  0.
          2    1    1    2  501    0  0.85327483678E+02  0.23120498690E+02 -0.20607178666E+03  0.22423407008E+03  0.00000000000E+00 0. -1.
          1    1    1    2  502    0  0.40056399376E+02 -0.52509178923E+01  0.54193109546E+03  0.54343481623E+03  0.00000000000E+00 0. -1.
         22    1    3    3    0    0 -0.72651172515E+02  0.18438946970E+02 -0.11977917032E+03  0.14129839799E+03  0.00000000000E+00 0.  1.
         22    1    3    3    0    0 -0.52732710539E+02 -0.36308527768E+02  0.14249889726E+02  0.65590451337E+02  0.00000000000E+00 0.  1.
</event>
<event>
 7    1  0.5957303E-006  0.1274536E+03  0.7818608E-02  0.1331704E+00
          2   -1    0    0  502    0  0.00000000000E+00  0.00000000000E+00  0.27830709240E+02  0.27830709240E+02  0.00000000000E+00 0. -1.
          1   -1    0    0  501    0 -0.00000000000E+00 -0.00000000000E+00 -0.38796419518E+04  0.38796419518E+04  0.00000000000E+00 0. -1.
         25    2    1    2    0    0  0.15197672035E+03 -0.12416207557E+02 -0.27289699705E+04  0.27360841555E+04  0.12501327968E+03 0.  0.
          2    1    1    2  501    0 -0.10570853918E+03  0.28720845466E+02 -0.11165722452E+04  0.11219326009E+04  0.00000000000E+00 0. -1.
          1    1    1    2  502    0 -0.46268181161E+02 -0.16304637909E+02 -0.62690268030E+01  0.49455904626E+02  0.00000000000E+00 0. -1.
         22    1    3    3    0    0  0.65205899909E+02  0.27093588708E+02 -0.19534056310E+04  0.19546814142E+04  0.00000000000E+00 0. -1.
         22    1    3    3    0    0  0.86770820436E+02 -0.39509796265E+02 -0.77556433951E+03  0.78140274123E+03  0.00000000000E+00 0. -1.
</event>
<event>
 7    1  0.5957303E-006  0.6322076E+02  0.7818608E-02  0.1534651E+00
          2   -1    0    0  502    0  0.00000000000E+00  0.00000000000E+00  0.86877069039E+03  0.86877069039E+03  0.00000000000E+00 0. -1.
          1   -1    0    0  501    0 -0.00000000000E+00 -0.00000000000E+00 -0.20676309864E+03  0.20676309864E+03  0.00000000000E+00 0. -1.
         25    2    1    2    0    0  0.71190754058E+02  0.74780866813E+00  0.17311117642E+03  0.22508009102E+03  0.12499954116E+03 0.  0.
          2    1    1    2  501    0 -0.11136623959E+02  0.18055827638E+02 -0.17867140186E+03  0.17992639370E+03  0.00000000000E+00 0. -1.
          1    1    1    2  502    0 -0.60054130099E+02 -0.18803636306E+02  0.66756781719E+03  0.67052730431E+03  0.00000000000E+00 0. -1.
         22    1    3    3    0    0 -0.25225832167E+02 -0.20456068742E+02  0.92337390981E+01  0.33764704865E+02  0.00000000000E+00 0. -1.
         22    1    3    3    0    0  0.96416586225E+02  0.21203877410E+02  0.16387743732E+03  0.19131538616E+03  0.00000000000E+00 0. -1.
</event>
<event>
 7    1  0.5957303E-006  0.6874660E+02  0.7818608E-02  0.1369644E+00
          2   -1    0    0  502    0  0.00000000000E+00  0.00000000000E+00  0.12409882935E+04  0.12409882935E+04  0.00000000000E+00 0. -1.
          1   -1    0    0  501    0 -0.00000000000E+00 -0.00000000000E+00 -0.36813112178E+03  0.36813112178E+03  0.00000000000E+00 0. -1.
         25    2    1    2    0    0  0.14049218889E+01 -0.56378407513E+02  0.15754296223E+03  0.20886941880E+03  0.12500460202E+03 0.  0.
          2    1    1    2  501    0  0.60565444070E+02  0.34204990648E+02 -0.33789815928E+03  0.34498307269E+03  0.00000000000E+00 0. -1.
          1    1    1    2  502    0 -0.61970365959E+02  0.22173416865E+02  0.10532123688E+04  0.10552669238E+04  0.00000000000E+00 0. -1.
         22    1    3    3    0    0 -0.14238622122E+02 -0.74453425491E+02  0.34076099911E+02  0.83109755819E+02  0.00000000000E+00 0. -1.
         22    1    3    3    0    0  0.15643544011E+02  0.18075017978E+02  0.12346686232E+03  0.12575966299E+03  0.00000000000E+00 0. -1.
</event>
<event>
 7    1  0.5957303E-006  0.1016242E+03  0.7818608E-02  0.1305034E+00
          2   -1    0    0  502    0  0.00000000000E+00  0.00000000000E+00  0.78873121447E+02  0.78873121447E+02  0.00000000000E+00 0. -1.
          1   -1    0    0  501    0 -0.00000000000E+00 -0.00000000000E+00 -0.17900291301E+04  0.17900291301E+04  0.00000000000E+00 0. -1.
         25    2    1    2    0    0  0.24834125826E+02  0.68283968322E+02 -0.76347515907E+03  0.77704498899E+03  0.12500064911E+03 0.  0.
          2    1    1    2  501    0  0.34308473029E+02 -0.11933407611E+03 -0.99353715623E+03  0.10012660854E+04  0.00000000000E+00 0. -1.
          1    1    1    2  502    0 -0.59142598855E+02  0.51050107787E+02  0.45856306669E+02  0.90591177086E+02  0.00000000000E+00 0. -1.
         22    1    3    3    0    0  0.59866744165E+02 -0.79955053634E+01 -0.34205917069E+03  0.34735058862E+03  0.00000000000E+00 0. -1.
         22    1    3    3    0    0 -0.35032618339E+02  0.76279473686E+02 -0.42141598838E+03  0.42969440038E+03  0.00000000000E+00 0. -1.
</event>
<event>
 7    1  0.5957303E-006  0.3713333E+03  0.7818608E-02  0.1295017E+00
          2   -1    0    0  502    0  0.00000000000E+00  0.00000000000E+00  0.86745245311E+03  0.86745245311E+03  0.00000000000E+00 0. -1.
          1   -1    0    0  501    0 -0.00000000000E+00 -0.00000000000E+00 -0.34524011732E+03  0.34524011732E+03  0.00000000000E+00 0. -1.
         25    2    1    2    0    0 -0.76220028448E+02 -0.37986799524E+03  0.45883765472E+03  0.61340543029E+03  0.12500016794E+03 0.  0.
          2    1    1    2  501    0  0.84175125790E+02  0.35780888378E+03 -0.14091064637E+03  0.39366033502E+03  0.00000000000E+00 0. -1.
          1    1    1    2  502    0 -0.79550973422E+01  0.22059111463E+02  0.20428532744E+03  0.20562680511E+03  0.00000000000E+00 0. -1.
         22    1    3    3    0    0 -0.62137615496E+02 -0.38173142563E+03  0.41479489038E+03  0.56712852658E+03  0.00000000000E+00 0.  1.
         22    1    3    3    0    0 -0.14082412952E+02  0.18634303872E+01  0.44042764338E+02  0.46276903720E+02  0.00000000000E+00 0.  1.
</event>
<event>
 7    1  0.5957303E-006  0.5643901E+02  0.7818608E-02  0.1420184E+00
          2   -1    0    0  502    0  0.00000000000E+00  0.00000000000E+00  0.15282138063E+03  0.15282138063E+03  0.00000000000E+00 0. -1.
          1   -1    0    0  501    0 -0.00000000000E+00 -0.00000000000E+00 -0.13182451059E+03  0.13182451059E+03  0.00000000000E+00 0. -1.
         25    2    1    2    0    0 -0.16839603212E+02 -0.18116424192E+02 -0.18931537967E+02  0.12882280387E+03  0.12500053842E+03 0.  0.
          2    1    1    2  501    0 -0.45815981966E+02  0.27746098233E+02 -0.30038055702E+02  0.61410381541E+02  0.00000000000E+00 0. -1.
          1    1    1    2  502    0  0.62655585178E+02 -0.96296740412E+01  0.69966463706E+02  0.94412705816E+02  0.00000000000E+00 0. -1.
         22    1    3    3    0    0 -0.70636878687E+02 -0.77798379352E+01 -0.63515235068E+00  0.71066855337E+02  0.00000000000E+00 0.  1.
         22    1    3    3    0    0  0.53797275475E+02 -0.10336586257E+02 -0.18296385616E+02  0.57755948530E+02  0.00000000000E+00 0.  1.
</event>
<event>
 7    1  0.5957303E-006  0.5523893E+02  0.7818608E-02  0.1506326E+00
          2   -1    0    0  502    0  0.00000000000E+00  0.00000000000E+00  0.31287975069E+03  0.31287975069E+03  0.00000000000E+00 0. -1.
          1   -1    0    0  501    0 -0.00000000000E+00 -0.00000000000E+00 -0.11710368792E+04  0.11710368792E+04  0.00000000000E+00 0. -1.
         25    2    1    2    0    0  0.31274986337E+02  0.21713379697E+02  0.36176549367E+02  0.13559423084E+03  0.12500982795E+03 0.  0.
          2    1    1    2  501    0  0.25119088962E+02 -0.15159612773E+02 -0.11175825878E+04  0.11179676305E+04  0.00000000000E+00 0. -1.
          1    1    1    2  502    0 -0.56394075300E+02 -0.65537669239E+01  0.22324890991E+03  0.23035476849E+03  0.00000000000E+00 0. -1.
         22    1    3    3    0    0  0.52490029595E+02  0.62623109640E+02  0.36538593423E+02  0.89509361953E+02  0.00000000000E+00 0. -1.
         22    1    3    3    0    0 -0.21215043258E+02 -0.40909729943E+02 -0.36204405637E+00  0.46084868887E+02  0.00000000000E+00 0. -1.
</event>
<event>
 7    1  0.5957303E-006  0.6746078E+02  0.7818608E-02  0.1393753E+00
          2   -1    0    0  502    0  0.00000000000E+00  0.00000000000E+00  0.32278292910E+04  0.32278292910E+04  0.00000000000E+00 0. -1.
          1   -1    0    0  501    0 -0.00000000000E+00 -0.00000000000E+00 -0.41579979779E+02  0.41579979779E+02  0.00000000000E+00 0. -1.
         25    2    1    2    0    0  0.77386806163E+02  0.30682625697E+02  0.39949926212E+03  0.42679570178E+03  0.12499907734E+03 0.  0.
          2    1    1    2  501    0 -0.63811839781E+02  0.22746672028E+02  0.13825630497E+02  0.69141232584E+02  0.00000000000E+00 0. -1.
          1    1    1    2  502    0 -0.13574966382E+02 -0.53429297725E+02  0.27729244186E+04  0.27734723364E+04  0.00000000000E+00 0. -1.
         22    1    3    3    0    0 -0.24606761312E+02 -0.10053295680E+02  0.17348888404E+03  0.17551340217E+03  0.00000000000E+00 0. -1.
         22    1    3    3    0    0  0.10199356748E+03  0.40735921376E+02  0.22601037808E+03  0.25128229961E+03  0.00000000000E+00 0. -1.
</event>
<event>
 7    1  0.5957303E-006  0.8599809E+02  0.7818608E-02  0.1395501E+00
          2   -1    0    0  502    0  0.00000000000E+00  0.00000000000E+00  0.16096141016E+03  0.16096141016E+03  0.00000000000E+00 0. -1.
          1   -1    0    0  501    0 -0.00000000000E+00 -0.00000000000E+00 -0.17831791611E+04  0.17831791611E+04  0.00000000000E+00 0. -1.
         25    2    1    2    0    0  0.10201303860E+03 -0.11472718356E+02 -0.12258527234E+04  0.12364781508E+04  0.12500013786E+03 0.  0.
          2    1    1    2  501    0 -0.27997872528E+02 -0.32167126433E+02 -0.53924951626E+03  0.54093312495E+03  0.00000000000E+00 0. -1.
          1    1    1    2  502    0 -0.74015166071E+02  0.43639844790E+02  0.14288448876E+03  0.16672929553E+03  0.00000000000E+00 0. -1.
         22    1    3    3    0    0  0.30581626274E+02 -0.14767173803E+02 -0.97609250756E+03  0.97668310552E+03  0.00000000000E+00 0.  1.
         22    1    3    3    0    0  0.71431412325E+02  0.32944554465E+01 -0.24976021586E+03  0.25979504524E+03  0.00000000000E+00 0.  1.
</event>
<event>
 7    1  0.5957303E-006  0.6353355E+02  0.7818608E-02  0.1429871E+00
          2   -1    0    0  502    0  0.00000000000E+00  0.00000000000E+00  0.20789739380E+03  0.20789739380E+03  0.00000000000E+00 0. -1.
          1   -1    0    0  501    0 -0.00000000000E+00 -0.00000000000E+00 -0.14247169552E+03  0.14247169552E+03  0.00000000000E+00 0. -1.
         25    2    1    2    0    0 -0.12671257602E+02  0.53200708639E+02  0.24754717305E+02  0.13866773616E+03  0.12500027542E+03 0.  0.
          2    1    1    2  501    0 -0.41818354861E+02 -0.14280401707E+02 -0.69746045977E+02  0.82566431470E+02  0.00000000000E+00 0. -1.
          1    1    1    2  502    0  0.54489612462E+02 -0.38920306932E+02  0.11041702695E+03  0.12913492169E+03  0.00000000000E+00 0. -1.
         22    1    3    3    0    0 -0.13409502934E+02 -0.21285484634E+02  0.53265915709E+02  0.58907931566E+02  0.00000000000E+00 0.  1.
         22    1    3    3    0    0  0.73824533280E+00  0.74486193274E+02 -0.28511198404E+02  0.79759804595E+02  0.00000000000E+00 0.  1.
</event>
<event>
 7    1  0.5957303E-006  0.5672657E+02  0.7818608E-02  0.1481087E+00
          2   -1    0    0  502    0  0.00000000000E+00  0.00000000000E+00  0.76887516684E+03  0.76887516684E+03  0.00000000000E+00 0. -1.
          1   -1    0    0  501    0 -0.00000000000E+00 -0.00000000000E+00 -0.12067203328E+04  0.12067203328E+04  0.00000000000E+00 0. -1.
         25    2    1    2    0    0  0.12428053952E+02  0.19906973525E+02  0.14591921650E+03  0.19356561261E+03  0.12499793807E+03 0.  0.
          2    1    1    2  501    0 -0.21006394118E+02 -0.52839594093E+02 -0.11817297024E+04  0.11830969449E+04  0.00000000000E+00 0. -1.
          1    1    1    2  502    0  0.85783401668E+01  0.32932620569E+02  0.59796531994E+03  0.59893294221E+03  0.00000000000E+00 0. -1.
         22    1    3    3    0    0 -0.42078134806E+02  0.39769039121E+02  0.11273388088E+03  0.12673229186E+03  0.00000000000E+00 0. -1.
         22    1    3    3    0    0  0.54506188757E+02 -0.19862065597E+02  0.33185335624E+02  0.66833320754E+02  0.00000000000E+00 0. -1.
</event>
<event>
 7    1  0.5957303E-006  0.7225134E+02  0.7818608E-02  0.1393201E+00
          2   -1    0    0  502    0  0.00000000000E+00  0.00000000000E+00  0.23367959975E+03  0.23367959975E+03  0.00000000000E+00 0. -1.
          1   -1    0    0  501    0 -0.00000000000E+00 -0.00000000000E+00 -0.32651519852E+04  0.32651519852E+04  0.00000000000E+00 0. -1.
         25    2    1    2    0    0 -0.11898806571E+03 -0.23368127297E+02 -0.84081802524E+02  0.19338922709E+03  0.12500165792E+03 0.  0.
          2    1    1    2  501    0  0.49768076284E+02  0.13998844102E+02 -0.31193805854E+04  0.31198089790E+04  0.00000000000E+00 0. -1.
          1    1    1    2  502    0  0.69219989421E+02  0.93692831948E+01  0.17199000246E+03  0.18563337886E+03  0.00000000000E+00 0. -1.
         22    1    3    3    0    0 -0.20650523804E+02  0.22407677682E+02 -0.79143490554E+02  0.84807076648E+02  0.00000000000E+00 0. -1.
         22    1    3    3    0    0 -0.98337541901E+02 -0.45775804979E+02 -0.49383119701E+01  0.10858215044E+03  0.00000000000E+00 0. -1.
</event>
<event>
 7    1  0.5957303E-006  0.9758628E+02  0.7818608E-02  0.1381331E+00
          2   -1    0    0  502    0  0.00000000000E+00  0.00000000000E+00  0.15147100512E+03  0.15147100512E+03  0.00000000000E+00 0. -1.
          1   -1    0    0  501    0 -0.00000000000E+00 -0.00000000000E+00 -0.55971915096E+03  0.55971915096E+03  0.00000000000E+00 0. -1.
         25    2    1    2    0    0 -0.27726499232E+02  0.75268027064E+02 -0.24138499351E+03  0.28341856528E+03  0.12500133358E+03 0.  0.
          2    1    1    2  501    0 -0.41893848916E+02 -0.44007746818E+01 -0.27657546930E+03  0.27976499354E+03  0.00000000000E+00 0. -1.
          1    1    1    2  502    0  0.69620348148E+02 -0.70867252382E+02  0.10971231697E+03  0.14800659725E+03  0.00000000000E+00 0. -1.
         22    1    3    3    0    0 -0.54778289341E+02  0.57990436655E+02 -0.23815255819E+03  0.25115770484E+03  0.00000000000E+00 0. -1.
         22    1    3    3    0    0  0.27051790109E+02  0.17277590409E+02 -0.32324353169E+01  0.32260860442E+02  0.00000000000E+00 0. -1.
</event>
<event>
 7    1  0.5957303E-006  0.4049156E+02  0.7818608E-02  0.1539119E+00
          2   -1    0    0  502    0  0.00000000000E+00  0.00000000000E+00  0.15339160660E+03  0.15339160660E+03  0.00000000000E+00 0. -1.
          1   -1    0    0  501    0 -0.00000000000E+00 -0.00000000000E+00 -0.18465982366E+03  0.18465982366E+03  0.00000000000E+00 0. -1.
         25    2    1    2    0    0  0.13021270758E+02  0.58108711641E+01  0.36329034527E+02  0.13094798195E+03  0.12499702201E+03 0.  0.
          2    1    1    2  501    0 -0.17870673295E+02 -0.37612111028E+02 -0.13021205903E+03  0.13670849344E+03  0.00000000000E+00 0. -1.
          1    1    1    2  502    0  0.48494025368E+01  0.31801239864E+02  0.62614807440E+02  0.70394954880E+02  0.00000000000E+00 0. -1.
         22    1    3    3    0    0  0.13025275207E+02  0.64343230197E+02  0.86998072752E+01  0.66222320354E+02  0.00000000000E+00 0. -1.
         22    1    3    3    0    0 -0.40044488806E-02 -0.58532359033E+02  0.27629227252E+02  0.64725661592E+02  0.00000000000E+00 0. -1.
</event>
<event>
 7    1  0.5957303E-006  0.6663849E+02  0.7818608E-02  0.1377524E+00
          2   -1    0    0  502    0  0.00000000000E+00  0.00000000000E+00  0.31091825832E+04  0.31091825832E+04  0.00000000000E+00 0. -1.
          1   -1    0    0  501    0 -0.00000000000E+00 -0.00000000000E+00 -0.11472764411E+04  0.11472764411E+04  0.00000000000E+00 0. -1.
         25    2    1    2    0    0  0.89313786876E+01  0.33400146656E+02  0.12568243665E+04  0.12634981094E+04  0.12499858016E+03 0.  0.
          2    1    1    2  501    0 -0.66402835878E+02 -0.60808188858E+01 -0.11424196112E+04  0.11443639635E+04  0.00000000000E+00 0. -1.
          1    1    1    2  502    0  0.57471457190E+02 -0.27319327770E+02  0.18475013869E+04  0.18485969514E+04  0.00000000000E+00 0. -1.
         22    1    3    3    0    0 -0.26817416750E+02  0.93952213661E+00  0.10760859061E+04  0.10764204261E+04  0.00000000000E+00 0.  1.
         22    1    3    3    0    0  0.35748795437E+02  0.32460624519E+02  0.18073846039E+03  0.18707768328E+03  0.00000000000E+00 0.  1.
</event>
<event>
 7    1  0.5957303E-006  0.4430877E+02  0.7818608E-02  0.1499365E+00
          2   -1    0    0  502    0  0.00000000000E+00  0.00000000000E+00  0.74303310134E+03  0.74303310134E+03  0.00000000000E+00 0. -1.
          1   -1    0    0  501    0 -0.00000000000E+00 -0.00000000000E+00 -0.46157944832E+03  0.46157944832E+03  0.00000000000E+00 0. -1.
         25    2    1    2    0    0 -0.17715308389E+02  0.34724788936E+02  0.12812613937E+03  0.18319692226E+03  0.12500064647E+03 0.  0.
          2    1    1    2  501    0 -0.20342663075E+02 -0.39539817562E+02 -0.43227600572E+03  0.43455697697E+03  0.00000000000E+00 0. -1.
          1    1    1    2  502    0  0.38057971464E+02  0.48150286258E+01  0.58560351937E+03  0.58685865043E+03  0.00000000000E+00 0. -1.
         22    1    3    3    0    0 -0.49997501207E+02  0.61951171523E+02  0.11323238615E+03  0.13841701865E+03  0.00000000000E+00 0.  1.
         22    1    3    3    0    0  0.32282192819E+02 -0.27226382587E+02  0.14893753227E+02  0.44779903608E+02  0.00000000000E+00 0.  1.
</event>
<event>
 7    1  0.5957303E-006  0.1496388E+03  0.7818608E-02  0.1272170E+00
          2   -1    0    0  502    0  0.00000000000E+00  0.00000000000E+00  0.42040423055E+03  0.42040423055E+03  0.00000000000E+00 0. -1.
          1   -1    0    0  501    0 -0.00000000000E+00 -0.00000000000E+00 -0.66032118676E+03  0.66032118676E+03  0.00000000000E+00 0. -1.
         25    2    1    2    0    0 -0.12555632699E+02  0.11364324355E+03 -0.46623810955E+03  0.49605955756E+03  0.12499871653E+03 0.  0.
          2    1    1    2  501    0 -0.71218718375E+02  0.12065466222E+02 -0.15690841082E+03  0.17273659342E+03  0.00000000000E+00 0. -1.
          1    1    1    2  502    0  0.83774351074E+02 -0.12570870977E+03  0.38322956415E+03  0.41192926632E+03  0.00000000000E+00 0. -1.
         22    1    3    3    0    0  0.54638395325E+02  0.65107548567E+02 -0.20288521519E+03  0.21996990173E+03  0.00000000000E+00 0.  1.
         22    1    3    3    0    0 -0.67194028024E+02  0.48535694985E+02 -0.26335289436E+03  0.27608965584E+03  0.00000000000E+00 0.  1.
</event>
<event>
 7    1  0.5957303E-006  0.3628692E+02  0.7818608E-02  0.1601433E+00
          2   -1    0    0  502    0  0.00000000000E+00  0.00000000000E+00  0.68860710994E+02  0.68860710994E+02  0.00000000000E+00 0. -1.
          1   -1    0    0  501    0 -0.00000000000E+00 -0.00000000000E+00 -0.51959087662E+03  0.51959087662E+03  0.00000000000E+00 0. -1.
         25    2    1    2    0    0 -0.11818670634E+02  0.19261363063E+02 -0.13541123280E+03  0.18566886146E+03  0.12500417219E+03 0.  0.
          2    1    1    2  501    0 -0.51752388301E+01 -0.36642095938E+02 -0.35463415410E+03  0.35655968581E+03  0.00000000000E+00 0. -1.
          1    1    1    2  502    0  0.16993909464E+02  0.17380732875E+02  0.39315221278E+02  0.46223040340E+02  0.00000000000E+00 0. -1.
         22    1    3    3    0    0  0.55798620907E+02 -0.27151107891E+01 -0.62578632565E+02  0.83886489827E+02  0.00000000000E+00 0.  1.
         22    1    3    3    0    0 -0.67617291541E+02  0.21976473852E+02 -0.72832600239E+02  0.10178237164E+03  0.00000000000E+00 0.  1.
</event>
<event>
 7    1  0.5957303E-006  0.6296696E+02  0.7818608E-02  0.1450553E+00
          2   -1    0    0  502    0  0.00000000000E+00  0.00000000000E+00  0.25477929378E+04  0.25477929378E+04  0.00000000000E+00 0. -1.
          1   -1    0    0  501    0 -0.00000000000E+00 -0.00000000000E+00 -0.52679922476E+03  0.52679922476E+03  0.00000000000E+00 0. -1.
         25    2    1    2    0    0  0.92993150763E+02 -0.27278733115E+02 -0.77100062430E+02  0.17595868942E+03  0.12500074154E+03 0.  0.
          2    1    1    2  501    0 -0.54792559246E+02  0.27753434456E+02 -0.39776659443E+03  0.40248073410E+03  0.00000000000E+00 0. -1.
          1    1    1    2  502    0 -0.38200591517E+02 -0.47470134120E+00  0.24958603699E+04  0.24961527390E+04  0.00000000000E+00 0. -1.
         22    1    3    3    0    0 -0.10588315724E+02  0.29652716077E+02 -0.42326619600E+02  0.52753566015E+02  0.00000000000E+00 0.  1.
         22    1    3    3    0    0  0.10358146649E+03 -0.56931449191E+02 -0.34773442830E+02  0.12320512340E+03  0.00000000000E+00 0.  1.
</event>
<event>
 7    1  0.5957303E-006  0.1857225E+03  0.7818608E-02  0.1250571E+00
          2   -1    0    0  502    0  0.00000000000E+00  0.00000000000E+00  0.53272876227E+03  0.53272876227E+03  0.00000000000E+00 0. -1.
          1   -1    0    0  501    0 -0.00000000000E+00 -0.00000000000E+00 -0.30814723909E+04  0.30814723909E+04  0.00000000000E+00 0. -1.
         25    2    1    2    0    0 -0.90977643939E+02  0.20550188505E+03  0.16517770143E+03  0.30564183237E+03  0.12500120073E+03 0.  0.
          2    1    1    2  501    0  0.63236054626E+02 -0.34278250217E+02 -0.29854715333E+04  0.29863379034E+04  0.00000000000E+00 0. -1.
          1    1    1    2  502    0  0.27741589314E+02 -0.17122363484E+03  0.27155020329E+03  0.32222141737E+03  0.00000000000E+00 0. -1.
         22    1    3    3    0    0 -0.19574734078E+02  0.17423852114E+03  0.88910139705E+02  0.19658902666E+03  0.00000000000E+00 0.  1.
         22    1    3    3    0    0 -0.71402909861E+02  0.31263363916E+02  0.76267561725E+02  0.10905280570E+03  0.00000000000E+00 0.  1.
</event>
<event>
 7    1  0.5957303E-006  0.5846652E+02  0.7818608E-02  0.1488374E+00
          2   -1    0    0  502    0  0.00000000000E+00  0.00000000000E+00  0.24722924613E+04  0.24722924613E+04  0.00000000000E+00 0. -1.
          1   -1    0    0  501    0 -0.00000000000E+00 -0.00000000000E+00 -0.19376597877E+03  0.19376597877E+03  0.00000000000E+00 0. -1.
         25    2    1    2    0    0  0.86262267212E+02  0.13676841842E+02  0.36750013215E+03  0.39788473921E+03  0.12501073481E+03 0.  0.
          2    1    1    2  501    0 -0.55212068874E+02 -0.18163761334E+02 -0.17372297137E+03  0.18318833358E+03  0.00000000000E+00 0. -1.
          1    1    1    2  502    0 -0.31050198338E+02  0.44869194917E+01  0.20847493218E+04  0.20849853673E+04  0.00000000000E+00 0. -1.
         22    1    3    3    0    0  0.12132329315E+01 -0.40543734823E+02  0.18473234549E+03  0.18913303741E+03  0.00000000000E+00 0.  1.
         22    1    3    3    0    0  0.85049034281E+02  0.54220576665E+02  0.18276778666E+03  0.20875170181E+03  0.00000000000E+00 0.  1.
</event>
<event>
 7    1  0.5957303E-006  0.1490691E+03  0.7818608E-02  0.1287049E+00
          2   -1    0    0  502    0  0.00000000000E+00  0.00000000000E+00  0.26615253481E+03  0.26615253481E+03  0.00000000000E+00 0. -1.
          1   -1    0    0  501    0 -0.00000000000E+00 -0.00000000000E+00 -0.53584459466E+03  0.53584459466E+03  0.00000000000E+00 0. -1.
         25    2    1    2    0    0 -0.58554365766E+02  0.88959015395E+02 -0.19541624446E+03  0.25525290930E+03  0.12499687571E+03 0.  0.
          2    1    1    2  501    0 -0.62546733808E+02  0.69475318074E+01 -0.28140333748E+03  0.28835429675E+03  0.00000000000E+00 0. -1.
          1    1    1    2  502    0  0.12110109957E+03 -0.95906547203E+02  0.20712752209E+03  0.25838992341E+03  0.00000000000E+00 0. -1.
         22    1    3    3    0    0  0.24752997031E+02  0.12524660280E+02  0.19374399769E+01  0.27808841235E+02  0.00000000000E+00 0. -1.
         22    1    3    3    0    0 -0.83307362797E+02  0.76434355115E+02 -0.19735368444E+03  0.22744406807E+03  0.00000000000E+00 0. -1.
</event>
<event>
 7    1  0.5957303E-006  0.3916449E+02  0.7818608E-02  0.1522808E+00
          2   -1    0    0  502    0  0.00000000000E+00  0.00000000000E+00  0.84765816554E+03  0.84765816554E+03  0.00000000000E+00 0. -1.
          1   -1    0    0  501    0 -0.00000000000E+00 -0.00000000000E+00 -0.63705932802E+02  0.63705932802E+02  0.00000000000E+00 0. -1.
         25    2    1    2    0    0 -0.46138504493E+02  0.52881598474E+01  0.63613742987E+02  0.14774032250E+03  0.12499507336E+03 0.  0.
          2    1    1    2  501    0  0.17788788987E+02 -0.32479962540E+02 -0.48709281837E+01  0.37351237216E+02  0.00000000000E+00 0. -1.
          1    1    1    2  502    0  0.28349715506E+02  0.27191802692E+02  0.72520941793E+03  0.72627253862E+03  0.00000000000E+00 0. -1.
         22    1    3    3    0    0 -0.65742434819E+02 -0.39660662860E+02  0.14119027773E+02  0.78066528420E+02  0.00000000000E+00 0. -1.
         22    1    3    3    0    0  0.19603930326E+02  0.44948822707E+02  0.49494715215E+02  0.69673794078E+02  0.00000000000E+00 0. -1.
</event>
<event>
 7    1  0.5957303E-006  0.5846682E+02  0.7818608E-02  0.1428323E+00
          2   -1    0    0  502    0  0.00000000000E+00  0.00000000000E+00  0.15835430605E+04  0.15835430605E+04  0.00000000000E+00 0. -1.
          1   -1    0    0  501    0 -0.00000000000E+00 -0.00000000000E+00 -0.54043277498E+03  0.54043277498E+03  0.00000000000E+00 0. -1.
         25    2    1    2    0    0  0.57943623952E+02 -0.22884417912E+00  0.33873363780E+03  0.36567968357E+03  0.12499455056E+03 0.  0.
          2    1    1    2  501    0 -0.18960621490E+02 -0.44733833317E+02 -0.52511864175E+03  0.52736155427E+03  0.00000000000E+00 0. -1.
          1    1    1    2  502    0 -0.38983002463E+02  0.44962677496E+02  0.12294952895E+04  0.12309345977E+04  0.00000000000E+00 0. -1.
         22    1    3    3    0    0 -0.28512018464E+02  0.15866559574E+02  0.19088660627E+03  0.19365531070E+03  0.00000000000E+00 0. -1.
         22    1    3    3    0    0  0.86455642416E+02 -0.16095403753E+02  0.14784703153E+03  0.17202437286E+03  0.00000000000E+00 0. -1.
</event>
<event>
 7    1  0.5957303E-006  0.6798579E+02  0.7818608E-02  0.1384602E+00
          2   -1    0    0  502    0  0.00000000000E+00  0.00000000000E+00  0.11390141601E+03  0.11390141601E+03  0.00000000000E+00 0. -1.
          1   -1    0    0  501    0 -0.00000000000E+00 -0.00000000000E+00 -0.18571240051E+03  0.18571240051E+03  0.00000000000E+00 0. -1.
         25    2    1    2    0    0 -0.27007512394E+02 -0.21250736492E+02 -0.37984664582E+02  0.13508949771E+03  0.12500135248E+03 0.  0.
          2    1    1    2  501    0 -0.16505765454E+02  0.73487332979E+02 -0.55062502766E+02  0.93299022570E+02  0.00000000000E+00 0. -1.
          1    1    1    2  502    0  0.43513277848E+02 -0.52236596488E+02  0.21236182850E+02  0.71225296235E+02  0.00000000000E+00 0. -1.
         22    1    3    3    0    0  0.13281027857E+02 -0.26097325552E+02  0.38581152126E+02  0.48435125697E+02  0.00000000000E+00 0. -1.
         22    1    3    3    0    0 -0.40288540250E+02  0.48465890607E+01 -0.76565816708E+02  0.86654372014E+02  0.00000000000E+00 0. -1.
</event>
<event>
 7    1  0.5957303E-006  0.1309873E+03  0.7818608E-02  0.1305558E+00
          2   -1    0    0  502    0  0.00000000000E+00  0.00000000000E+00  0.41867334736E+03  0.41867334736E+03  0.00000000000E+00 0. -1.
          1   -1    0    0  501    0 -0.00000000000E+00 -0.00000000000E+00 -0.46488722529E+03  0.46488722529E+03  0.00000000000E+00 0. -1.
         25    2    1    2    0    0 -0.67945608327E+02 -0.45245351375E+02 -0.12329908523E+03  0.19362945274E+03  0.12500381209E+03 0.  0.
          2    1    1    2  501    0 -0.60243060292E+02  0.31372887010E+01 -0.29136925735E+03  0.29754850533E+03  0.00000000000E+00 0. -1.
          1    1    1    2  502    0  0.12818866862E+03  0.42108062674E+02  0.36845446465E+03  0.39238261458E+03  0.00000000000E+00 0. -1.
         22    1    3    3    0    0 -0.87147444153E+02  0.96167157192E+01 -0.93981582501E+02  0.12852896986E+03  0.00000000000E+00 0.  1.
         22    1    3    3    0    0  0.19201835826E+02 -0.54862067094E+02 -0.29317502726E+02  0.65100482879E+02  0.00000000000E+00 0.  1.
</event>
<event>
 7    1  0.5957303E-006  0.2163113E+02  0.7818608E-02  0.1725571E+00
          2   -1    0    0  502    0  0.00000000000E+00  0.00000000000E+00  0.65793775250E+03  0.65793775250E+03  0.00000000000E+00 0. -1.
          1   -1    0    0  501    0 -0.00000000000E+00 -0.00000000000E+00 -0.21975168113E+02  0.21975168113E+02  0.00000000000E+00 0. -1.
         25    2    1    2    0    0 -0.21294586118E+02 -0.14386612761E+02  0.21232690472E+03  0.24772572759E+03  0.12499955047E+03 0.  0.
          2    1    1    2  501    0  0.19130293445E+02 -0.72200701625E+01  0.22265171764E+02  0.30229710785E+02  0.00000000000E+00 0. -1.
          1    1    1    2  502    0  0.21642926729E+01  0.21606682924E+02  0.40137050791E+03  0.40195748224E+03  0.00000000000E+00 0. -1.
         22    1    3    3    0    0 -0.29616302295E+02 -0.29526405187E+02  0.22335064637E+03  0.22723213945E+03  0.00000000000E+00 0.  1.
         22    1    3    3    0    0  0.83217161768E+01  0.15139792426E+02 -0.11023741653E+02  0.20493588140E+02  0.00000000000E+00 0.  1.
</event>
<event>
 7    1  0.5957303E-006  0.5633198E+02  0.7818608E-02  0.1496728E+00
          2   -1    0    0  502    0  0.00000000000E+00  0.00000000000E+00  0.30149464432E+03  0.30149464432E+03  0.00000000000E+00 0. -1.
          1   -1    0    0  501    0 -0.00000000000E+00 -0.00000000000E+00 -0.59990985596E+02  0.59990985596E+02  0.00000000000E+00 0. -1.
         25    2    1    2    0    0 -0.84951491113E+01 -0.30632625878E+02  0.11197094802E+03  0.17080294994E+03  0.12500251671E+03 0.  0.
          2    1    1    2  501    0  0.10773070951E+02  0.61274861447E+02  0.50000295335E+01  0.62415286576E+02  0.00000000000E+00 0. -1.
          1    1    1    2  502    0 -0.22779218396E+01 -0.30642235569E+02  0.12453268117E+03  0.12826739340E+03  0.00000000000E+00 0. -1.
         22    1    3    3    0    0 -0.58038133002E+02  0.11540875997E+02  0.30598034830E+02  0.66617238284E+02  0.00000000000E+00 0. -1.
         22    1    3    3    0    0  0.49542983891E+02 -0.42173501876E+02  0.81372913186E+02  0.10418571166E+03  0.00000000000E+00 0. -1.
</event>
<event>
 7    1  0.5957303E-006  0.8558945E+02  0.7818608E-02  0.1386595E+00
          2   -1    0    0  502    0  0.00000000000E+00  0.00000000000E+00  0.61251235268E+03  0.61251235268E+03  0.00000000000E+00 0. -1.
          1   -1    0    0  501    0 -0.00000000000E+00 -0.00000000000E+00 -0.57703761185E+03  0.57703761185E+03  0.00000000000E+00 0. -1.
         25    2    1    2    0    0 -0.26505431748E+02  0.30076505018E+02  0.27873585733E+03  0.30810074646E+03  0.12500103095E+03 0.  0.
          2    1    1    2  501    0  0.55920430087E+02 -0.65471207351E+02 -0.55737276373E+03  0.56398401683E+03  0.00000000000E+00 0. -1.
          1    1    1    2  502    0 -0.29414998338E+02  0.35394702333E+02  0.31411164723E+03  0.31746520125E+03  0.00000000000E+00 0. -1.
         22    1    3    3    0    0  0.11314299186E+02  0.49244461683E+02  0.25407566150E+03  0.25905109948E+03  0.00000000000E+00 0. -1.
         22    1    3    3    0    0 -0.37819730934E+02 -0.19167956664E+02  0.24660195830E+02  0.49049646981E+02  0.00000000000E+00 0. -1.
</event>
<event>
 7    1  0.5957303E-006  0.8142435E+02  0.7818608E-02  0.1456979E+00
          2   -1    0    0  502    0  0.00000000000E+00  0.00000000000E+00  0.13927849579E+03  0.13927849579E+03  0.00000000000E+00 0. -1.
          1   -1    0    0  501    0 -0.00000000000E+00 -0.00000000000E+00 -0.49477845610E+03  0.49477845610E+03  0.00000000000E+00 0. -1.
         25    2    1    2    0    0  0.41782784501E+02 -0.48498204112E+02 -0.21762318161E+03  0.25900573286E+03  0.12500497428E+03 0.  0.
          2    1    1    2  501    0  0.27891221967E+02  0.40566483379E+01 -0.24114523360E+03  0.24278673841E+03  0.00000000000E+00 0. -1.
          1    1    1    2  502    0 -0.69674006468E+02  0.44441555774E+02  0.10326845490E+03  0.13226448062E+03  0.00000000000E+00 0. -1.
         22    1    3    3    0    0 -0.23972475799E+02 -0.65017554657E+02 -0.13805029648E+03  0.15446632762E+03  0.00000000000E+00 0. -1.
         22    1    3    3    0    0  0.65755260300E+02  0.16519350545E+02 -0.79572885126E+02  0.10453940524E+03  0.00000000000E+00 0. -1.
</event>
<event>
 7    1  0.5957303E-006  0.2670159E+03  0.7818608E-02  0.1240517E+00
          2   -1    0    0  502    0  0.00000000000E+00  0.00000000000E+00  0.28728123676E+03  0.28728123676E+03  0.00000000000E+00 0. -1.
          1   -1    0    0  501    0 -0.00000000000E+00 -0.00000000000E+00 -0.11937947885E+04  0.11937947885E+04  0.00000000000E+00 0. -1.
         25    2    1    2    0    0 -0.18156787129E+03 -0.14450911088E+03 -0.19320929901E+03  0.32680879488E+03  0.12499752067E+03 0.  0.
          2    1    1    2  501    0  0.19552657630E+03  0.19807704046E+03 -0.90912357270E+03  0.95077380403E+03  0.00000000000E+00 0. -1.
          1    1    1    2  502    0 -0.13958705016E+02 -0.53567929580E+02  0.19581931993E+03  0.20349342639E+03  0.00000000000E+00 0. -1.
         22    1    3    3    0    0 -0.19469860286E+01  0.73608610526E+01  0.12295589468E+02  0.14462176545E+02  0.00000000000E+00 0.  1.
         22    1    3    3    0    0 -0.17962088526E+03 -0.15186997193E+03 -0.20550488848E+03  0.31234661833E+03  0.00000000000E+00 0.  1.
</event>
<event>
 7    1  0.5957303E-006  0.1122536E+03  0.7818608E-02  0.1340374E+00
          2   -1    0    0  502    0  0.00000000000E+00  0.00000000000E+00  0.93329864047E+03  0.93329864047E+03  0.00000000000E+00 0. -1.
          1   -1    0    0  501    0 -0.00000000000E+00 -0.00000000000E+00 -0.33715426539E+02  0.33715426539E+02  0.00000000000E+00 0. -1.
         25    2    1    2    0    0 -0.17651921853E+02  0.73633379824E+02  0.22444663374E+03  0.26783585171E+03  0.12500514828E+03 0.  0.
          2    1    1    2  501    0 -0.32627533952E+02  0.40034244548E+02  0.12645195022E+03  0.13659206574E+03  0.00000000000E+00 0. -1.
          1    1    1    2  502    0  0.50279455805E+02 -0.11366762437E+03  0.54868462997E+03  0.56258614955E+03  0.00000000000E+00 0. -1.
         22    1    3    3    0    0  0.27820129070E+02 -0.36951824399E+01  0.21802082834E+01  0.28149018862E+02  0.00000000000E+00 0. -1.
         22    1    3    3    0    0 -0.45472050923E+02  0.77328562264E+02  0.22226642546E+03  0.23968683285E+03  0.00000000000E+00 0. -1.
</event>
<event>
 7    1  0.5957303E-006  0.8398454E+02  0.7818608E-02  0.1463561E+00
          2   -1    0    0  502    0  0.00000000000E+00  0.00000000000E+00  0.51113252646E+03  0.51113252646E+03  0.00000000000E+00 0. -1.
          1   -1    0    0  501    0 -0.00000000000E+00 -0.00000000000E+00 -0.14444657381E+03  0.14444657381E+03  0.00000000000E+00 0. -1.
         25    2    1    2    0    0 -0.30573629247E+02  0.86350059912E+02  0.22629437940E+03  0.27427244379E+03  0.12500059047E+03 0.  0.
          2    1    1    2  501    0  0.46677756776E+01 -0.83611464310E+02 -0.10513052579E+03  0.13440644533E+03  0.00000000000E+00 0. -1.
          1    1    1    2  502    0  0.25905853570E+02 -0.27385956021E+01  0.24552209903E+03  0.24690021115E+03  0.00000000000E+00 0. -1.
         22    1    3    3    0    0 -0.10700802888E+02  0.96457787668E+02  0.78548668281E+02  0.12485393575E+03  0.00000000000E+00 0.  1.
         22    1    3    3    0    0 -0.19872826359E+02 -0.10107727756E+02  0.14774571112E+03  0.14941850803E+03  0.00000000000E+00 0.  1.
</event>
<event>
 7    1  0.5957303E-006  0.1304776E+03  0.7818608E-02  0.1248950E+00
          2   -1    0    0  502    0  0.00000000000E+00  0.00000000000E+00  0.27427981335E+03  0.27427981335E+03  0.00000000000E+00 0. -1.
          1   -1    0    0  501    0 -0.00000000000E+00 -0.00000000000E+00 -0.66868519194E+03  0.66868519194E+03  0.00000000000E+00 0. -1.
         25    2    1    2    0    0  0.66702113029E+02 -0.71613873599E+02 -0.33160386019E+02  0.16217966483E+03  0.12499965483E+03 0.  0.
          2    1    1    2  501    0  0.79117529978E+02  0.67588042203E+02 -0.54007310330E+03  0.55000607625E+03  0.00000000000E+00 0. -1.
          1    1    1    2  502    0 -0.14581964301E+03  0.40258313961E+01  0.17882811074E+03  0.23077926422E+03  0.00000000000E+00 0. -1.
         22    1    3    3    0    0  0.72708077956E+02 -0.14261653082E+02 -0.62994743682E+02  0.97253262568E+02  0.00000000000E+00 0. -1.
         22    1    3    3    0    0 -0.60059649269E+01 -0.57352220516E+02  0.29834357663E+02  0.64926402257E+02  0.00000000000E+00 0. -1.
</event>
<event>
 7    1  0.8098063E-006  0.1091603E+03  0.7818608E-02  0.1343317E+00
          2   -1    0    0  502    0  0.00000000000E+00  0.00000000000E+00  0.13510758157E+04  0.13510758157E+04  0.00000000000E+00 0. -1.
          1   -1    0    0  501    0 -0.00000000000E+00 -0.00000000000E+00 -0.29465237124E+04  0.29465237124E+04  0.00000000000E+00 0. -1.
         25    2    1    2    0    0 -0.96436751020E+02  0.43432603936E+02 -0.78012580685E+03  0.79712305401E+03  0.12498980232E+03 0.  0.
          2    1    1    2  501    0  0.69155800357E+02 -0.87438642307E+02 -0.21559593957E+04  0.21588397246E+04  0.00000000000E+00 0. -1.
          1    1    1    2  502    0  0.27280950663E+02  0.44006038370E+02  0.13406373059E+04  0.13416367495E+04  0.00000000000E+00 0. -1.
         22    1    3    3    0    0 -0.15089044437E+02  0.73260533444E+02 -0.29595729929E+03  0.30526301450E+03  0.00000000000E+00 0.  1.
         22    1    3    3    0    0 -0.81347706582E+02 -0.29827929508E+02 -0.48416850757E+03  0.49186003951E+03  0.00000000000E+00 0.  1.
</event>
<event>
 7    1  0.5957303E-006  0.1029427E+03  0.7818608E-02  0.1355123E+00
          2   -1    0    0  502    0  0.00000000000E+00  0.00000000000E+00  0.87179683076E+03  0.87179683076E+03  0.00000000000E+00 0. -1.
          1   -1    0    0  501    0 -0.00000000000E+00 -0.00000000000E+00 -0.80097976733E+02  0.80097976733E+02  0.00000000000E+00 0. -1.
         25    2    1    2    0    0 -0.49989038161E+02  0.43584296593E+02  0.10965873854E+03  0.17902336180E+03  0.12500332111E+03 0.  0.
          2    1    1    2  501    0 -0.40746415821E+01  0.49469332960E+02 -0.26456875774E+02  0.56247523352E+02  0.00000000000E+00 0. -1.
          1    1    1    2  502    0  0.54063679743E+02 -0.93053629553E+02  0.70849699125E+03  0.71662392233E+03  0.00000000000E+00 0. -1.
         22    1    3    3    0    0 -0.31300255381E+02  0.87715152557E+02  0.65531672685E+02  0.11387736430E+03  0.00000000000E+00 0. -1.
         22    1    3    3    0    0 -0.18688782780E+02 -0.44130855964E+02  0.44127065856E+02  0.65145997505E+02  0.00000000000E+00 0. -1.
</event>
<event>
 7    1  0.5957303E-006  0.1068509E+03  0.7818608E-02  0.1304231E+00
          2   -1    0    0  502    0  0.00000000000E+00  0.00000000000E+00  0.21131146454E+03  0.21131146454E+03  0.00000000000E+00 0. -1.
          1   -1    0    0  501    0 -0.00000000000E+00 -0.00000000000E+00 -0.14587808686E+04  0.14587808686E+04  0.00000000000E+00 0. -1.
         25    2    1    2    0    0  0.81905090518E+02 -0.19079767178E+01  0.16263701966E+02  0.15033435989E+03  0.12499531005E+03 0.  0.
          2    1    1    2  501    0  0.19657380926E+02  0.72227231141E+02 -0.13606741354E+04  0.13627315540E+04  0.00000000000E+00 0. -1.
          1    1    1    2  502    0 -0.10156247144E+03 -0.70319254424E+02  0.96941029402E+02  0.15702641921E+03  0.00000000000E+00 0. -1.
         22    1    3    3    0    0  0.10963979026E+03  0.97305907426E+01 -0.98388283845E+01  0.11050959482E+03  0.00000000000E+00 0. -1.
         22    1    3    3    0    0 -0.27734699738E+02 -0.11638567460E+02  0.26102530351E+02  0.39824765069E+02  0.00000000000E+00 0. -1.
</event>
<event>
 7    1  0.5957303E-006  0.7066187E+02  0.7818608E-02  0.1506207E+00
          2   -1    0    0  502    0  0.00000000000E+00  0.00000000000E+00  0.57942173480E+03  0.57942173480E+03  0.00000000000E+00 0. -1.
          1   -1    0    0  501    0 -0.00000000000E+00 -0.00000000000E+00 -0.41794596248E+03  0.41794596248E+03  0.00000000000E+00 0. -1.
         25    2    1    2    0    0 -0.53458689206E+02  0.10282266863E+02  0.14517449017E+03  0.19916064288E+03  0.12500309042E+03 0.  0.
          2    1    1    2  501    0 -0.13269204149E+02  0.18730074033E+02 -0.38736040622E+03  0.38803991001E+03  0.00000000000E+00 0. -1.
          1    1    1    2  502    0  0.66727893355E+02 -0.29012340896E+02  0.40366168837E+03  0.41016714439E+03  0.00000000000E+00 0. -1.
         22    1    3    3    0    0 -0.93473605049E+02  0.80949353362E+01  0.83437329997E+02  0.12555728117E+03  0.00000000000E+00 0.  1.
         22    1    3    3    0    0  0.40014915842E+02  0.21873315269E+01  0.61737160169E+02  0.73603361709E+02  0.00000000000E+00 0.  1.
</event>
<event>
 7    1  0.5957303E-006  0.9453079E+02  0.7818608E-02  0.1385248E+00
          2   -1    0    0  502    0  0.00000000000E+00  0.00000000000E+00  0.14316994177E+04  0.14316994177E+04  0.00000000000E+00 0. -1.
          1   -1    0    0  501    0 -0.00000000000E+00 -0.00000000000E+00 -0.10071626946E+04  0.10071626946E+04  0.00000000000E+00 0. -1.
         25    2    1    2    0    0 -0.77867514812E+02  0.11163326555E+03  0.13408663989E+03  0.22831614913E+03  0.12499480437E+03 0.  0.
          2    1    1    2  501    0  0.54667737742E+02 -0.76471889608E+02 -0.95739060450E+03  0.96199442879E+03  0.00000000000E+00 0. -1.
          1    1    1    2  502    0  0.23199777070E+02 -0.35161375938E+02  0.12478406877E+04  0.12485515344E+04  0.00000000000E+00 0. -1.
         22    1    3    3    0    0 -0.90079941266E+02  0.29960431711E+02  0.10300761721E+03  0.14008066422E+03  0.00000000000E+00 0.  1.
         22    1    3    3    0    0  0.12212426454E+02  0.81672833834E+02  0.31079022680E+02  0.88235484909E+02  0.00000000000E+00 0.  1.
</event>
<event>
 7    1  0.5957303E-006  0.6924977E+02  0.7818608E-02  0.1512292E+00
          2   -1    0    0  502    0  0.00000000000E+00  0.00000000000E+00  0.10397903753E+04  0.10397903753E+04  0.00000000000E+00 0. -1.
          1   -1    0    0  501    0 -0.00000000000E+00 -0.00000000000E+00 -0.26235585893E+03  0.26235585893E+03  0.00000000000E+00 0. -1.
         25    2    1    2    0    0  0.21072444027E+02 -0.70973234781E+02 -0.26821705684E+02  0.14773397932E+03  0.12499870719E+03 0.  0.
          2    1    1    2  501    0  0.17817873846E+02  0.13698085106E+02 -0.17312724876E+03  0.17457994853E+03  0.00000000000E+00 0. -1.
          1    1    1    2  502    0 -0.38890317873E+02  0.57275149675E+02  0.97738347082E+03  0.97983230638E+03  0.00000000000E+00 0. -1.
         22    1    3    3    0    0 -0.45375908422E+02 -0.45182215724E+02  0.14066146583E+02  0.65561133018E+02  0.00000000000E+00 0. -1.
         22    1    3    3    0    0  0.66448352449E+02 -0.25791019056E+02 -0.40887852267E+02  0.82172846307E+02  0.00000000000E+00 0. -1.
</event>
<event>
 7    1  0.5957303E-006  0.3478728E+02  0.7818608E-02  0.1558858E+00
          2   -1    0    0  502    0  0.00000000000E+00  0.00000000000E+00  0.10720580375E+03  0.10720580375E+03  0.00000000000E+00 0. -1.
          1   -1    0    0  501    0 -0.00000000000E+00 -0.00000000000E+00 -0.91174971473E+03  0.91174971473E+03  0.00000000000E+00 0. -1.
         25    2    1    2    0    0 -0.11771921682E+01 -0.28120988407E+01 -0.56006524006E+03  0.57385322097E+03  0.12500060963E+03 0.  0.
          2    1    1    2  501    0 -0.24334485360E+01  0.37411493530E+02 -0.34071505232E+03  0.34277148131E+03  0.00000000000E+00 0. -1.
          1    1    1    2  502    0  0.36106407042E+01 -0.34599394689E+02  0.96236381409E+02  0.10233081621E+03  0.00000000000E+00 0. -1.
         22    1    3    3    0    0  0.50908157518E+02 -0.16462542598E+02 -0.13225091051E+03  0.14266379759E+03  0.00000000000E+00 0.  1.
         22    1    3    3    0    0 -0.52085349686E+02  0.13650443757E+02 -0.42781432955E+03  0.43118942339E+03  0.00000000000E+00 0.  1.
</event>
<event>
 7    1  0.5957303E-006  0.8420472E+02  0.7818608E-02  0.1425127E+00
          2   -1    0    0  502    0  0.00000000000E+00  0.00000000000E+00  0.56752758008E+03  0.56752758008E+03  0.00000000000E+00 0. -1.
          1   -1    0    0  501    0 -0.00000000000E+00 -0.00000000000E+00 -0.42851369365E+03  0.42851369365E+03  0.00000000000E+00 0. -1.
         25    2    1    2    0    0 -0.20888244441E+01  0.11562994553E+03  0.11663156216E+03  0.20640451426E+03  0.12500101889E+03 0.  0.
          2    1    1    2  501    0  0.42463536230E+01 -0.34304959830E+02 -0.37875698603E+03  0.38033106138E+03  0.00000000000E+00 0. -1.
          1    1    1    2  502    0 -0.21575291789E+01 -0.81324985696E+02  0.40113931029E+03  0.40930569809E+03  0.00000000000E+00 0. -1.
         22    1    3    3    0    0 -0.13146289338E+02 -0.91689291793E+01 -0.16904862800E+02  0.23295247840E+02  0.00000000000E+00 0. -1.
         22    1    3    3    0    0  0.11057464894E+02  0.12479887471E+03  0.13353642496E+03  0.18310926642E+03  0.00000000000E+00 0. -1.
</event>
<event>
 7    1  0.5957303E-006  0.1099535E+03  0.7818608E-02  0.1298051E+00
          2   -1    0    0  502    0  0.00000000000E+00  0.00000000000E+00  0.36457143915E+03  0.36457143915E+03  0.00000000000E+00 0. -1.
          1   -1    0    0  501    0 -0.00000000000E+00 -0.00000000000E+00 -0.44719753256E+03  0.44719753256E+03  0.00000000000E+00 0. -1.
         25    2    1    2    0    0  0.21827856071E+02 -0.40531852840E+02  0.45490552762E+02  0.14075919455E+03  0.12499789624E+03 0.  0.
          2    1    1    2  501    0 -0.66925701258E+01  0.11602809655E+03 -0.38535254991E+03  0.40249707751E+03  0.00000000000E+00 0. -1.
          1    1    1    2  502    0 -0.15135285945E+02 -0.75496243712E+02  0.25723590375E+03  0.26851269965E+03  0.00000000000E+00 0. -1.
         22    1    3    3    0    0  0.31294448210E+02 -0.10094682104E+01  0.80968613506E+02  0.86811738192E+02  0.00000000000E+00 0.  1.
         22    1    3    3    0    0 -0.94665921393E+01 -0.39522384629E+02 -0.35478060744E+02  0.53947456359E+02  0.00000000000E+00 0.  1.
</event>
<event>
 7    1  0.5957303E-006  0.3267261E+02  0.7818608E-02  0.1618452E+00
          2   -1    0    0  502    0  0.00000000000E+00  0.00000000000E+00  0.23553830241E+04  0.23553830241E+04  0.00000000000E+00 0. -1.
          1   -1    0    0  501    0 -0.00000000000E+00 -0.00000000000E+00 -0.24595991119E+03  0.24595991119E+03  0.00000000000E+00 0. -1.
         25    2    1    2    0    0 -0.13984502779E+00 -0.18082507338E+02 -0.29129230769E+02  0.12961817890E+03  0.12500145435E+03 0.  0.
          2    1    1    2  501    0  0.24028055779E+02 -0.42514269232E+01 -0.16557598843E+03  0.16736436311E+03  0.00000000000E+00 0. -1.
          1    1    1    2  502    0 -0.23888210751E+02  0.22333934261E+02  0.23041283321E+04  0.23043603932E+04  0.00000000000E+00 0. -1.
         22    1    3    3    0    0  0.40297124954E+02  0.13356296509E+02  0.29552833325E+02  0.51726384887E+02  0.00000000000E+00 0. -1.
         22    1    3    3    0    0 -0.40436969982E+02 -0.31438803847E+02 -0.58682064094E+02  0.77891794016E+02  0.00000000000E+00 0. -1.
</event>
<event>
 7    1  0.5957303E-006  0.4533730E+02  0.7818608E-02  0.1554982E+00
          2   -1    0    0  502    0  0.00000000000E+00  0.00000000000E+00  0.25488749086E+04  0.25488749086E+04  0.00000000000E+00 0. -1.
          1   -1    0    0  501    0 -0.00000000000E+00 -0.00000000000E+00 -0.39394299842E+03  0.39394299842E+03  0.00000000000E+00 0. -1.
         25    2    1    2    0    0 -0.24415393527E+02  0.59699119966E+02 -0.21580766830E+03  0.25759993520E+03  0.12499872221E+03 0.  0.
          2    1    1    2  501    0  0.21527415735E+02 -0.14467485259E+02 -0.15596496684E+03  0.15810695317E+03  0.00000000000E+00 0. -1.
          1    1    1    2  502    0  0.28879777917E+01 -0.45231634708E+02  0.25267045453E+04  0.25271110186E+04  0.00000000000E+00 0. -1.
         22    1    3    3    0    0 -0.40911844428E+02 -0.26728758162E+02 -0.10727208625E+03  0.11787920095E+03  0.00000000000E+00 0.  1.
         22    1    3    3    0    0  0.16496450902E+02  0.86427878128E+02 -0.10853558205E+03  0.13972073426E+03  0.00000000000E+00 0.  1.
</event>
<event>
 7    1  0.5957303E-006  0.3484066E+02  0.7818608E-02  0.1581924E+00
          2   -1    0    0  502    0  0.00000000000E+00  0.00000000000E+00  0.53570800937E+01  0.53570800937E+01  0.00000000000E+00 0. -1.
          1   -1    0    0  501    0 -0.00000000000E+00 -0.00000000000E+00 -0.26335590393E+04  0.26335590393E+04  0.00000000000E+00 0. -1.
         25    2    1    2    0    0 -0.22193680136E+02  0.61846238564E+00 -0.12593286065E+04  0.12657122059E+04  0.12500362799E+03 0.  0.
          2    1    1    2  501    0 -0.16776207086E+01  0.28456968501E+02 -0.11935308510E+04  0.11938712266E+04  0.00000000000E+00 0. -1.
          1    1    1    2  502    0  0.23871300845E+02 -0.29075430886E+02 -0.17534250161E+03  0.17933268680E+03  0.00000000000E+00 0. -1.
         22    1    3    3    0    0 -0.51569241067E+01 -0.45566442845E+02 -0.19793517240E+03  0.20317782126E+03  0.00000000000E+00 0.  1.
         22    1    3    3    0    0 -0.17036756029E+02  0.46184905231E+02 -0.10613934341E+04  0.10625343846E+04  0.00000000000E+00 0.  1.
</event>
<event>
 7    1  0.5957303E-006  0.2954002E+02  0.7818608E-02  0.1643087E+00
          2   -1    0    0  502    0  0.00000000000E+00  0.00000000000E+00  0.36623199786E+04  0.36623199786E+04  0.00000000000E+00 0. -1.
          1   -1    0    0  501    0 -0.00000000000E+00 -0.00000000000E+00 -0.27921005286E+02  0.27921005286E+02  0.00000000000E+00 0. -1.
         25    2    1    2    0    0 -0.36596916917E+01 -0.52460163251E+02  0.24010197001E+04  0.24048462509E+04  0.12499771363E+03 0.  0.
          2    1    1    2  501    0  0.47187579615E+01  0.29080060133E+02 -0.17520134669E+02  0.34276401399E+02  0.00000000000E+00 0. -1.
          1    1    1    2  502    0 -0.10590662697E+01  0.23380103118E+02  0.12508994079E+04  0.12511183315E+04  0.00000000000E+00 0. -1.
         22    1    3    3    0    0 -0.30470435339E+02 -0.61146856821E+02  0.64640710698E+03  0.65000733341E+03  0.00000000000E+00 0. -1.
         22    1    3    3    0    0  0.26810743647E+02  0.86866935708E+01  0.17546125931E+04  0.17548389175E+04  0.00000000000E+00 0. -1.
</event>
<event>
 7    1  0.5957303E-006  0.2294178E+03  0.7818608E-02  0.1321321E+00
          2   -1    0    0  502    0  0.00000000000E+00  0.00000000000E+00  0.25406239756E+03  0.25406239756E+03  0.00000000000E+00 0. -1.
          1   -1    0    0  501    0 -0.00000000000E+00 -0.00000000000E+00 -0.15325518399E+04  0.15325518399E+04  0.00000000000E+00 0. -1.
         25    2    1    2    0    0 -0.23061236164E+03 -0.33462031623E+02 -0.85093406172E+03  0.89107760703E+03  0.12501502090E+03 0.  0.
          2    1    1    2  501    0  0.13400967532E+01  0.29844861333E+02 -0.60491248766E+03  0.60564975797E+03  0.00000000000E+00 0. -1.
          1    1    1    2  502    0  0.22927226489E+03  0.36171702897E+01  0.17735710708E+03  0.28988687242E+03  0.00000000000E+00 0. -1.
         22    1    3    3    0    0 -0.24348380554E+03 -0.41872708970E+02 -0.82182355873E+03  0.85815595844E+03  0.00000000000E+00 0.  1.
         22    1    3    3    0    0  0.12871443905E+02  0.84106773470E+01 -0.29110502992E+02  0.32921648593E+02  0.00000000000E+00 0.  1.
</event>
<event>
 7    1  0.5957303E-006  0.8329973E+02  0.7818608E-02  0.1416604E+00
          2   -1    0    0  502    0  0.00000000000E+00  0.00000000000E+00  0.24182764467E+02  0.24182764467E+02  0.00000000000E+00 0. -1.
          1   -1    0    0  501    0 -0.00000000000E+00 -0.00000000000E+00 -0.14909470704E+04  0.14909470704E+04  0.00000000000E+00 0. -1.
         25    2    1    2    0    0 -0.12791678767E+02 -0.63009399150E+02 -0.34756390021E+03  0.37491284069E+03  0.12500064784E+03 0.  0.
          2    1    1    2  501    0  0.17251931140E+02 -0.33077691092E+02 -0.90079963797E+03  0.90157182218E+03  0.00000000000E+00 0. -1.
          1    1    1    2  502    0 -0.44602523739E+01  0.96087090242E+02 -0.21840076777E+03  0.23864517201E+03  0.00000000000E+00 0. -1.
         22    1    3    3    0    0 -0.60717940900E+02 -0.59347797933E+02 -0.27552757263E+03  0.28831280364E+03  0.00000000000E+00 0. -1.
         22    1    3    3    0    0  0.47926262134E+02 -0.36616012173E+01 -0.72036327578E+02  0.86600037047E+02  0.00000000000E+00 0. -1.
</event>
<event>
 7    1  0.5957303E-006  0.4890442E+02  0.7818608E-02  0.1502899E+00
          2   -1    0    0  502    0  0.00000000000E+00  0.00000000000E+00  0.25155435355E+04  0.25155435355E+04  0.00000000000E+00 0. -1.
          1   -1    0    0  501    0 -0.00000000000E+00 -0.00000000000E+00 -0.18975751355E+03  0.18975751355E+03  0.00000000000E+00 0. -1.
         25    2    1    2    0    0 -0.16768615809E+02 -0.10867880585E+02 -0.30463778451E+02  0.13020001772E+03  0.12499882205E+03 0.  0.
          2    1    1    2  501    0 -0.35073905201E+01 -0.33742117252E+02 -0.10654676937E+03  0.11181702164E+03  0.00000000000E+00 0. -1.
          1    1    1    2  502    0  0.20276006329E+02  0.44609997837E+02  0.24627965697E+04  0.24632840097E+04  0.00000000000E+00 0. -1.
         22    1    3    3    0    0  0.28064262421E+02  0.43381090289E+02  0.40298464325E+01  0.51824332916E+02  0.00000000000E+00 0.  1.
         22    1    3    3    0    0 -0.44832878229E+02 -0.54248970874E+02 -0.34493624884E+02  0.78375684806E+02  0.00000000000E+00 0.  1.
</event>
<event>
 7    1  0.5957303E-006  0.1095020E+03  0.7818608E-02  0.1347708E+00
          2   -1    0    0  502    0  0.00000000000E+00  0.00000000000E+00  0.21533767132E+04  0.21533767132E+04  0.00000000000E+00 0. -1.
          1   -1    0    0  501    0 -0.00000000000E+00 -0.00000000000E+00 -0.25034614451E+04  0.25034614451E+04  0.00000000000E+00 0. -1.
         25    2    1    2    0    0 -0.99622147663E+02 -0.20055000308E+02  0.52060698956E+02  0.16930198939E+03  0.12500428750E+03 0.  0.
          2    1    1    2  501    0  0.13179749020E+02 -0.47924967296E+02 -0.24431077402E+04  0.24436132956E+04  0.00000000000E+00 0. -1.
          1    1    1    2  502    0  0.86442398643E+02  0.67979967604E+02  0.20409623093E+04  0.20439228734E+04  0.00000000000E+00 0. -1.
         22    1    3    3    0    0  0.23109450586E+02  0.58063689922E-01 -0.15443099076E+02  0.27794592762E+02  0.00000000000E+00 0. -1.
         22    1    3    3    0    0 -0.12273159825E+03 -0.20113063998E+02  0.67503798032E+02  0.14150739663E+03  0.00000000000E+00 0. -1.
</event>
<event>
 7    1  0.5957303E-006  0.8851535E+02  0.7818608E-02  0.1398044E+00
          2   -1    0    0  502    0  0.00000000000E+00  0.00000000000E+00  0.28555086722E+04  0.28555086722E+04  0.00000000000E+00 0. -1.
          1   -1    0    0  501    0 -0.00000000000E+00 -0.00000000000E+00 -0.74639567949E+03  0.74639567949E+03  0.00000000000E+00 0. -1.
         25    2    1    2    0    0  0.17398704071E+02 -0.59681642784E+02  0.16004118624E+03  0.21237715440E+03  0.12500504402E+03 0.  0.
          2    1    1    2  501    0 -0.28360734471E+02 -0.29055591738E+02 -0.71890596216E+03  0.72005162392E+03  0.00000000000E+00 0. -1.
          1    1    1    2  502    0  0.10962030401E+02  0.88737234522E+02  0.26679777686E+04  0.26694755734E+04  0.00000000000E+00 0. -1.
         22    1    3    3    0    0  0.69866511922E+02 -0.18666718693E+02  0.72701855993E+02  0.10254431110E+03  0.00000000000E+00 0.  1.
         22    1    3    3    0    0 -0.52467807851E+02 -0.41014924090E+02  0.87339330250E+02  0.10983284330E+03  0.00000000000E+00 0.  1.
</event>
<event>
 7    1  0.5957303E-006  0.1040178E+03  0.7818608E-02  0.1312820E+00
          2   -1    0    0  502    0  0.00000000000E+00  0.00000000000E+00  0.16726441721E+04  0.16726441721E+04  0.00000000000E+00 0. -1.
          1   -1    0    0  501    0 -0.00000000000E+00 -0.00000000000E+00 -0.13775681504E+03  0.13775681504E+03  0.00000000000E+00 0. -1.
         25    2    1    2    0    0 -0.29643984936E+02 -0.95556509315E+02  0.12583383227E+04  0.12684834105E+04  0.12500006358E+03 0.  0.
          2    1    1    2  501    0  0.88464919975E+02  0.55589435784E+02 -0.10834126986E+03  0.15051265127E+03  0.00000000000E+00 0. -1.
          1    1    1    2  502    0 -0.58820935040E+02  0.39967073531E+02  0.38489030416E+03  0.39140492537E+03  0.00000000000E+00 0. -1.
         22    1    3    3    0    0  0.83185710683E+01 -0.10130995026E+03  0.56420243512E+03  0.57328639653E+03  0.00000000000E+00 0. -1.
         22    1    3    3    0    0 -0.37962556004E+02  0.57534409492E+01  0.69413588761E+03  0.69519701395E+03  0.00000000000E+00 0. -1.
</event>
<event>
 7    1  0.5957303E-006  0.4676369E+02  0.7818608E-02  0.1488640E+00
          2   -1    0    0  502    0  0.00000000000E+00  0.00000000000E+00  0.37366326458E+02  0.37366326458E+02  0.00000000000E+00 0. -1.
          1   -1    0    0  501    0 -0.00000000000E+00 -0.00000000000E+00 -0.24818825326E+04  0.24818825326E+04  0.00000000000E+00 0. -1.
         25    2    1    2    0    0  0.55145316009E+02  0.28775951920E+02 -0.92360718364E+03  0.93410107571E+03  0.12500211471E+03 0.  0.
          2    1    1    2  501    0 -0.18564675921E+02 -0.42728213666E+02 -0.15406134958E+04  0.15413177125E+04  0.00000000000E+00 0. -1.
          1    1    1    2  502    0 -0.36580640088E+02  0.13952261746E+02  0.19704473341E+02  0.43830070804E+02  0.00000000000E+00 0. -1.
         22    1    3    3    0    0  0.45941683719E+02 -0.24524870019E+02 -0.15344010858E+03  0.16203695404E+03  0.00000000000E+00 0. -1.
         22    1    3    3    0    0  0.92036322906E+01  0.53300821939E+02 -0.77016707506E+03  0.77206412167E+03  0.00000000000E+00 0. -1.
</event>
<event>
 7    1  0.5957303E-006  0.1051916E+03  0.7818608E-02  0.1276506E+00
          2   -1    0    0  502    0  0.00000000000E+00  0.00000000000E+00  0.15402226657E+03  0.15402226657E+03  0.00000000000E+00 0. -1.
          1   -1    0    0  501    0 -0.00000000000E+00 -0.00000000000E+00 -0.19615511384E+04  0.19615511384E+04  0.00000000000E+00 0. -1.
         25    2    1    2    0    0 -0.88993067900E+02  0.72926918222E+02 -0.55443205542E+03  0.57987848040E+03  0.12500418558E+03 0.  0.
          2    1    1    2  501    0 -0.14544155374E+02 -0.97485247966E+02 -0.13723407307E+04  0.13758757165E+04  0.00000000000E+00 0. -1.
          1    1    1    2  502    0  0.10353722327E+03  0.24558329744E+02  0.11924391433E+03  0.15981920807E+03  0.00000000000E+00 0. -1.
         22    1    3    3    0    0 -0.35096118632E+02  0.10185409795E+03 -0.38286890774E+03  0.39773684180E+03  0.00000000000E+00 0. -1.
         22    1    3    3    0    0 -0.53896949268E+02 -0.28927179732E+02 -0.17156314768E+03  0.18214163860E+03  0.00000000000E+00 0. -1.
</event>
<event>
 7    1  0.5957303E-006  0.5833507E+02  0.7818608E-02  0.1455262E+00
          2   -1    0    0  502    0  0.00000000000E+00  0.00000000000E+00  0.14430716351E+04  0.14430716351E+04  0.00000000000E+00 0. -1.
          1   -1    0    0  501    0 -0.00000000000E+00 -0.00000000000E+00 -0.52459819813E+03  0.52459819813E+03  0.00000000000E+00 0. -1.
         25    2    1    2    0    0 -0.41867867773E+02  0.23993080719E+01  0.49437404329E+03  0.51165341347E+03  0.12499938324E+03 0.  0.
          2    1    1    2  501    0  0.40398034186E+02 -0.42208957347E+02 -0.51388036438E+03  0.51719109249E+03  0.00000000000E+00 0. -1.
          1    1    1    2  502    0  0.14698335863E+01  0.39809649275E+02  0.93797975811E+03  0.93882532732E+03  0.00000000000E+00 0. -1.
         22    1    3    3    0    0  0.32440076158E+02  0.13579329785E+02  0.50957066259E+02  0.61914290275E+02  0.00000000000E+00 0.  1.
         22    1    3    3    0    0 -0.74307943931E+02 -0.11180021713E+02  0.44341697703E+03  0.44973912320E+03  0.00000000000E+00 0.  1.
</event>
<event>
 7    1  0.5957303E-006  0.1570783E+03  0.7818608E-02  0.1248389E+00
          2   -1    0    0  502    0  0.00000000000E+00  0.00000000000E+00  0.69285534253E+03  0.69285534253E+03  0.00000000000E+00 0. -1.
          1   -1    0    0  501    0 -0.00000000000E+00 -0.00000000000E+00 -0.24104824526E+03  0.24104824526E+03  0.00000000000E+00 0. -1.
         25    2    1    2    0    0 -0.93349650239E+01  0.58724581776E+02  0.40827160880E+03  0.43110207221E+03  0.12501028770E+03 0.  0.
          2    1    1    2  501    0 -0.11414031755E+03  0.10791468714E+03 -0.15140490740E+03  0.21816745352E+03  0.00000000000E+00 0. -1.
          1    1    1    2  502    0  0.12347528258E+03 -0.16663926891E+03  0.19494039586E+03  0.28463406207E+03  0.00000000000E+00 0. -1.
         22    1    3    3    0    0  0.39743043873E+02  0.35105064297E+02  0.66674986810E+02  0.85190544907E+02  0.00000000000E+00 0. -1.
         22    1    3    3    0    0 -0.49078008897E+02  0.23619517479E+02  0.34159662199E+03  0.34591152730E+03  0.00000000000E+00 0. -1.
</event>
<event>
 7    1  0.5957303E-006  0.1427524E+03  0.7818608E-02  0.1425676E+00
          2   -1    0    0  502    0  0.00000000000E+00  0.00000000000E+00  0.11771749388E+04  0.11771749388E+04  0.00000000000E+00 0. -1.
          1   -1    0    0  501    0 -0.00000000000E+00 -0.00000000000E+00 -0.48348192975E+03  0.48348192975E+03  0.00000000000E+00 0. -1.
         25    2    1    2    0    0  0.14913845837E+02  0.12552279213E+03  0.63175096709E+03  0.65628663900E+03  0.12499789584E+03 0.  0.
          2    1    1    2  501    0 -0.45188525402E+01 -0.14296454821E+03 -0.46015765324E+03  0.48187586359E+03  0.00000000000E+00 0. -1.
          1    1    1    2  502    0 -0.10394993297E+02  0.17441756082E+02  0.52209969518E+03  0.52249436595E+03  0.00000000000E+00 0. -1.
         22    1    3    3    0    0  0.50914977183E+02  0.74251630647E+02  0.19158620416E+03  0.21168588328E+03  0.00000000000E+00 0.  1.
         22    1    3    3    0    0 -0.36001131345E+02  0.51271161478E+02  0.44016476294E+03  0.44460075572E+03  0.00000000000E+00 0.  1.
</event>
<event>
 7    1  0.5957303E-006  0.5192224E+02  0.7818608E-02  0.1441977E+00
          2   -1    0    0  502    0  0.00000000000E+00  0.00000000000E+00  0.15064220017E+04  0.15064220017E+04  0.00000000000E+00 0. -1.
          1   -1    0    0  501    0 -0.00000000000E+00 -0.00000000000E+00 -0.35368497521E+03  0.35368497521E+03  0.00000000000E+00 0. -1.
         25    2    1    2    0    0  0.30763712792E+02 -0.69715243173E+02 -0.56160509728E+01  0.14651004485E+03  0.12500812797E+03 0.  0.
          2    1    1    2  501    0  0.14340387290E+02  0.49643702567E+02 -0.27478872998E+03  0.27960506082E+03  0.00000000000E+00 0. -1.
          1    1    1    2  502    0 -0.45104100082E+02  0.20071540607E+02  0.14331418074E+04  0.14339918712E+04  0.00000000000E+00 0. -1.
         22    1    3    3    0    0  0.10692140902E+02 -0.45084640210E+02  0.58693972835E+02  0.74779202370E+02  0.00000000000E+00 0. -1.
         22    1    3    3    0    0  0.20071571890E+02 -0.24630602963E+02 -0.64310023808E+02  0.71730842478E+02  0.00000000000E+00 0. -1.
</event>
<event>
 7    1  0.5957303E-006  0.8128301E+02  0.7818608E-02  0.1347952E+00
          2   -1    0    0  502    0  0.00000000000E+00  0.00000000000E+00  0.41278135760E+03  0.41278135760E+03  0.00000000000E+00 0. -1.
          1   -1    0    0  501    0 -0.00000000000E+00 -0.00000000000E+00 -0.83342741552E+03  0.83342741552E+03  0.00000000000E+00 0. -1.
         25    2    1    2    0    0 -0.49072650960E+02 -0.13494670362E+03 -0.74547323870E+02  0.20445187263E+03  0.12499810732E+03 0.  0.
          2    1    1    2  501    0  0.96477200185E+01  0.66120084986E+02 -0.68776556631E+03  0.69100392064E+03  0.00000000000E+00 0. -1.
          1    1    1    2  502    0  0.39424930941E+02  0.68826618638E+02  0.34166683226E+03  0.35075297986E+03  0.00000000000E+00 0. -1.
         22    1    3    3    0    0 -0.89970388468E+02 -0.73033206693E+02 -0.50956707833E+02  0.12659030830E+03  0.00000000000E+00 0. -1.
         22    1    3    3    0    0  0.40897737508E+02 -0.61913496931E+02 -0.23590616037E+02  0.77861564334E+02  0.00000000000E+00 0. -1.
</event>
<event>
 7    1  0.5957303E-006  0.1949692E+03  0.7818608E-02  0.1215275E+00
          2   -1    0    0  502    0  0.00000000000E+00  0.00000000000E+00  0.35419851694E+04  0.35419851694E+04  0.00000000000E+00 0. -1.
          1   -1    0    0  501    0 -0.00000000000E+00 -0.00000000000E+00 -0.26358324508E+02  0.26358324508E+02  0.00000000000E+00 0. -1.
         25    2    1    2    0    0  0.17489124817E+03  0.31132449208E+02  0.19966185841E+04  0.20083993633E+04  0.12500421491E+03 0.  0.
          2    1    1    2  501    0  0.26250600567E+02  0.94913500085E+02  0.24571773292E+03  0.26471658580E+03  0.00000000000E+00 0. -1.
          1    1    1    2  502    0 -0.20114184873E+03 -0.12604594929E+03  0.12732905279E+04  0.12952275449E+04  0.00000000000E+00 0. -1.
         22    1    3    3    0    0  0.16536949458E+03  0.50431399508E+02  0.12996922967E+04  0.13111409008E+04  0.00000000000E+00 0. -1.
         22    1    3    3    0    0  0.95217535834E+01 -0.19298950299E+02  0.69692628749E+03  0.69725846246E+03  0.00000000000E+00 0. -1.
</event>
<event>
 7    1  0.5957303E-006  0.1198229E+03  0.7818608E-02  0.1367079E+00
          2   -1    0    0  502    0  0.00000000000E+00  0.00000000000E+00  0.95256983112E+03  0.95256983112E+03  0.00000000000E+00 0. -1.
          1   -1    0    0  501    0 -0.00000000000E+00 -0.00000000000E+00 -0.37706905432E+02  0.37706905432E+02  0.00000000000E+00 0. -1.
         25    2    1    2    0    0 -0.61881705790E+02  0.66728066627E+02  0.25292528514E+03  0.29644207226E+03  0.12499888782E+03 0.  0.
          2    1    1    2  501    0 -0.17115100475E+02  0.34569724769E+02  0.29712864433E+02  0.48691342636E+02  0.00000000000E+00 0. -1.
          1    1    1    2  502    0  0.78996806265E+02 -0.10129779140E+03  0.63222477612E+03  0.64514332166E+03  0.00000000000E+00 0. -1.
         22    1    3    3    0    0 -0.50556326617E+02  0.25422092208E+02  0.24676571140E+03  0.25317097238E+03  0.00000000000E+00 0.  1.
         22    1    3    3    0    0 -0.11325379173E+02  0.41305974420E+02  0.61595737389E+01  0.43271099880E+02  0.00000000000E+00 0.  1.
</event>
<event>
 7    1  0.5957303E-006  0.1986964E+03  0.7818608E-02  0.1337685E+00
          2   -1    0    0  502    0  0.00000000000E+00  0.00000000000E+00  0.18558061021E+04  0.18558061021E+04  0.00000000000E+00 0. -1.
          1   -1    0    0  501    0 -0.00000000000E+00 -0.00000000000E+00 -0.35382850917E+02  0.35382850917E+02  0.00000000000E+00 0. -1.
         25    2    1    2    0    0  0.14628194672E+03 -0.15515854218E+03  0.89920554690E+03  0.93256000707E+03  0.12499988028E+03 0.  0.
          2    1    1    2  501    0 -0.30526975190E+01  0.29709536168E+02  0.16555561660E+02  0.34147651798E+02  0.00000000000E+00 0. -1.
          1    1    1    2  502    0 -0.14322924920E+03  0.12544900601E+03  0.90466214267E+03  0.92448129420E+03  0.00000000000E+00 0. -1.
         22    1    3    3    0    0  0.16556706336E+02  0.19598748521E+02  0.54042194954E+02  0.59823024863E+02  0.00000000000E+00 0.  1.
         22    1    3    3    0    0  0.12972524038E+03 -0.17475729070E+03  0.84516335194E+03  0.87273698221E+03  0.00000000000E+00 0.  1.
</event>
<event>
 7    1  0.5957303E-006  0.5998199E+02  0.7818608E-02  0.1437852E+00
          2   -1    0    0  502    0  0.00000000000E+00  0.00000000000E+00  0.15959898583E+04  0.15959898583E+04  0.00000000000E+00 0. -1.
          1   -1    0    0  501    0 -0.00000000000E+00 -0.00000000000E+00 -0.12501408080E+02  0.12501408080E+02  0.00000000000E+00 0. -1.
         25    2    1    2    0    0 -0.57890353154E+02 -0.51549314374E+02  0.58847852486E+03  0.60658147057E+03  0.12500192564E+03 0.  0.
          2    1    1    2  501    0  0.55086298791E+02  0.75660119470E+01  0.27571335305E+03  0.28126428479E+03  0.00000000000E+00 0. -1.
          1    1    1    2  502    0  0.28040543628E+01  0.43983302427E+02  0.71929657232E+03  0.72064551103E+03  0.00000000000E+00 0. -1.
         22    1    3    3    0    0 -0.92185257212E+02 -0.37468903035E+02  0.30831109749E+03  0.32397187097E+03  0.00000000000E+00 0. -1.
         22    1    3    3    0    0  0.34294904058E+02 -0.14080411339E+02  0.28016742737E+03  0.28260959960E+03  0.00000000000E+00 0. -1.
</event>
<event>
 7    1  0.5957303E-006  0.4598086E+02  0.7818608E-02  0.1507956E+00
          2   -1    0    0  502    0  0.00000000000E+00  0.00000000000E+00  0.22077630426E+04  0.22077630426E+04  0.00000000000E+00 0. -1.
          1   -1    0    0  501    0 -0.00000000000E+00 -0.00000000000E+00 -0.16834596685E+03  0.16834596685E+03  0.00000000000E+00 0. -1.
         25    2    1    2    0    0  0.47835490962E+02  0.62861381035E+02  0.19557779783E+02  0.14915550175E+03  0.12500027812E+03 0.  0.
          2    1    1    2  501    0 -0.27002103390E+02 -0.34914624034E+02 -0.98693689306E+02  0.10811377742E+03  0.00000000000E+00 0. -1.
          1    1    1    2  502    0 -0.20833387572E+02 -0.27946757001E+02  0.21185529853E+04  0.21188397303E+04  0.00000000000E+00 0. -1.
         22    1    3    3    0    0  0.90369731293E+00  0.39683568257E+02 -0.48898120457E+02  0.62981175304E+02  0.00000000000E+00 0. -1.
         22    1    3    3    0    0  0.46931793649E+02  0.23177812778E+02  0.68455900239E+02  0.86174326443E+02  0.00000000000E+00 0. -1.
</event>
<event>
 7    1  0.5957303E-006  0.1062952E+03  0.7818608E-02  0.1285472E+00
          2   -1    0    0  502    0  0.00000000000E+00  0.00000000000E+00  0.59002850809E+02  0.59002850809E+02  0.00000000000E+00 0. -1.
          1   -1    0    0  501    0 -0.00000000000E+00 -0.00000000000E+00 -0.26043723464E+04  0.26043723464E+04  0.00000000000E+00 0. -1.
         25    2    1    2    0    0  0.14940990792E+01  0.26459311301E+02 -0.59751311526E+03  0.61102431661E+03  0.12500586028E+03 0.  0.
          2    1    1    2  501    0 -0.25070991388E+02  0.85996597923E+02 -0.19346171534E+04  0.19366898305E+04  0.00000000000E+00 0. -1.
          1    1    1    2  502    0  0.23576892308E+02 -0.11245590922E+03 -0.13239226929E+02  0.11566105006E+03  0.00000000000E+00 0. -1.
         22    1    3    3    0    0  0.50787669287E+02  0.13835085032E+02 -0.12299228207E+03  0.13378302725E+03  0.00000000000E+00 0. -1.
         22    1    3    3    0    0 -0.49293570208E+02  0.12624226269E+02 -0.47452083318E+03  0.47724128937E+03  0.00000000000E+00 0. -1.
</event>
<event>
 7    1  0.5957303E-006  0.6835567E+02  0.7818608E-02  0.1399486E+00
          2   -1    0    0  502    0  0.00000000000E+00  0.00000000000E+00  0.13901390327E+04  0.13901390327E+04  0.00000000000E+00 0. -1.
          1   -1    0    0  501    0 -0.00000000000E+00 -0.00000000000E+00 -0.24630348190E+03  0.24630348190E+03  0.00000000000E+00 0. -1.
         25    2    1    2    0    0 -0.23777281533E+02  0.38806013331E+02  0.10193809391E+02  0.13341709391E+03  0.12499976564E+03 0.  0.
          2    1    1    2  501    0  0.70205333208E+02 -0.15433887960E+02 -0.17716310927E+03  0.19119037893E+03  0.00000000000E+00 0. -1.
          1    1    1    2  502    0 -0.46428051675E+02 -0.23372125371E+02  0.13108048507E+04  0.13118350418E+04  0.00000000000E+00 0. -1.
         22    1    3    3    0    0  0.39184393168E+02  0.10120928189E+02 -0.32683749728E+02  0.52019970700E+02  0.00000000000E+00 0. -1.
         22    1    3    3    0    0 -0.62961674701E+02  0.28685085142E+02  0.42877559119E+02  0.81397123209E+02  0.00000000000E+00 0. -1.
</event>
<event>
 7    1  0.5957303E-006  0.1635275E+03  0.7818608E-02  0.1255130E+00
          2   -1    0    0  502    0  0.00000000000E+00  0.00000000000E+00  0.14570031974E+04  0.14570031974E+04  0.00000000000E+00 0. -1.
          1   -1    0    0  501    0 -0.00000000000E+00 -0.00000000000E+00 -0.18590275424E+03  0.18590275424E+03  0.00000000000E+00 0. -1.
         25    2    1    2    0    0 -0.70416024674E+02  0.58649347498E+02 -0.16945421157E+02  0.15591471205E+03  0.12499635052E+03 0.  0.
          2    1    1    2  501    0 -0.72007064942E+02  0.30169602866E+02 -0.78183887517E+02  0.11048955881E+03  0.00000000000E+00 0. -1.
          1    1    1    2  502    0  0.14242308962E+03 -0.88818950364E+02  0.13662297518E+04  0.13765016807E+04  0.00000000000E+00 0. -1.
         22    1    3    3    0    0 -0.10314476310E+03  0.34462412776E+02 -0.30627262876E+02  0.11298021633E+03  0.00000000000E+00 0.  1.
         22    1    3    3    0    0  0.32728738430E+02  0.24186934722E+02  0.13681841719E+02  0.42934495726E+02  0.00000000000E+00 0.  1.
</event>
<event>
 7    1  0.5957303E-006  0.7736256E+02  0.7818608E-02  0.1403820E+00
          2   -1    0    0  502    0  0.00000000000E+00  0.00000000000E+00  0.23260292817E+04  0.23260292817E+04  0.00000000000E+00 0. -1.
          1   -1    0    0  501    0 -0.00000000000E+00 -0.00000000000E+00 -0.51574057610E+03  0.51574057610E+03  0.00000000000E+00 0. -1.
         25    2    1    2    0    0  0.75287553810E+02  0.87468491349E+02  0.41195798575E+03  0.44570461676E+03  0.12499708253E+03 0.  0.
          2    1    1    2  501    0 -0.14800108375E+02 -0.41841417709E+02 -0.49712180382E+03  0.49909902352E+03  0.00000000000E+00 0. -1.
          1    1    1    2  502    0 -0.60487445435E+02 -0.45627073640E+02  0.18954525237E+04  0.18969662175E+04  0.00000000000E+00 0. -1.
         22    1    3    3    0    0  0.36912575818E+01  0.97064702034E+02  0.25674577203E+03  0.27450605316E+03  0.00000000000E+00 0.  1.
         22    1    3    3    0    0  0.71596296228E+02 -0.95962106855E+01  0.15521221371E+03  0.17119856360E+03  0.00000000000E+00 0.  1.
</event>
<event>
 7    1  0.5957303E-006  0.1493918E+03  0.7818608E-02  0.1365047E+00
          2   -1    0    0  502    0  0.00000000000E+00  0.00000000000E+00  0.14564383361E+04  0.14564383361E+04  0.00000000000E+00 0. -1.
          1   -1    0    0  501    0 -0.00000000000E+00 -0.00000000000E+00 -0.55223114422E+03  0.55223114422E+03  0.00000000000E+00 0. -1.
         25    2    1    2    0    0 -0.50299217598E+02 -0.16618596650E+03  0.10457405751E+02  0.21420128936E+03  0.12500019310E+03 0.  0.
          2    1    1    2  501    0  0.27735455001E+02  0.14425258354E+03 -0.43819017607E+03  0.46215656841E+03  0.00000000000E+00 0. -1.
          1    1    1    2  502    0  0.22563762597E+02  0.21933382967E+02  0.13319399622E+04  0.13323116225E+04  0.00000000000E+00 0. -1.
         22    1    3    3    0    0  0.19892964621E+02 -0.18093529507E+02 -0.34991832481E+02  0.44130875719E+02  0.00000000000E+00 0.  1.
         22    1    3    3    0    0 -0.70192182219E+02 -0.14809243700E+03  0.45449238231E+02  0.17007041364E+03  0.00000000000E+00 0.  1.
</event>
<event>
 7    1  0.5957303E-006  0.7941427E+02  0.7818608E-02  0.1394977E+00
          2   -1    0    0  502    0  0.00000000000E+00  0.00000000000E+00  0.13570432034E+04  0.13570432034E+04  0.00000000000E+00 0. -1.
          1   -1    0    0  501    0 -0.00000000000E+00 -0.00000000000E+00 -0.91204579946E+03  0.91204579946E+03  0.00000000000E+00 0. -1.
         25    2    1    2    0    0  0.95365674382E+02  0.81378114427E+02  0.20793931768E+03  0.27309245983E+03  0.12499488957E+03 0.  0.
          2    1    1    2  501    0 -0.58714563991E+02 -0.52966306169E+02 -0.87720851771E+03  0.88076535647E+03  0.00000000000E+00 0. -1.
          1    1    1    2  502    0 -0.36651110390E+02 -0.28411808257E+02  0.11142666040E+04  0.11152311866E+04  0.00000000000E+00 0. -1.
         22    1    3    3    0    0  0.12124219902E+03  0.42777283317E+02  0.16974696785E+03  0.21294036697E+03  0.00000000000E+00 0. -1.
         22    1    3    3    0    0 -0.25876524635E+02  0.38600831109E+02  0.38192349833E+02  0.60152092859E+02  0.00000000000E+00 0. -1.
</event>
<event>
 7    1  0.5957303E-006  0.1037269E+03  0.7818608E-02  0.1451710E+00
          2   -1    0    0  502    0  0.00000000000E+00  0.00000000000E+00  0.15282760364E+03  0.15282760364E+03  0.00000000000E+00 0. -1.
          1   -1    0    0  501    0 -0.00000000000E+00 -0.00000000000E+00 -0.16089977793E+04  0.16089977793E+04  0.00000000000E+00 0. -1.
         25    2    1    2    0    0  0.77095182693E+02 -0.55733121130E+02 -0.72209020766E+03  0.73897827821E+03  0.12499911877E+03 0.  0.
          2    1    1    2  501    0  0.18193477763E+02  0.14062581426E+02 -0.85956128961E+03  0.85986880943E+03  0.00000000000E+00 0. -1.
          1    1    1    2  502    0 -0.95288660456E+02  0.41670539704E+02  0.12548132156E+03  0.16297829534E+03  0.00000000000E+00 0. -1.
         22    1    3    3    0    0  0.10308948816E+03 -0.31877110082E+02 -0.64792160124E+03  0.65684548721E+03  0.00000000000E+00 0. -1.
         22    1    3    3    0    0 -0.25994305472E+02 -0.23856011048E+02 -0.74168606418E+02  0.82132791004E+02  0.00000000000E+00 0. -1.
</event>
<event>
 7    1  0.5957303E-006  0.3913487E+02  0.7818608E-02  0.1552551E+00
          2   -1    0    0  502    0  0.00000000000E+00  0.00000000000E+00  0.11997097975E+04  0.11997097975E+04  0.00000000000E+00 0. -1.
          1   -1    0    0  501    0 -0.00000000000E+00 -0.00000000000E+00 -0.32870743720E+02  0.32870743720E+02  0.00000000000E+00 0. -1.
         25    2    1    2    0    0  0.93190385402E+01  0.10483913304E+02  0.32036426472E+03  0.34417589977E+03  0.12500812355E+03 0.  0.
          2    1    1    2  501    0 -0.70138547876E+01  0.29701492500E+02 -0.91290266899E+01  0.31854543538E+02  0.00000000000E+00 0. -1.
          1    1    1    2  502    0 -0.23051837526E+01 -0.40185405805E+02  0.85560381579E+03  0.85655009796E+03  0.00000000000E+00 0. -1.
         22    1    3    3    0    0  0.66567305384E+02  0.15078659765E+02  0.16689510729E+03  0.18031236497E+03  0.00000000000E+00 0.  1.
         22    1    3    3    0    0 -0.57248266844E+02 -0.45947464605E+01  0.15346915743E+03  0.16386353479E+03  0.00000000000E+00 0.  1.
</event>
<event>
 7    1  0.5957303E-006  0.2040626E+03  0.7818608E-02  0.1381226E+00
          2   -1    0    0  502    0  0.00000000000E+00  0.00000000000E+00  0.14708029378E+04  0.14708029378E+04  0.00000000000E+00 0. -1.
          1   -1    0    0  501    0 -0.00000000000E+00 -0.00000000000E+00 -0.27998075651E+03  0.27998075651E+03  0.00000000000E+00 0. -1.
         25    2    1    2    0    0 -0.10165027394E+03 -0.15867911252E+03 -0.15211494810E+03  0.27253485786E+03  0.12499780945E+03 0.  0.
          2    1    1    2  501    0 -0.19073414975E+02 -0.65345934124E+01 -0.58539000085E+02  0.61913735155E+02  0.00000000000E+00 0. -1.
          1    1    1    2  502    0  0.12072368892E+03  0.16521370594E+03  0.14014761295E+04  0.14163351013E+04  0.00000000000E+00 0. -1.
         22    1    3    3    0    0 -0.39969583022E+02  0.92598265165E+01 -0.56066791127E+02  0.69475153985E+02  0.00000000000E+00 0.  1.
         22    1    3    3    0    0 -0.61680690922E+02 -0.16793893904E+03 -0.96048156973E+02  0.20305970387E+03  0.00000000000E+00 0.  1.
</event>
<event>
 7    1  0.5957303E-006  0.1316323E+03  0.7818608E-02  0.1297928E+00
          2   -1    0    0  502    0  0.00000000000E+00  0.00000000000E+00  0.12450688966E+03  0.12450688966E+03  0.00000000000E+00 0. -1.
          1   -1    0    0  501    0 -0.00000000000E+00 -0.00000000000E+00 -0.13505433431E+04  0.13505433431E+04  0.00000000000E+00 0. -1.
         25    2    1    2    0    0  0.61667925232E+02  0.36498079637E+02 -0.50868313999E+02  0.15279355260E+03  0.12499296591E+03 0.  0.
          2    1    1    2  501    0 -0.11656612139E+03 -0.70147976233E+02 -0.12301110455E+04  0.12376112408E+04  0.00000000000E+00 0. -1.
          1    1    1    2  502    0  0.54898196162E+02  0.33649896596E+02  0.54942906010E+02  0.84645439355E+02  0.00000000000E+00 0. -1.
         22    1    3    3    0    0  0.13590187746E+02  0.63216987905E+02  0.15601899197E+02  0.66516915302E+02  0.00000000000E+00 0.  1.
         22    1    3    3    0    0  0.48077737486E+02 -0.26718908267E+02 -0.66470213195E+02  0.86276637296E+02  0.00000000000E+00 0.  1.
</event>
<event>
 7    1  0.5957303E-006  0.1443475E+03  0.7818608E-02  0.1282085E+00
          2   -1    0    0  502    0  0.00000000000E+00  0.00000000000E+00  0.86300022623E+02  0.86300022623E+02  0.00000000000E+00 0. -1.
          1   -1    0    0  501    0 -0.00000000000E+00 -0.00000000000E+00 -0.11797099909E+04  0.11797099909E+04  0.00000000000E+00 0. -1.
         25    2    1    2    0    0 -0.15056772879E+03 -0.12699602671E+03 -0.29464928800E+03  0.37582393247E+03  0.12500717397E+03 0.  0.
          2    1    1    2  501    0  0.56630637944E+02  0.37840755276E+02 -0.74798279956E+03  0.75107737308E+03  0.00000000000E+00 0. -1.
          1    1    1    2  502    0  0.93937090849E+02  0.89155271429E+02 -0.50777880696E+02  0.13910870795E+03  0.00000000000E+00 0. -1.
         22    1    3    3    0    0 -0.97717506409E+02 -0.13268030742E+03 -0.15429999398E+03  0.22574601475E+03  0.00000000000E+00 0.  1.
         22    1    3    3    0    0 -0.52850222383E+02  0.56842807133E+01 -0.14034929402E+03  0.15007791772E+03  0.00000000000E+00 0.  1.
</event>
<event>
 7    1  0.5957303E-006  0.6986586E+02  0.7818608E-02  0.1469147E+00
          2   -1    0    0  502    0  0.00000000000E+00  0.00000000000E+00  0.12519445424E+04  0.12519445424E+04  0.00000000000E+00 0. -1.
          1   -1    0    0  501    0 -0.00000000000E+00 -0.00000000000E+00 -0.18834791216E+03  0.18834791216E+03  0.00000000000E+00 0. -1.
         25    2    1    2    0    0 -0.53804671398E+01  0.81120232585E+02  0.13306562764E+03  0.19985318610E+03  0.12500157268E+03 0.  0.
          2    1    1    2  501    0  0.29425046503E+02 -0.63046121045E+02 -0.14692383172E+03  0.16256463043E+03  0.00000000000E+00 0. -1.
          1    1    1    2  502    0 -0.24044579364E+02 -0.18074111540E+02  0.10774548344E+04  0.10778746381E+04  0.00000000000E+00 0. -1.
         22    1    3    3    0    0  0.50505738590E+02  0.31267268692E+02  0.17110271116E+02  0.61816123298E+02  0.00000000000E+00 0.  1.
         22    1    3    3    0    0 -0.55886205729E+02  0.49852963893E+02  0.11595535652E+03  0.13803706280E+03  0.00000000000E+00 0.  1.
</event>
<event>
 7    1  0.5957303E-006  0.5374843E+02  0.7818608E-02  0.1427193E+00
          2   -1    0    0  502    0  0.00000000000E+00  0.00000000000E+00  0.27782404635E+03  0.27782404635E+03  0.00000000000E+00 0. -1.
          1   -1    0    0  501    0 -0.00000000000E+00 -0.00000000000E+00 -0.18206633351E+03  0.18206633351E+03  0.00000000000E+00 0. -1.
         25    2    1    2    0    0 -0.70137948621E+01 -0.18571653685E+02  0.13136974454E+02  0.12723820075E+03  0.12499151968E+03 0.  0.
          2    1    1    2  501    0 -0.49502262592E+02  0.20938475336E+02 -0.11508289920E+03  0.12701561888E+03  0.00000000000E+00 0. -1.
          1    1    1    2  502    0  0.56516057454E+02 -0.23668216506E+01  0.19770363758E+03  0.20563656024E+03  0.00000000000E+00 0. -1.
         22    1    3    3    0    0 -0.35671039740E+02  0.39616315888E+02  0.28687731133E+02  0.60538099394E+02  0.00000000000E+00 0. -1.
         22    1    3    3    0    0  0.28657244878E+02 -0.58187969573E+02 -0.15550756679E+02  0.66700101352E+02  0.00000000000E+00 0. -1.
</event>
<event>
 7    1  0.5957303E-006  0.7379892E+02  0.7818608E-02  0.1422475E+00
          2   -1    0    0  502    0  0.00000000000E+00  0.00000000000E+00  0.14627585854E+04  0.14627585854E+04  0.00000000000E+00 0. -1.
          1   -1    0    0  501    0 -0.00000000000E+00 -0.00000000000E+00 -0.22685338700E+04  0.22685338700E+04  0.00000000000E+00 0. -1.
         25    2    1    2    0    0  0.68414044993E+02  0.26367443147E+02  0.13598134077E+03  0.19872346414E+03  0.12499746618E+03 0.  0.
          2    1    1    2  501    0 -0.72564678903E+02  0.13666852260E+02 -0.22362406377E+04  0.22374594086E+04  0.00000000000E+00 0. -1.
          1    1    1    2  502    0  0.41506339101E+01 -0.40034295407E+02  0.12944840124E+04  0.12951095826E+04  0.00000000000E+00 0. -1.
         22    1    3    3    0    0 -0.16163287766E+02 -0.15395360001E+02  0.91960287402E+02  0.94630668602E+02  0.00000000000E+00 0.  1.
         22    1    3    3    0    0  0.84577332759E+02  0.41762803148E+02  0.44021053367E+02  0.10409279554E+03  0.00000000000E+00 0.  1.
</event>
<event>
 7    1  0.5957303E-006  0.1273668E+03  0.7818608E-02  0.1300481E+00
          2   -1    0    0  502    0  0.00000000000E+00  0.00000000000E+00  0.23133894290E+04  0.23133894290E+04  0.00000000000E+00 0. -1.
          1   -1    0    0  501    0 -0.00000000000E+00 -0.00000000000E+00 -0.57708528194E+03  0.57708528194E+03  0.00000000000E+00 0. -1.
         25    2    1    2    0    0  0.81618928817E+02 -0.56113177307E+02 -0.32897785755E+02  0.16284331655E+03  0.12500137291E+03 0.  0.
          2    1    1    2  501    0 -0.13202279923E+03  0.15075803116E+02 -0.46952240870E+03  0.48796371958E+03  0.00000000000E+00 0. -1.
          1    1    1    2  502    0  0.50403870411E+02  0.41037374191E+02  0.22387243416E+04  0.22396676749E+04  0.00000000000E+00 0. -1.
         22    1    3    3    0    0  0.13934339035E+02  0.23854191886E+02 -0.49580055798E+02  0.56757115923E+02  0.00000000000E+00 0.  1.
         22    1    3    3    0    0  0.67684589782E+02 -0.79967369193E+02  0.16682270043E+02  0.10608620063E+03  0.00000000000E+00 0.  1.
</event>
<event>
 7    1  0.5957303E-006  0.6573943E+02  0.7818608E-02  0.1389922E+00
          2   -1    0    0  502    0  0.00000000000E+00  0.00000000000E+00  0.71833772277E+03  0.71833772277E+03  0.00000000000E+00 0. -1.
          1   -1    0    0  501    0 -0.00000000000E+00 -0.00000000000E+00 -0.37976857812E+03  0.37976857812E+03  0.00000000000E+00 0. -1.
         25    2    1    2    0    0  0.15944876215E+02 -0.12092034259E+03  0.29891471133E+03  0.34619443181E+03  0.12499844653E+03 0.  0.
          2    1    1    2  501    0 -0.18223905739E+02  0.62631007845E+02 -0.35095775279E+03  0.35696792311E+03  0.00000000000E+00 0. -1.
          1    1    1    2  502    0  0.22790295239E+01  0.58289334750E+02  0.39061218611E+03  0.39494394598E+03  0.00000000000E+00 0. -1.
         22    1    3    3    0    0 -0.24831280294E+02 -0.93913296425E+02  0.27519638310E+03  0.29183788136E+03  0.00000000000E+00 0. -1.
         22    1    3    3    0    0  0.40776156509E+02 -0.27007046169E+02  0.23718328227E+02  0.54356550445E+02  0.00000000000E+00 0. -1.
</event>
<event>
 7    1  0.5957303E-006  0.6511904E+02  0.7818608E-02  0.1501855E+00
          2   -1    0    0  502    0  0.00000000000E+00  0.00000000000E+00  0.33056988294E+03  0.33056988294E+03  0.00000000000E+00 0. -1.
          1   -1    0    0  501    0 -0.00000000000E+00 -0.00000000000E+00 -0.53229359595E+02  0.53229359595E+02  0.00000000000E+00 0. -1.
         25    2    1    2    0    0  0.45668587226E+02  0.62465767941E+01  0.13165239506E+03  0.18730284857E+03  0.12500145751E+03 0.  0.
          2    1    1    2  501    0 -0.71306234750E+02 -0.51828251177E+01  0.29219800126E+02  0.77234950054E+02  0.00000000000E+00 0. -1.
          1    1    1    2  502    0  0.25637647524E+02 -0.10637516764E+01  0.11646832817E+03  0.11926144391E+03  0.00000000000E+00 0. -1.
         22    1    3    3    0    0  0.77815302566E+02 -0.76998142197E+01  0.13063096800E+03  0.15224637353E+03  0.00000000000E+00 0. -1.
         22    1    3    3    0    0 -0.32146715340E+02  0.13946391014E+02  0.10214270616E+01  0.35056475047E+02  0.00000000000E+00 0. -1.
</event>
<event>
 7    1  0.5957303E-006  0.1068802E+03  0.7818608E-02  0.1270654E+00
          2   -1    0    0  502    0  0.00000000000E+00  0.00000000000E+00  0.10943600575E+03  0.10943600575E+03  0.00000000000E+00 0. -1.
          1   -1    0    0  501    0 -0.00000000000E+00 -0.00000000000E+00 -0.57174975843E+03  0.57174975843E+03  0.00000000000E+00 0. -1.
         25    2    1    2    0    0  0.97286233008E+01 -0.22897440061E+02 -0.20847564619E+03  0.24434677604E+03  0.12499725211E+03 0.  0.
          2    1    1    2  501    0 -0.16963077241E+02 -0.10121008014E+03 -0.28979223406E+03  0.30742603213E+03  0.00000000000E+00 0. -1.
          1    1    1    2  502    0  0.72344539398E+01  0.12410752020E+03  0.35954127566E+02  0.12941295601E+03  0.00000000000E+00 0. -1.
         22    1    3    3    0    0  0.38228935819E+02 -0.65651902336E+01 -0.60311692517E+01  0.39254659076E+02  0.00000000000E+00 0. -1.
         22    1    3    3    0    0 -0.28500312518E+02 -0.16332249827E+02 -0.20244447693E+03  0.20509211696E+03  0.00000000000E+00 0. -1.
</event>
<event>
 7    1  0.7891928E-006  0.9215162E+02  0.7818608E-02  0.1339927E+00
          2   -1    0    0  502    0  0.00000000000E+00  0.00000000000E+00  0.13589528351E+04  0.13589528351E+04  0.00000000000E+00 0. -1.
          1   -1    0    0  501    0 -0.00000000000E+00 -0.00000000000E+00 -0.16826350838E+04  0.16826350838E+04  0.00000000000E+00 0. -1.
         25    2    1    2    0    0  0.14994165798E+03 -0.36942319926E+02 -0.30062032023E+02  0.20093781414E+03  0.12500017433E+03 0.  0.
          2    1    1    2  501    0 -0.61345615500E+02  0.15013730664E+02 -0.15648621117E+04  0.15661360494E+04  0.00000000000E+00 0. -1.
          1    1    1    2  502    0 -0.88596042483E+02  0.21928589262E+02  0.12712418950E+04  0.12745140553E+04  0.00000000000E+00 0. -1.
         22    1    3    3    0    0  0.12710729529E+03  0.15554651998E+02  0.13829911165E+02  0.12880014813E+03  0.00000000000E+00 0. -1.
         22    1    3    3    0    0  0.22834362693E+02 -0.52496971924E+02 -0.43891943189E+02  0.72137666012E+02  0.00000000000E+00 0. -1.
</event>
<event>
 7    1  0.5957303E-006  0.3121094E+02  0.7818608E-02  0.1624573E+00
          2   -1    0    0  502    0  0.00000000000E+00  0.00000000000E+00  0.11265963263E+04  0.11265963263E+04  0.00000000000E+00 0. -1.
          1   -1    0    0  501    0 -0.00000000000E+00 -0.00000000000E+00 -0.17088369818E+03  0.17088369818E+03  0.00000000000E+00 0. -1.
         25    2    1    2    0    0  0.30218709752E+02  0.38965297685E+02  0.12035032045E+02  0.13491443539E+03  0.12500239212E+03 0.  0.
          2    1    1    2  501    0 -0.23083320225E+02 -0.86336671479E+01 -0.10782285166E+03  0.11060355881E+03  0.00000000000E+00 0. -1.
          1    1    1    2  502    0 -0.71353895269E+01 -0.30331630537E+02  0.10515004477E+04  0.10519620303E+04  0.00000000000E+00 0. -1.
         22    1    3    3    0    0  0.25480732927E+02  0.68177734448E+02  0.48866503368E+02  0.87666449548E+02  0.00000000000E+00 0. -1.
         22    1    3    3    0    0  0.47379768245E+01 -0.29212436763E+02 -0.36831471322E+02  0.47247985838E+02  0.00000000000E+00 0. -1.
</event>
<event>
 7    1  0.5957303E-006  0.5224073E+02  0.7818608E-02  0.1474446E+00
          2   -1    0    0  502    0  0.00000000000E+00  0.00000000000E+00  0.91859712842E+02  0.91859712842E+02  0.00000000000E+00 0. -1.
          1   -1    0    0  501    0 -0.00000000000E+00 -0.00000000000E+00 -0.92580495781E+03  0.92580495781E+03  0.00000000000E+00 0. -1.
         25    2    1    2    0    0 -0.36682537583E+02 -0.73058563066E+02 -0.77521890271E+02  0.16827867391E+03  0.12499962569E+03 0.  0.
          2    1    1    2  501    0  0.38742785981E+02  0.34379387029E+02 -0.79384191378E+03  0.79552996787E+03  0.00000000000E+00 0. -1.
          1    1    1    2  502    0 -0.20602483980E+01  0.38679176037E+02  0.37418559076E+02  0.53856028870E+02  0.00000000000E+00 0. -1.
         22    1    3    3    0    0 -0.17773500811E+02  0.11746473376E+02  0.25682786362E+02  0.33368884955E+02  0.00000000000E+00 0. -1.
         22    1    3    3    0    0 -0.18909036772E+02 -0.84805036442E+02 -0.10320467663E+03  0.13490978896E+03  0.00000000000E+00 0. -1.
</event>
<event>
 7    1  0.5957303E-006  0.4530835E+02  0.7818608E-02  0.1555544E+00
          2   -1    0    0  502    0  0.00000000000E+00  0.00000000000E+00  0.10128484880E+04  0.10128484880E+04  0.00000000000E+00 0. -1.
          1   -1    0    0  501    0 -0.00000000000E+00 -0.00000000000E+00 -0.28164004389E+03  0.28164004389E+03  0.00000000000E+00 0. -1.
         25    2    1    2    0    0  0.60416772343E+02 -0.30552481701E+02  0.41860510380E+02  0.14819011388E+03  0.12499746799E+03 0.  0.
          2    1    1    2  501    0 -0.43445490725E+02  0.11039401250E+02 -0.22609219613E+03  0.23049308058E+03  0.00000000000E+00 0. -1.
          1    1    1    2  502    0 -0.16971281619E+02  0.19513080452E+02  0.91544012988E+03  0.91580533745E+03  0.00000000000E+00 0. -1.
         22    1    3    3    0    0  0.16244014476E+02 -0.68682179997E+02  0.53655406390E+02  0.88656711479E+02  0.00000000000E+00 0. -1.
         22    1    3    3    0    0  0.44172757867E+02  0.38129698296E+02 -0.11794896010E+02  0.59533402403E+02  0.00000000000E+00 0. -1.
</event>
<event>
 7    1  0.5957303E-006  0.5343530E+02  0.7818608E-02  0.1429411E+00
          2   -1    0    0  502    0  0.00000000000E+00  0.00000000000E+00  0.23048312376E+04  0.23048312376E+04  0.00000000000E+00 0. -1.
          1   -1    0    0  501    0 -0.00000000000E+00 -0.00000000000E+00 -0.23092081535E+03  0.23092081535E+03  0.00000000000E+00 0. -1.
         25    2    1    2    0    0  0.64638959456E+02 -0.59784224064E+02  0.99512408470E+03  0.10068001448E+04  0.12498895547E+03 0.  0.
          2    1    1    2  501    0 -0.52702430657E+02  0.84290844852E+01 -0.22137701862E+03  0.22771995968E+03  0.00000000000E+00 0. -1.
          1    1    1    2  502    0 -0.11936528798E+02  0.51355139579E+02  0.13001633562E+04  0.13012319485E+04  0.00000000000E+00 0. -1.
         22    1    3    3    0    0  0.42127921961E+02  0.15045004219E+02  0.11787865575E+03  0.12608128902E+03  0.00000000000E+00 0. -1.
         22    1    3    3    0    0  0.22511037495E+02 -0.74829228283E+02  0.87724542896E+03  0.88071885573E+03  0.00000000000E+00 0. -1.
</event>
<event>
 7    1  0.5957303E-006  0.4832052E+02  0.7818608E-02  0.1558430E+00
          2   -1    0    0  502    0  0.00000000000E+00  0.00000000000E+00  0.84450999722E+03  0.84450999722E+03  0.00000000000E+00 0. -1.
          1   -1    0    0  501    0 -0.00000000000E+00 -0.00000000000E+00 -0.65742905304E+02  0.65742905304E+02  0.00000000000E+00 0. -1.
         25    2    1    2    0    0  0.32766159481E+02 -0.31915964844E+02  0.46242956713E+03  0.48119304691E+03  0.12495356667E+03 0.  0.
          2    1    1    2  501    0 -0.46813243186E+02  0.12694295105E+02 -0.45461508814E+02  0.66478369787E+02  0.00000000000E+00 0. -1.
          1    1    1    2  502    0  0.14047083705E+02  0.19221669738E+02  0.36179903360E+03  0.36258148583E+03  0.00000000000E+00 0. -1.
         22    1    3    3    0    0  0.79448159575E+02 -0.33807501250E+02  0.30041430415E+03  0.31257592891E+03  0.00000000000E+00 0.  1.
         22    1    3    3    0    0 -0.46682000095E+02  0.18915364057E+01  0.16201526298E+03  0.16861711800E+03  0.00000000000E+00 0.  1.
</event>
<event>
 7    1  0.5957303E-006  0.9628600E+02  0.7818608E-02  0.1393209E+00
          2   -1    0    0  502    0  0.00000000000E+00  0.00000000000E+00  0.18146583274E+04  0.18146583274E+04  0.00000000000E+00 0. -1.
          1   -1    0    0  501    0 -0.00000000000E+00 -0.00000000000E+00 -0.76059278128E+02  0.76059278128E+02  0.00000000000E+00 0. -1.
         25    2    1    2    0    0  0.67163901616E+02 -0.22576263467E+02  0.17179222013E+03  0.22395704165E+03  0.12499404889E+03 0.  0.
          2    1    1    2  501    0 -0.10334982138E+03  0.85982926351E+01  0.43247457520E+01  0.10379701171E+03  0.00000000000E+00 0. -1.
          1    1    1    2  502    0  0.36185919762E+02  0.13977970832E+02  0.15624820834E+04  0.15629635522E+04  0.00000000000E+00 0. -1.
         22    1    3    3    0    0  0.50861912454E+02  0.38949912846E+02  0.13742215101E+03  0.15162083444E+03  0.00000000000E+00 0. -1.
         22    1    3    3    0    0  0.16301989162E+02 -0.61526176313E+02  0.34370069120E+02  0.72336207211E+02  0.00000000000E+00 0. -1.
</event>
<event>
 7    1  0.5957303E-006  0.6411682E+02  0.7818608E-02  0.1436574E+00
          2   -1    0    0  502    0  0.00000000000E+00  0.00000000000E+00  0.30706252567E+04  0.30706252567E+04  0.00000000000E+00 0. -1.
          1   -1    0    0  501    0 -0.00000000000E+00 -0.00000000000E+00 -0.54006797736E+03  0.54006797736E+03  0.00000000000E+00 0. -1.
         25    2    1    2    0    0 -0.56790262524E+02 -0.28170754835E+02  0.14582388940E+03  0.20226307373E+03  0.12500807545E+03 0.  0.
          2    1    1    2  501    0 -0.61769756442E+01  0.41166991997E+02 -0.51064452821E+03  0.51233847254E+03  0.00000000000E+00 0. -1.
          1    1    1    2  502    0  0.62967238169E+02 -0.12996237162E+02  0.28953779181E+04  0.28960916878E+04  0.00000000000E+00 0. -1.
         22    1    3    3    0    0  0.31140802774E+02 -0.17000504126E+02  0.49488007286E+01  0.35822581797E+02  0.00000000000E+00 0. -1.
         22    1    3    3    0    0 -0.87931065298E+02 -0.11170250709E+02  0.14087508868E+03  0.16644049193E+03  0.00000000000E+00 0. -1.
</event>
<event>
 7    1  0.5957303E-006  0.9866295E+02  0.7818608E-02  0.1377944E+00
          2   -1    0    0  502    0  0.00000000000E+00  0.00000000000E+00  0.15670189837E+04  0.15670189837E+04  0.00000000000E+00 0. -1.
          1   -1    0    0  501    0 -0.00000000000E+00 -0.00000000000E+00 -0.15378607164E+03  0.15378607164E+03  0.00000000000E+00 0. -1.
         25    2    1    2    0    0 -0.77647201328E+02  0.37244370051E+02  0.81720043377E+01  0.15201543532E+03  0.12500271975E+03 0.  0.
          2    1    1    2  501    0  0.70517770111E+02 -0.79478942765E+02 -0.46938316972E+02  0.11615878720E+03  0.00000000000E+00 0. -1.
          1    1    1    2  502    0  0.71294312164E+01  0.42234572714E+02  0.14519992247E+04  0.14526308328E+04  0.00000000000E+00 0. -1.
         22    1    3    3    0    0 -0.11010809329E+03  0.38591123629E+02 -0.54134211584E+01  0.11680056575E+03  0.00000000000E+00 0. -1.
         22    1    3    3    0    0  0.32460891966E+02 -0.13467535777E+01  0.13585425496E+02  0.35214869563E+02  0.00000000000E+00 0. -1.
</event>
<event>
 7    1  0.5957303E-006  0.1414771E+03  0.7818608E-02  0.1256686E+00
          2   -1    0    0  502    0  0.00000000000E+00  0.00000000000E+00  0.17873832067E+04  0.17873832067E+04  0.00000000000E+00 0. -1.
          1   -1    0    0  501    0 -0.00000000000E+00 -0.00000000000E+00 -0.56795707652E+03  0.56795707652E+03  0.00000000000E+00 0. -1.
         25    2    1    2    0    0  0.15100258963E+03  0.49827003886E+02  0.86956966485E+02  0.22016887097E+03  0.12501322063E+03 0.  0.
          2    1    1    2  501    0 -0.13682171474E+03  0.37895811879E+02 -0.49005994651E+03  0.51021076562E+03  0.00000000000E+00 0. -1.
          1    1    1    2  502    0 -0.14180874893E+02 -0.87722815764E+02  0.16225291102E+04  0.16249606466E+04  0.00000000000E+00 0. -1.
         22    1    3    3    0    0  0.12422318766E+02 -0.19682443176E+02 -0.20919900664E+02  0.31294645176E+02  0.00000000000E+00 0.  1.
         22    1    3    3    0    0  0.13858027087E+03  0.69509447062E+02  0.10787686715E+03  0.18887422580E+03  0.00000000000E+00 0.  1.
</event>
<event>
 7    1  0.5957303E-006  0.7010113E+02  0.7818608E-02  0.1500596E+00
          2   -1    0    0  502    0  0.00000000000E+00  0.00000000000E+00  0.45465954887E+02  0.45465954887E+02  0.00000000000E+00 0. -1.
          1   -1    0    0  501    0 -0.00000000000E+00 -0.00000000000E+00 -0.12126019074E+04  0.12126019074E+04  0.00000000000E+00 0. -1.
         25    2    1    2    0    0  0.45026930085E+02 -0.48820587837E+02 -0.37840617608E+03  0.40401358656E+03  0.12499947919E+03 0.  0.
          2    1    1    2  501    0 -0.62943356768E+02  0.32787665140E+02 -0.81520660547E+03  0.81829011161E+03  0.00000000000E+00 0. -1.
          1    1    1    2  502    0  0.17916426684E+02  0.16032922698E+02  0.26476829073E+02  0.35764164091E+02  0.00000000000E+00 0. -1.
         22    1    3    3    0    0 -0.12623891418E+02 -0.64097113801E+02 -0.10112815071E+03  0.12039395956E+03  0.00000000000E+00 0. -1.
         22    1    3    3    0    0  0.57650821502E+02  0.15276525964E+02 -0.27727802537E+03  0.28361962699E+03  0.00000000000E+00 0. -1.
</event>
<event>
 7    1  0.5957303E-006  0.5673897E+02  0.7818608E-02  0.1503458E+00
          2   -1    0    0  502    0  0.00000000000E+00  0.00000000000E+00  0.37347815201E+03  0.37347815201E+03  0.00000000000E+00 0. -1.
          1   -1    0    0  501    0 -0.00000000000E+00 -0.00000000000E+00 -0.10928914697E+03  0.10928914697E+03  0.00000000000E+00 0. -1.
         25    2    1    2    0    0 -0.53563028790E+02  0.13785359433E+02  0.24741186061E+03  0.28266174258E+03  0.12500399097E+03 0.  0.
          2    1    1    2  501    0 -0.42696806552E+01 -0.28813278845E+02 -0.80686483124E+02  0.85783120541E+02  0.00000000000E+00 0. -1.
          1    1    1    2  502    0  0.57832709445E+02  0.15027919412E+02  0.97463627555E+02  0.11432243585E+03  0.00000000000E+00 0. -1.
         22    1    3    3    0    0 -0.68929254998E+02 -0.40459967035E+02  0.13448781123E+03  0.15644558957E+03  0.00000000000E+00 0. -1.
         22    1    3    3    0    0  0.15366226208E+02  0.54245326467E+02  0.11292404938E+03  0.12621615301E+03  0.00000000000E+00 0. -1.
</event>
<event>
 7    1  0.5957303E-006  0.4834141E+02  0.7818608E-02  0.1456427E+00
          2   -1    0    0  502    0  0.00000000000E+00  0.00000000000E+00  0.27828495443E+04  0.27828495443E+04  0.00000000000E+00 0. -1.
          1   -1    0    0  501    0 -0.00000000000E+00 -0.00000000000E+00 -0.53832262518E+02  0.53832262518E+02  0.00000000000E+00 0. -1.
         25    2    1    2    0    0 -0.77292695818E+02 -0.92978460918E+01  0.15077378148E+03  0.21075742220E+03  0.12500138823E+03 0.  0.
          2    1    1    2  501    0  0.41645846026E+02 -0.23185205704E+02  0.43697774754E+00  0.47666772540E+02  0.00000000000E+00 0. -1.
          1    1    1    2  502    0  0.35646849791E+02  0.32483051796E+02  0.25778065226E+04  0.25782576121E+04  0.00000000000E+00 0. -1.
         22    1    3    3    0    0 -0.78154441691E+02 -0.32692576056E+02  0.16347577474E+03  0.18412292147E+03  0.00000000000E+00 0. -1.
         22    1    3    3    0    0  0.86174587346E+00  0.23394729964E+02 -0.12701993256E+02  0.26634500722E+02  0.00000000000E+00 0. -1.
</event>
<event>
 7    1  0.5957303E-006  0.5215498E+02  0.7818608E-02  0.1537419E+00
          2   -1    0    0  502    0  0.00000000000E+00  0.00000000000E+00  0.13651468063E+04  0.13651468063E+04  0.00000000000E+00 0. -1.
          1   -1    0    0  501    0 -0.00000000000E+00 -0.00000000000E+00 -0.21597004858E+03  0.21597004858E+03  0.00000000000E+00 0. -1.
         25    2    1    2    0    0 -0.56105343030E+02  0.47127756767E+02  0.97809359443E+02  0.17481549849E+03  0.12499981098E+03 0.  0.
          2    1    1    2  501    0  0.45615178408E+02 -0.24156090664E+02 -0.17358090300E+03  0.18109276933E+03  0.00000000000E+00 0. -1.
          1    1    1    2  502    0  0.10490164622E+02 -0.22971666103E+02  0.12249483013E+04  0.12252085871E+04  0.00000000000E+00 0. -1.
         22    1    3    3    0    0 -0.71140821555E+02  0.76521100725E+01  0.36841197258E+01  0.71645963028E+02  0.00000000000E+00 0. -1.
         22    1    3    3    0    0  0.15035478525E+02  0.39475646694E+02  0.94125239717E+02  0.10316953547E+03  0.00000000000E+00 0. -1.
</event>
<event>
 7    1  0.5957303E-006  0.2618436E+02  0.7818608E-02  0.1653189E+00
          2   -1    0    0  502    0  0.00000000000E+00  0.00000000000E+00  0.18505024074E+04  0.18505024074E+04  0.00000000000E+00 0. -1.
          1   -1    0    0  501    0 -0.00000000000E+00 -0.00000000000E+00 -0.19332319608E+02  0.19332319608E+02  0.00000000000E+00 0. -1.
         25    2    1    2    0    0 -0.21444494457E+02  0.31140924328E+02  0.54411683704E+03  0.55956906321E+03  0.12499912254E+03 0.  0.
          2    1    1    2  501    0  0.25290396702E+02 -0.65032102597E+01  0.33579081060E+01  0.26328149495E+02  0.00000000000E+00 0. -1.
          1    1    1    2  502    0 -0.38459022448E+01 -0.24637714068E+02  0.12836953426E+04  0.12839375143E+04  0.00000000000E+00 0. -1.
         22    1    3    3    0    0 -0.59060908709E+02  0.44411439699E+02  0.20121459555E+03  0.21435456696E+03  0.00000000000E+00 0.  1.
         22    1    3    3    0    0  0.37616414253E+02 -0.13270515371E+02  0.34290224149E+03  0.34521449625E+03  0.00000000000E+00 0.  1.
</event>
<event>
 7    1  0.5957303E-006  0.3239690E+02  0.7818608E-02  0.1606750E+00
          2   -1    0    0  502    0  0.00000000000E+00  0.00000000000E+00  0.84277293375E+03  0.84277293375E+03  0.00000000000E+00 0. -1.
          1   -1    0    0  501    0 -0.00000000000E+00 -0.00000000000E+00 -0.13946190986E+04  0.13946190986E+04  0.00000000000E+00 0. -1.
         25    2    1    2    0    0 -0.48479113213E+01 -0.37624405341E+02  0.14003985479E+03  0.19150707753E+03  0.12499880676E+03 0.  0.
          2    1    1    2  501    0 -0.18959836827E+02  0.26276167075E+02 -0.13684367670E+04  0.13688203307E+04  0.00000000000E+00 0. -1.
          1    1    1    2  502    0  0.23807748148E+02  0.11348238266E+02  0.67655074741E+03  0.67706462410E+03  0.00000000000E+00 0. -1.
         22    1    3    3    0    0 -0.27067143208E+02 -0.78855303282E+02  0.82171261539E+02  0.11705940936E+03  0.00000000000E+00 0.  1.
         22    1    3    3    0    0  0.22219231887E+02  0.41230897941E+02  0.57868593252E+02  0.74447668168E+02  0.00000000000E+00 0.  1.
</event>
<event>
 7    1  0.5957303E-006  0.6904432E+02  0.7818608E-02  0.1407122E+00
          2   -1    0    0  502    0  0.00000000000E+00  0.00000000000E+00  0.11247309724E+04  0.11247309724E+04  0.00000000000E+00 0. -1.
          1   -1    0    0  501    0 -0.00000000000E+00 -0.00000000000E+00 -0.22119611360E+03  0.22119611360E+03  0.00000000000E+00 0. -1.
         25    2    1    2    0    0 -0.21500917841E+02  0.15289292710E+02  0.18123696869E+03  0.22173282765E+03  0.12499022401E+03 0.  0.
          2    1    1    2  501    0  0.32563772535E+02 -0.62464995441E+02 -0.19411480554E+03  0.20650141081E+03  0.00000000000E+00 0. -1.
          1    1    1    2  502    0 -0.11062854694E+02  0.47175702731E+02  0.91641269566E+03  0.91769284755E+03  0.00000000000E+00 0. -1.
         22    1    3    3    0    0  0.30256127212E+01  0.39076851431E+02  0.18335769043E+03  0.18749985944E+03  0.00000000000E+00 0. -1.
         22    1    3    3    0    0 -0.24526530563E+02 -0.23787558721E+02 -0.21207217442E+01  0.34232968204E+02  0.00000000000E+00 0. -1.
</event>
<event>
 7    1  0.5957303E-006  0.9378961E+02  0.7818608E-02  0.1445695E+00
          2   -1    0    0  502    0  0.00000000000E+00  0.00000000000E+00  0.23081768422E+04  0.23081768422E+04  0.00000000000E+00 0. -1.
          1   -1    0    0  501    0 -0.00000000000E+00 -0.00000000000E+00 -0.19266473692E+03  0.19266473692E+03  0.00000000000E+00 0. -1.
         25    2    1    2    0    0 -0.60831927748E+02  0.10083484746E+03  0.88009425974E+02  0.19297380289E+03  0.12500015858E+03 0.  0.
          2    1    1    2  501    0  0.20855824638E+02 -0.16487192130E+02 -0.13790753772E+03  0.14044672259E+03  0.00000000000E+00 0. -1.
          1    1    1    2  502    0  0.39976103110E+02 -0.84347655330E+02  0.21654102170E+04  0.21674210536E+04  0.00000000000E+00 0. -1.
         22    1    3    3    0    0 -0.80822940605E+02  0.63389388695E+02  0.10533553384E+03  0.14712626216E+03  0.00000000000E+00 0. -1.
         22    1    3    3    0    0  0.19991012857E+02  0.37445458765E+02 -0.17326107868E+02  0.45847540730E+02  0.00000000000E+00 0. -1.
</event>
<event>
 7    1  0.5957303E-006  0.2095703E+03  0.7818608E-02  0.1299737E+00
          2   -1    0    0  502    0  0.00000000000E+00  0.00000000000E+00  0.82339990164E+03  0.82339990164E+03  0.00000000000E+00 0. -1.
          1   -1    0    0  501    0 -0.00000000000E+00 -0.00000000000E+00 -0.16055510566E+04  0.16055510566E+04  0.00000000000E+00 0. -1.
         25    2    1    2    0    0 -0.20088736362E+03 -0.50736674866E+02 -0.15842564499E+03  0.28922921845E+03  0.12499965111E+03 0.  0.
          2    1    1    2  501    0 -0.87269865752E+01  0.38804755051E+02 -0.13668903234E+04  0.13674688755E+04  0.00000000000E+00 0. -1.
          1    1    1    2  502    0  0.20961435019E+03  0.11931919814E+02  0.74316481340E+03  0.77225286429E+03  0.00000000000E+00 0. -1.
         22    1    3    3    0    0 -0.45590451914E+02 -0.67705310323E+02 -0.80536763177E+02  0.11466764397E+03  0.00000000000E+00 0. -1.
         22    1    3    3    0    0 -0.15529691171E+03  0.16968635458E+02 -0.77888881812E+02  0.17456157448E+03  0.00000000000E+00 0. -1.
</event>
<event>
 7    1  0.5957303E-006  0.5797499E+02  0.7818608E-02  0.1460268E+00
          2   -1    0    0  502    0  0.00000000000E+00  0.00000000000E+00  0.75524488215E+03  0.75524488215E+03  0.00000000000E+00 0. -1.
          1   -1    0    0  501    0 -0.00000000000E+00 -0.00000000000E+00 -0.17454157976E+03  0.17454157976E+03  0.00000000000E+00 0. -1.
         25    2    1    2    0    0 -0.47593948530E+02  0.66984868375E+02  0.45040382698E+02  0.15622341526E+03  0.12499985150E+03 0.  0.
          2    1    1    2  501    0  0.37242106106E+02 -0.10330403807E+02 -0.11450387326E+03  0.12085043939E+03  0.00000000000E+00 0. -1.
          1    1    1    2  502    0  0.10351842424E+02 -0.56654464568E+02  0.65016679296E+03  0.65271260725E+03  0.00000000000E+00 0. -1.
         22    1    3    3    0    0 -0.17008752300E+02  0.29755016972E+02 -0.43525464096E+02  0.55399681539E+02  0.00000000000E+00 0.  1.
         22    1    3    3    0    0 -0.30585196230E+02  0.37229851402E+02  0.88565846793E+02  0.10082373372E+03  0.00000000000E+00 0.  1.
</event>
<event>
 7    1  0.5957303E-006  0.9885413E+02  0.7818608E-02  0.1419067E+00
          2   -1    0    0  502    0  0.00000000000E+00  0.00000000000E+00  0.72767015526E+03  0.72767015526E+03  0.00000000000E+00 0. -1.
          1   -1    0    0  501    0 -0.00000000000E+00 -0.00000000000E+00 -0.33340837460E+03  0.33340837460E+03  0.00000000000E+00 0. -1.
         25    2    1    2    0    0 -0.67525334773E+02 -0.58467041267E+02 -0.21965824070E+03  0.26805397569E+03  0.12500050172E+03 0.  0.
          2    1    1    2  501    0  0.98368288320E+02  0.58156686698E+02 -0.52594812356E+02  0.12579640154E+03  0.00000000000E+00 0. -1.
          1    1    1    2  502    0 -0.30842953547E+02  0.31035456908E+00  0.66651483371E+03  0.66722815263E+03  0.00000000000E+00 0. -1.
         22    1    3    3    0    0 -0.55679068855E+02 -0.86234662861E+02 -0.21399228653E+03  0.23733789095E+03  0.00000000000E+00 0. -1.
         22    1    3    3    0    0 -0.11846265918E+02  0.27767621593E+02 -0.56659541623E+01  0.30716084739E+02  0.00000000000E+00 0. -1.
</event>
<event>
 7    1  0.5957303E-006  0.1091996E+03  0.7818608E-02  0.1418270E+00
          2   -1    0    0  502    0  0.00000000000E+00  0.00000000000E+00  0.17051412202E+04  0.17051412202E+04  0.00000000000E+00 0. -1.
          1   -1    0    0  501    0 -0.00000000000E+00 -0.00000000000E+00 -0.22082032967E+02  0.22082032967E+02  0.00000000000E+00 0. -1.
         25    2    1    2    0    0  0.56182475378E+02  0.72120494700E+02  0.58037856358E+03  0.60068541299E+03  0.12500340803E+03 0.  0.
          2    1    1    2  501    0  0.27316944114E+02  0.65633666025E+01  0.13214144895E+02  0.31046849151E+02  0.00000000000E+00 0. -1.
          1    1    1    2  502    0 -0.83499419493E+02 -0.78683861303E+02  0.10894664788E+04  0.10954909910E+04  0.00000000000E+00 0. -1.
         22    1    3    3    0    0  0.71070933271E+02  0.10027771157E+03  0.45170007841E+03  0.46812354975E+03  0.00000000000E+00 0. -1.
         22    1    3    3    0    0 -0.14888457892E+02 -0.28157216869E+02  0.12867848517E+03  0.13256186324E+03  0.00000000000E+00 0. -1.
</event>
<event>
 7    1  0.5957303E-006  0.1460679E+03  0.7818608E-02  0.1342440E+00
          2   -1    0    0  502    0  0.00000000000E+00  0.00000000000E+00  0.63153645120E+03  0.63153645120E+03  0.00000000000E+00 0. -1.
          1   -1    0    0  501    0 -0.00000000000E+00 -0.00000000000E+00 -0.81484325842E+03  0.81484325842E+03  0.00000000000E+00 0. -1.
         25    2    1    2    0    0 -0.49587028281E+02 -0.17534609814E+03 -0.24127898037E+00  0.22097536720E+03  0.12499970874E+03 0.  0.
          2    1    1    2  501    0  0.34099577825E+02  0.13956682712E+03 -0.69615998839E+03  0.71083078850E+03  0.00000000000E+00 0. -1.
          1    1    1    2  502    0  0.15487450456E+02  0.35779271023E+02  0.51309446015E+03  0.51457355392E+03  0.00000000000E+00 0. -1.
         22    1    3    3    0    0  0.41397242855E+01  0.81764645012E+01  0.26360930531E+02  0.27908610631E+02  0.00000000000E+00 0.  1.
         22    1    3    3    0    0 -0.53726752566E+02 -0.18352256264E+03 -0.26602209511E+02  0.19306675657E+03  0.00000000000E+00 0.  1.
</event>
<event>
 7    1  0.5957303E-006  0.4875351E+02  0.7818608E-02  0.1521722E+00
          2   -1    0    0  502    0  0.00000000000E+00  0.00000000000E+00  0.17868723351E+04  0.17868723351E+04  0.00000000000E+00 0. -1.
          1   -1    0    0  501    0 -0.00000000000E+00 -0.00000000000E+00 -0.22996380140E+03  0.22996380140E+03  0.00000000000E+00 0. -1.
         25    2    1    2    0    0 -0.24611853635E+02  0.42817156571E+01  0.12165328551E+03  0.17620672111E+03  0.12500084103E+03 0.  0.
          2    1    1    2  501    0 -0.21689448172E+02 -0.20675040450E+02 -0.20120910560E+03  0.20342810434E+03  0.00000000000E+00 0. -1.
          1    1    1    2  502    0  0.46301301806E+02  0.16393324793E+02  0.16364643538E+04  0.16372013110E+04  0.00000000000E+00 0. -1.
         22    1    3    3    0    0 -0.61963978326E+02 -0.54120905256E+01  0.12274138428E+03  0.13760186318E+03  0.00000000000E+00 0.  1.
         22    1    3    3    0    0  0.37352124691E+02  0.96938061827E+01 -0.10880987673E+01  0.38604857935E+02  0.00000000000E+00 0.  1.
</event>
<event>
 7    1  0.5957303E-006  0.2357467E+02  0.7818608E-02  0.1701002E+00
          2   -1    0    0  502    0  0.00000000000E+00  0.00000000000E+00  0.36527409209E+03  0.36527409209E+03  0.00000000000E+00 0. -1.
          1   -1    0    0  501    0 -0.00000000000E+00 -0.00000000000E+00 -0.66617136724E+02  0.66617136724E+02  0.00000000000E+00 0. -1.
         25    2    1    2    0    0  0.10920262299E+02  0.12208970131E+02  0.31803538904E+03  0.34211093614E+03  0.12500029147E+03 0.  0.
          2    1    1    2  501    0  0.15191266166E+02 -0.18027494796E+02 -0.46219308144E+02  0.51884386685E+02  0.00000000000E+00 0. -1.
          1    1    1    2  502    0 -0.26111528464E+02  0.58185246649E+01  0.26840874474E+02  0.37895905987E+02  0.00000000000E+00 0. -1.
         22    1    3    3    0    0 -0.31147527350E+02  0.52830332067E+02  0.21565755832E+03  0.22420837386E+03  0.00000000000E+00 0.  1.
         22    1    3    3    0    0  0.42067789649E+02 -0.40621361936E+02  0.10237783071E+03  0.11790256228E+03  0.00000000000E+00 0.  1.
</event>
<event>
 7    1  0.5957303E-006  0.1432297E+03  0.7818608E-02  0.1423328E+00
          2   -1    0    0  502    0  0.00000000000E+00  0.00000000000E+00  0.31215509194E+04  0.31215509194E+04  0.00000000000E+00 0. -1.
          1   -1    0    0  501    0 -0.00000000000E+00 -0.00000000000E+00 -0.22198782137E+03  0.22198782137E+03  0.00000000000E+00 0. -1.
         25    2    1    2    0    0 -0.47791435292E+02 -0.11340853538E+03 -0.62406012935E+02  0.18618422355E+03  0.12499814985E+03 0.  0.
          2    1    1    2  501    0 -0.53176870308E+01 -0.19905160882E+02 -0.94904122458E+02  0.97114806722E+02  0.00000000000E+00 0. -1.
          1    1    1    2  502    0  0.53109122323E+02  0.13331369626E+03  0.30568732334E+04  0.30602397105E+04  0.00000000000E+00 0. -1.
         22    1    3    3    0    0 -0.84330582944E+02 -0.10435811098E+03 -0.32358911130E+02  0.13801942500E+03  0.00000000000E+00 0.  1.
         22    1    3    3    0    0  0.36539147652E+02 -0.90504243991E+01 -0.30047101805E+02  0.48164798554E+02  0.00000000000E+00 0.  1.
</event>
<event>
 7    1  0.5957303E-006  0.5544753E+02  0.7818608E-02  0.1506922E+00
          2   -1    0    0  502    0  0.00000000000E+00  0.00000000000E+00  0.28299380518E+03  0.28299380518E+03  0.00000000000E+00 0. -1.
          1   -1    0    0  501    0 -0.00000000000E+00 -0.00000000000E+00 -0.13202923832E+04  0.13202923832E+04  0.00000000000E+00 0. -1.
         25    2    1    2    0    0  0.23174270640E+02  0.56899332660E+02  0.10942415666E+03  0.17712510792E+03  0.12500030767E+03 0.  0.
          2    1    1    2  501    0 -0.29059158601E+02 -0.17228619203E+01 -0.12807605902E+04  0.12810913677E+04  0.00000000000E+00 0. -1.
          1    1    1    2  502    0  0.58848879602E+01 -0.55176470740E+02  0.13403785556E+03  0.14506971273E+03  0.00000000000E+00 0. -1.
         22    1    3    3    0    0 -0.49145316166E+02  0.42955365382E+02  0.45084769890E+02  0.79328821951E+02  0.00000000000E+00 0. -1.
         22    1    3    3    0    0  0.72319586807E+02  0.13943967278E+02  0.64339386772E+02  0.97796285970E+02  0.00000000000E+00 0. -1.
</event>
<event>
 7    1  0.5957303E-006  0.3404589E+02  0.7818608E-02  0.1611108E+00
          2   -1    0    0  502    0  0.00000000000E+00  0.00000000000E+00  0.84394447383E+03  0.84394447383E+03  0.00000000000E+00 0. -1.
          1   -1    0    0  501    0 -0.00000000000E+00 -0.00000000000E+00 -0.15864473302E+03  0.15864473302E+03  0.00000000000E+00 0. -1.
         25    2    1    2    0    0 -0.17152309546E+02 -0.76495890212E+01  0.58530471250E+03  0.59879856949E+03  0.12500160966E+03 0.  0.
          2    1    1    2  501    0  0.32018902997E+02 -0.11767224559E+02 -0.14937690220E+03  0.15322250695E+03  0.00000000000E+00 0. -1.
          1    1    1    2  502    0 -0.14866593451E+02  0.19416813581E+02  0.24937193052E+03  0.25056813042E+03  0.00000000000E+00 0. -1.
         22    1    3    3    0    0 -0.41084032706E+01  0.52378720727E+02  0.40327500581E+03  0.40668309489E+03  0.00000000000E+00 0.  1.
         22    1    3    3    0    0 -0.13043906276E+02 -0.60028309748E+02  0.18202970669E+03  0.19211547460E+03  0.00000000000E+00 0.  1.
</event>
<event>
 7    1  0.5957303E-006  0.1034856E+03  0.7818608E-02  0.1397656E+00
          2   -1    0    0  502    0  0.00000000000E+00  0.00000000000E+00  0.31070946694E+03  0.31070946694E+03  0.00000000000E+00 0. -1.
          1   -1    0    0  501    0 -0.00000000000E+00 -0.00000000000E+00 -0.25806402701E+03  0.25806402701E+03  0.00000000000E+00 0. -1.
         25    2    1    2    0    0  0.81368052911E+02 -0.41601466013E+02  0.19018921648E+02  0.15600824295E+03  0.12500164190E+03 0.  0.
          2    1    1    2  501    0 -0.74512848833E+02  0.75756311183E+02 -0.17310618355E+03  0.20311802999E+03  0.00000000000E+00 0. -1.
          1    1    1    2  502    0 -0.68552040780E+01 -0.34154845170E+02  0.20673270183E+03  0.20964722101E+03  0.00000000000E+00 0. -1.
         22    1    3    3    0    0  0.13208642240E+02 -0.51572641952E+02 -0.38960616246E+02  0.65970715064E+02  0.00000000000E+00 0.  1.
         22    1    3    3    0    0  0.68159410670E+02  0.99711759394E+01  0.57979537894E+02  0.90037527881E+02  0.00000000000E+00 0.  1.
</event>
<event>
 7    1  0.5957303E-006  0.1014854E+03  0.7818608E-02  0.1305353E+00
          2   -1    0    0  502    0  0.00000000000E+00  0.00000000000E+00  0.89177288293E+03  0.89177288293E+03  0.00000000000E+00 0. -1.
          1   -1    0    0  501    0 -0.00000000000E+00 -0.00000000000E+00 -0.10587285691E+04  0.10587285691E+04  0.00000000000E+00 0. -1.
         25    2    1    2    0    0  0.12994114799E+03 -0.11285109637E+03 -0.10818544713E+03  0.23864030207E+03  0.12500012364E+03 0.  0.
          2    1    1    2  501    0 -0.41058895853E+02  0.66326401538E+02 -0.88054089212E+03  0.88398941576E+03  0.00000000000E+00 0. -1.
          1    1    1    2  502    0 -0.88882252133E+02  0.46524694829E+02  0.82177065310E+03  0.82787173419E+03  0.00000000000E+00 0. -1.
         22    1    3    3    0    0  0.22390796291E+02 -0.82237947513E+02 -0.32523504213E+01  0.85293643098E+02  0.00000000000E+00 0. -1.
         22    1    3    3    0    0  0.10755035169E+03 -0.30613148853E+02 -0.10493309671E+03  0.15334665897E+03  0.00000000000E+00 0. -1.
</event>
<event>
 7    1  0.5957303E-006  0.1504542E+03  0.7818608E-02  0.1409237E+00
          2   -1    0    0  502    0  0.00000000000E+00  0.00000000000E+00  0.33397521442E+03  0.33397521442E+03  0.00000000000E+00 0. -1.
          1   -1    0    0  501    0 -0.00000000000E+00 -0.00000000000E+00 -0.18647711460E+04  0.18647711460E+04  0.00000000000E+00 0. -1.
         25    2    1    2    0    0 -0.77642014088E+02 -0.15304962136E+03 -0.63878936947E+03  0.67314827762E+03  0.12499710462E+03 0.  0.
          2    1    1    2  501    0  0.78035604497E+01  0.20432138578E+02 -0.11909681482E+04  0.11911689628E+04  0.00000000000E+00 0. -1.
          1    1    1    2  502    0  0.69838453639E+02  0.13261748278E+03  0.29896158611E+03  0.33442912002E+03  0.00000000000E+00 0. -1.
         22    1    3    3    0    0 -0.82342240612E+02 -0.35371492686E+02 -0.20660096379E+03  0.22520067789E+03  0.00000000000E+00 0.  1.
         22    1    3    3    0    0  0.47002265234E+01 -0.11767812867E+03 -0.43218840569E+03  0.44794759973E+03  0.00000000000E+00 0.  1.
</event>
<event>
 7    1  0.1033343E-005  0.6538898E+02  0.7818608E-02  0.1527638E+00
          2   -1    0    0  502    0  0.00000000000E+00  0.00000000000E+00  0.11232505514E+04  0.11232505514E+04  0.00000000000E+00 0. -1.
          1   -1    0    0  501    0 -0.00000000000E+00 -0.00000000000E+00 -0.14958658768E+04  0.14958658768E+04  0.00000000000E+00 0. -1.
         25    2    1    2    0    0  0.27635690305E+02  0.75908528250E+02 -0.10807119537E+04  0.10909118733E+04  0.12499820935E+03 0.  0.
          2    1    1    2  501    0 -0.18331073813E+02 -0.11197106443E+02 -0.40881613046E+03  0.40938005812E+03  0.00000000000E+00 0. -1.
          1    1    1    2  502    0 -0.93046164913E+01 -0.64711421807E+02  0.11169127587E+04  0.11188244968E+04  0.00000000000E+00 0. -1.
         22    1    3    3    0    0 -0.39614698150E+02  0.27438783393E+02 -0.68053270298E+03  0.68223674115E+03  0.00000000000E+00 0.  1.
         22    1    3    3    0    0  0.67250388455E+02  0.48469744857E+02 -0.40017925072E+03  0.40867513213E+03  0.00000000000E+00 0.  1.
</event>
<event>
 7    1  0.5957303E-006  0.4233861E+02  0.7818608E-02  0.1511884E+00
          2   -1    0    0  502    0  0.00000000000E+00  0.00000000000E+00  0.94319094747E+03  0.94319094747E+03  0.00000000000E+00 0. -1.
          1   -1    0    0  501    0 -0.00000000000E+00 -0.00000000000E+00 -0.18644536416E+03  0.18644536416E+03  0.00000000000E+00 0. -1.
         25    2    1    2    0    0 -0.42344631206E+02 -0.40950311496E+02  0.61957837289E+02  0.15143826387E+03  0.12499911343E+03 0.  0.
          2    1    1    2  501    0  0.54941654917E+01  0.41854546513E+02 -0.13814461985E+03  0.14445042372E+03  0.00000000000E+00 0. -1.
          1    1    1    2  502    0  0.36850465714E+02 -0.90423501653E+00  0.83293236588E+03  0.83374762404E+03  0.00000000000E+00 0. -1.
         22    1    3    3    0    0  0.43869785312E+02 -0.33948322764E+01  0.22992611313E+02  0.49646179354E+02  0.00000000000E+00 0.  1.
         22    1    3    3    0    0 -0.86214416518E+02 -0.37555479220E+02  0.38965225975E+02  0.10179208452E+03  0.00000000000E+00 0.  1.
</event>
<event>
 7    1  0.5957303E-006  0.6366518E+02  0.7818608E-02  0.1419532E+00
          2   -1    0    0  502    0  0.00000000000E+00  0.00000000000E+00  0.91074501613E+03  0.91074501613E+03  0.00000000000E+00 0. -1.
          1   -1    0    0  501    0 -0.00000000000E+00 -0.00000000000E+00 -0.12601273740E+03  0.12601273740E+03  0.00000000000E+00 0. -1.
         25    2    1    2    0    0  0.45501182864E+02 -0.13728046716E+02  0.44358275478E+02  0.14086017436E+03  0.12496045458E+03 0.  0.
          2    1    1    2  501    0 -0.60593856250E+02 -0.31544182618E+02 -0.61911677897E+02  0.92193854092E+02  0.00000000000E+00 0. -1.
          1    1    1    2  502    0  0.15092673386E+02  0.45272229334E+02  0.80228568115E+03  0.80370372508E+03  0.00000000000E+00 0. -1.
         22    1    3    3    0    0 -0.14075781112E+02  0.41497425158E+02  0.40283021166E+02  0.59522144643E+02  0.00000000000E+00 0.  1.
         22    1    3    3    0    0  0.59576963976E+02 -0.55225471874E+02  0.40752543126E+01  0.81338029716E+02  0.00000000000E+00 0.  1.
</event>
<event>
 7    1  0.5957303E-006  0.1472511E+03  0.7818608E-02  0.1389244E+00
          2   -1    0    0  502    0  0.00000000000E+00  0.00000000000E+00  0.20383703481E+03  0.20383703481E+03  0.00000000000E+00 0. -1.
          1   -1    0    0  501    0 -0.00000000000E+00 -0.00000000000E+00 -0.13196431068E+04  0.13196431068E+04  0.00000000000E+00 0. -1.
         25    2    1    2    0    0  0.49297145976E+02 -0.15933840697E+03 -0.41143515071E+03  0.46121882819E+03  0.12499995081E+03 0.  0.
          2    1    1    2  501    0 -0.20552574957E+02  0.16225288100E+02 -0.85331347979E+03  0.85371515338E+03  0.00000000000E+00 0. -1.
          1    1    1    2  502    0 -0.28744571019E+02  0.14311311887E+03  0.14894255848E+03  0.20854616008E+03  0.00000000000E+00 0. -1.
         22    1    3    3    0    0  0.54211253127E+02 -0.27489814752E+02 -0.58226577036E+02  0.84171753896E+02  0.00000000000E+00 0. -1.
         22    1    3    3    0    0 -0.49141071509E+01 -0.13184859222E+03 -0.35320857367E+03  0.37704707430E+03  0.00000000000E+00 0. -1.
</event>
<event>
 7    1  0.5957303E-006  0.1273976E+03  0.7818608E-02  0.1296661E+00
          2   -1    0    0  502    0  0.00000000000E+00  0.00000000000E+00  0.45454217779E+02  0.45454217779E+02  0.00000000000E+00 0. -1.
          1   -1    0    0  501    0 -0.00000000000E+00 -0.00000000000E+00 -0.18288503095E+04  0.18288503095E+04  0.00000000000E+00 0. -1.
         25    2    1    2    0    0 -0.14107184530E+03  0.11189054995E+01 -0.71984535695E+03  0.74411409124E+03  0.12500370142E+03 0.  0.
          2    1    1    2  501    0  0.11126551723E+03 -0.61475826182E+02 -0.10546566153E+04  0.10622899175E+04  0.00000000000E+00 0. -1.
          1    1    1    2  502    0  0.29806328069E+02  0.60356920682E+02 -0.88941195048E+01  0.67900518621E+02  0.00000000000E+00 0. -1.
         22    1    3    3    0    0  0.11485353196E+02  0.30188835956E+02 -0.98823536737E+02  0.10396812284E+03  0.00000000000E+00 0. -1.
         22    1    3    3    0    0 -0.15255719849E+03 -0.29069930457E+02 -0.62102182021E+03  0.64014596839E+03  0.00000000000E+00 0. -1.
</event>
<event>
 7    1  0.5957303E-006  0.5228337E+02  0.7818608E-02  0.1520898E+00
          2   -1    0    0  502    0  0.00000000000E+00  0.00000000000E+00  0.42078746300E+03  0.42078746300E+03  0.00000000000E+00 0. -1.
          1   -1    0    0  501    0 -0.00000000000E+00 -0.00000000000E+00 -0.36046411794E+02  0.36046411794E+02  0.00000000000E+00 0. -1.
         25    2    1    2    0    0  0.65404415391E+02 -0.78504035500E+01  0.20671668269E+03  0.25038712528E+03  0.12499023647E+03 0.  0.
          2    1    1    2  501    0 -0.21667578485E+02 -0.17885665021E+02  0.82971650325E+01  0.29295459004E+02  0.00000000000E+00 0. -1.
          1    1    1    2  502    0 -0.43736836905E+02  0.25736068571E+02  0.16972720347E+03  0.17715129050E+03  0.00000000000E+00 0. -1.
         22    1    3    3    0    0  0.43125771945E+00 -0.52670178142E+02  0.13021794213E+03  0.14046724209E+03  0.00000000000E+00 0. -1.
         22    1    3    3    0    0  0.64973157671E+02  0.44819774592E+02  0.76498740566E+02  0.10991988319E+03  0.00000000000E+00 0. -1.
</event>
<event>
 7    1  0.5957303E-006  0.1481946E+03  0.7818608E-02  0.1228228E+00
          2   -1    0    0  502    0  0.00000000000E+00  0.00000000000E+00  0.11262799115E+04  0.11262799115E+04  0.00000000000E+00 0. -1.
          1   -1    0    0  501    0 -0.00000000000E+00 -0.00000000000E+00 -0.12882183504E+04  0.12882183504E+04  0.00000000000E+00 0. -1.
         25    2    1    2    0    0  0.88015482868E+02  0.18327806504E+03 -0.23263896470E+03  0.33329230410E+03  0.12500119090E+03 0.  0.
          2    1    1    2  501    0  0.18177417723E+02 -0.14427284900E+03 -0.99699002053E+03  0.10075386715E+04  0.00000000000E+00 0. -1.
          1    1    1    2  502    0 -0.10619290059E+03 -0.39005216037E+02  0.10676905464E+04  0.10736672864E+04  0.00000000000E+00 0. -1.
         22    1    3    3    0    0 -0.14059592915E+01  0.10302320988E+03 -0.16740680432E+03  0.19657262431E+03  0.00000000000E+00 0.  1.
         22    1    3    3    0    0  0.89421442159E+02  0.80254855154E+02 -0.65232160381E+02  0.13671967979E+03  0.00000000000E+00 0.  1.
</event>
<event>
 7    1  0.5957303E-006  0.1123593E+03  0.7818608E-02  0.1311188E+00
          2   -1    0    0  502    0  0.00000000000E+00  0.00000000000E+00  0.81686293657E+03  0.81686293657E+03  0.00000000000E+00 0. -1.
          1   -1    0    0  501    0 -0.00000000000E+00 -0.00000000000E+00 -0.51125258301E+03  0.51125258301E+03  0.00000000000E+00 0. -1.
         25    2    1    2    0    0 -0.40532383411E+02 -0.53657754940E+02 -0.12700050967E+03  0.19047515393E+03  0.12501850278E+03 0.  0.
          2    1    1    2  501    0 -0.65609815058E+02  0.12630263543E+02 -0.34517092571E+03  0.35157807005E+03  0.00000000000E+00 0. -1.
          1    1    1    2  502    0  0.10614219847E+03  0.41027491397E+02  0.77778178894E+03  0.78606229559E+03  0.00000000000E+00 0. -1.
         22    1    3    3    0    0  0.43082069754E+02 -0.15510908081E+01 -0.32839808095E+02  0.54193390859E+02  0.00000000000E+00 0. -1.
         22    1    3    3    0    0 -0.83614453166E+02 -0.52106664132E+02 -0.94160701573E+02  0.13628176307E+03  0.00000000000E+00 0. -1.
</event>
<event>
 7    1  0.5957303E-006  0.5678173E+02  0.7818608E-02  0.1553643E+00
          2   -1    0    0  502    0  0.00000000000E+00  0.00000000000E+00  0.80551879019E+03  0.80551879019E+03  0.00000000000E+00 0. -1.
          1   -1    0    0  501    0 -0.00000000000E+00 -0.00000000000E+00 -0.79134608651E+02  0.79134608651E+02  0.00000000000E+00 0. -1.
         25    2    1    2    0    0  0.42093030401E+02  0.16120202377E+01 -0.11427995332E+02  0.13240876777E+03  0.12500824328E+03 0.  0.
          2    1    1    2  501    0  0.13011303315E+02 -0.16339800196E+02  0.11789616176E+02  0.23984956410E+02  0.00000000000E+00 0. -1.
          1    1    1    2  502    0 -0.55104333716E+02  0.14727779959E+02  0.72602256070E+03  0.72825967466E+03  0.00000000000E+00 0. -1.
         22    1    3    3    0    0  0.53518249398E+02  0.54864152890E+02 -0.13875973390E+02  0.77889799900E+02  0.00000000000E+00 0.  1.
         22    1    3    3    0    0 -0.11425218997E+02 -0.53252132653E+02  0.24479780587E+01  0.54518967871E+02  0.00000000000E+00 0.  1.
</event>
<event>
 7    1  0.5957303E-006  0.6155822E+02  0.7818608E-02  0.1432198E+00
          2   -1    0    0  502    0  0.00000000000E+00  0.00000000000E+00  0.48183520829E+03  0.48183520829E+03  0.00000000000E+00 0. -1.
          1   -1    0    0  501    0 -0.00000000000E+00 -0.00000000000E+00 -0.69079461207E+02  0.69079461207E+02  0.00000000000E+00 0. -1.
         25    2    1    2    0    0 -0.16791266467E+02  0.41434988344E+02  0.17628998282E+02  0.13392169987E+03  0.12500174090E+03 0.  0.
          2    1    1    2  501    0 -0.43855615843E+02 -0.51988188714E+02  0.15823294031E+03  0.17223167597E+03  0.00000000000E+00 0. -1.
          1    1    1    2  502    0  0.60646882311E+02  0.10553200370E+02  0.23689380849E+03  0.24476129365E+03  0.00000000000E+00 0. -1.
         22    1    3    3    0    0 -0.60598575729E+01 -0.34695319088E+02  0.40535142341E+02  0.53699020522E+02  0.00000000000E+00 0. -1.
         22    1    3    3    0    0 -0.10731408895E+02  0.76130307432E+02 -0.22906144059E+02  0.80222679351E+02  0.00000000000E+00 0. -1.
</event>
<event>
 7    1  0.5957303E-006  0.1225271E+03  0.7818608E-02  0.1269063E+00
          2   -1    0    0  502    0  0.00000000000E+00  0.00000000000E+00  0.91672301956E+03  0.91672301956E+03  0.00000000000E+00 0. -1.
          1   -1    0    0  501    0 -0.00000000000E+00 -0.00000000000E+00 -0.14747418230E+03  0.14747418230E+03  0.00000000000E+00 0. -1.
         25    2    1    2    0    0 -0.18388401338E+03  0.40380791144E+02  0.15967012280E+03  0.27670204241E+03  0.12500213393E+03 0.  0.
          2    1    1    2  501    0  0.86932268633E+02  0.26577950791E+02 -0.59157370972E+02  0.10845829308E+03  0.00000000000E+00 0. -1.
          1    1    1    2  502    0  0.96951744746E+02 -0.66958741935E+02  0.66873608543E+03  0.67903686637E+03  0.00000000000E+00 0. -1.
         22    1    3    3    0    0 -0.20636058536E+02  0.57470957570E+02  0.53779863225E+02  0.81369721422E+02  0.00000000000E+00 0.  1.
         22    1    3    3    0    0 -0.16324795484E+03 -0.17090166426E+02  0.10589025957E+03  0.19533232099E+03  0.00000000000E+00 0.  1.
</event>
<event>
 7    1  0.5957303E-006  0.1543684E+03  0.7818608E-02  0.1292598E+00
          2   -1    0    0  502    0  0.00000000000E+00  0.00000000000E+00  0.15061892364E+04  0.15061892364E+04  0.00000000000E+00 0. -1.
          1   -1    0    0  501    0 -0.00000000000E+00 -0.00000000000E+00 -0.23471681507E+03  0.23471681507E+03  0.00000000000E+00 0. -1.
         25    2    1    2    0    0  0.18888693986E+03  0.88676284583E+02  0.60516744723E+02  0.25066022368E+03  0.12500604724E+03 0.  0.
          2    1    1    2  501    0 -0.47797717882E+02 -0.32309142066E+02 -0.12920490021E+03  0.14150056090E+03  0.00000000000E+00 0. -1.
          1    1    1    2  502    0 -0.14108922198E+03 -0.56367142517E+02  0.13401605768E+04  0.13487452669E+04  0.00000000000E+00 0. -1.
         22    1    3    3    0    0  0.24847502858E+02  0.57410029167E+02  0.55444442554E+02  0.83590645753E+02  0.00000000000E+00 0.  1.
         22    1    3    3    0    0  0.16403943700E+03  0.31266255415E+02  0.50723021697E+01  0.16706957793E+03  0.00000000000E+00 0.  1.
</event>
<event>
 7    1  0.5957303E-006  0.1338525E+03  0.7818608E-02  0.1409192E+00
          2   -1    0    0  502    0  0.00000000000E+00  0.00000000000E+00  0.46762846867E+03  0.46762846867E+03  0.00000000000E+00 0. -1.
          1   -1    0    0  501    0 -0.00000000000E+00 -0.00000000000E+00 -0.47807470553E+03  0.47807470553E+03  0.00000000000E+00 0. -1.
         25    2    1    2    0    0 -0.14832349112E+03  0.24455287749E+02 -0.68246437127E+02  0.20707133380E+03  0.12499216770E+03 0.  0.
          2    1    1    2  501    0  0.13079261106E+03 -0.72075548602E+01 -0.32740791410E+03  0.35263947336E+03  0.00000000000E+00 0. -1.
          1    1    1    2  502    0  0.17530880060E+02 -0.17247732889E+02  0.38520811436E+03  0.38599236704E+03  0.00000000000E+00 0. -1.
         22    1    3    3    0    0 -0.34336280961E+02 -0.31355620339E+02  0.21899465545E+02  0.51397876495E+02  0.00000000000E+00 0.  1.
         22    1    3    3    0    0 -0.11398721016E+03  0.55810908088E+02 -0.90145902672E+02  0.15567345731E+03  0.00000000000E+00 0.  1.
</event>
<event>
 7    1  0.5957303E-006  0.7411850E+02  0.7818608E-02  0.1387679E+00
          2   -1    0    0  502    0  0.00000000000E+00  0.00000000000E+00  0.26885091106E+03  0.26885091106E+03  0.00000000000E+00 0. -1.
          1   -1    0    0  501    0 -0.00000000000E+00 -0.00000000000E+00 -0.91486712752E+03  0.91486712752E+03  0.00000000000E+00 0. -1.
         25    2    1    2    0    0  0.48547672643E+02  0.95115100059E+02 -0.17171895626E+03  0.23773195149E+03  0.12500128816E+03 0.  0.
          2    1    1    2  501    0  0.10685944653E+02 -0.51586627729E+02 -0.70340496224E+03  0.70537501407E+03  0.00000000000E+00 0. -1.
          1    1    1    2  502    0 -0.59233617296E+02 -0.43528472330E+02  0.22910770205E+03  0.24061107302E+03  0.00000000000E+00 0. -1.
         22    1    3    3    0    0  0.28063486027E+02  0.12220411642E+03 -0.15645278766E+03  0.20049658372E+03  0.00000000000E+00 0.  1.
         22    1    3    3    0    0  0.20484186616E+02 -0.27089016365E+02 -0.15266168604E+02  0.37235367768E+02  0.00000000000E+00 0.  1.
</event>
<event>
 7    1  0.5957303E-006  0.7448114E+02  0.7818608E-02  0.1413830E+00
          2   -1    0    0  502    0  0.00000000000E+00  0.00000000000E+00  0.40845978251E+03  0.40845978251E+03  0.00000000000E+00 0. -1.
          1   -1    0    0  501    0 -0.00000000000E+00 -0.00000000000E+00 -0.10385625802E+04  0.10385625802E+04  0.00000000000E+00 0. -1.
         25    2    1    2    0    0 -0.10285255475E+03 -0.22038622588E+02 -0.30454185490E+03  0.34559349590E+03  0.12499909645E+03 0.  0.
          2    1    1    2  501    0  0.39359870468E+02 -0.16372947711E+02 -0.70930032206E+03  0.71058019935E+03  0.00000000000E+00 0. -1.
          1    1    1    2  502    0  0.63492684284E+02  0.38411570299E+02  0.38373937926E+03  0.39084866750E+03  0.00000000000E+00 0. -1.
         22    1    3    3    0    0 -0.57042647461E+02 -0.53700209874E+02 -0.71750203011E+02  0.10623402375E+03  0.00000000000E+00 0. -1.
         22    1    3    3    0    0 -0.45809907291E+02  0.31661587286E+02 -0.23279165189E+03  0.23935947215E+03  0.00000000000E+00 0. -1.
</event>
<event>
 7    1  0.5957303E-006  0.1384214E+03  0.7818608E-02  0.1322478E+00
          2   -1    0    0  502    0  0.00000000000E+00  0.00000000000E+00  0.11834404002E+04  0.11834404002E+04  0.00000000000E+00 0. -1.
          1   -1    0    0  501    0 -0.00000000000E+00 -0.00000000000E+00 -0.69564568998E+03  0.69564568998E+03  0.00000000000E+00 0. -1.
         25    2    1    2    0    0 -0.66207979495E+02 -0.10417688732E+03 -0.91864949678E+01  0.17591133680E+03  0.12499634524E+03 0.  0.
          2    1    1    2  501    0  0.30103348789E+02  0.13731460568E+03 -0.59434772444E+03  0.61074604386E+03  0.00000000000E+00 0. -1.
          1    1    1    2  502    0  0.36104630706E+02 -0.33137718359E+02  0.10913289297E+04  0.10924287096E+04  0.00000000000E+00 0. -1.
         22    1    3    3    0    0 -0.43173334853E+02 -0.31126823195E+02 -0.62871735242E+02  0.82375184716E+02  0.00000000000E+00 0. -1.
         22    1    3    3    0    0 -0.23034644642E+02 -0.73050064126E+02  0.53685240274E+02  0.93536152079E+02  0.00000000000E+00 0. -1.
</event>
<event>
 7    1  0.5957303E-006  0.4367420E+02  0.7818608E-02  0.1522311E+00
          2   -1    0    0  502    0  0.00000000000E+00  0.00000000000E+00  0.57862714243E+03  0.57862714243E+03  0.00000000000E+00 0. -1.
          1   -1    0    0  501    0 -0.00000000000E+00 -0.00000000000E+00 -0.86342435092E+02  0.86342435092E+02  0.00000000000E+00 0. -1.
         25    2    1    2    0    0  0.17472896907E+02  0.21998453370E+01  0.23438939073E+03  0.26622123278E+03  0.12500086739E+03 0.  0.
          2    1    1    2  501    0  0.18304367288E+02  0.27840264338E+02 -0.64706837640E+02  0.72781213356E+02  0.00000000000E+00 0. -1.
          1    1    1    2  502    0 -0.35777264196E+02 -0.30040109675E+02  0.32260215425E+03  0.32596713139E+03  0.00000000000E+00 0. -1.
         22    1    3    3    0    0  0.24971627190E+02  0.10290451715E+01  0.24873723653E+03  0.24998970765E+03  0.00000000000E+00 0.  1.
         22    1    3    3    0    0 -0.74987302821E+01  0.11708001655E+01 -0.14347845793E+02  0.16231525122E+02  0.00000000000E+00 0.  1.
</event>
<event>
 7    1  0.5957303E-006  0.1107611E+03  0.7818608E-02  0.1381474E+00
          2   -1    0    0  502    0  0.00000000000E+00  0.00000000000E+00  0.92557173210E+03  0.92557173210E+03  0.00000000000E+00 0. -1.
          1   -1    0    0  501    0 -0.00000000000E+00 -0.00000000000E+00 -0.48207989433E+03  0.48207989433E+03  0.00000000000E+00 0. -1.
         25    2    1    2    0    0  0.55692483411E+02  0.60964353032E+02  0.21453434905E+03  0.26166511782E+03  0.12500136763E+03 0.  0.
          2    1    1    2  501    0  0.34656265457E+02  0.13159552612E+02 -0.45278505848E+03  0.45430005475E+03  0.00000000000E+00 0. -1.
          1    1    1    2  502    0 -0.90348748868E+02 -0.74123905645E+02  0.68174254720E+03  0.69168645387E+03  0.00000000000E+00 0. -1.
         22    1    3    3    0    0 -0.56955529440E+01  0.10275981826E+02  0.17007748327E+03  0.17048280101E+03  0.00000000000E+00 0.  1.
         22    1    3    3    0    0  0.61388036355E+02  0.50688371207E+02  0.44456865785E+02  0.91182316808E+02  0.00000000000E+00 0.  1.
</event>
<event>
 7    1  0.5957303E-006  0.5703850E+02  0.7818608E-02  0.1490978E+00
          2   -1    0    0  502    0  0.00000000000E+00  0.00000000000E+00  0.66314328066E+03  0.66314328066E+03  0.00000000000E+00 0. -1.
          1   -1    0    0  501    0 -0.00000000000E+00 -0.00000000000E+00 -0.10855143417E+04  0.10855143417E+04  0.00000000000E+00 0. -1.
         25    2    1    2    0    0  0.55054332214E+02  0.62485659893E+02 -0.53042221692E+03  0.55127794911E+03  0.12499684711E+03 0.  0.
          2    1    1    2  501    0 -0.78304553727E+01 -0.30593452316E+02 -0.54296085754E+03  0.54387844982E+03  0.00000000000E+00 0. -1.
          1    1    1    2  502    0 -0.47223876842E+02 -0.31892207578E+02  0.65101201340E+03  0.65350122344E+03  0.00000000000E+00 0. -1.
         22    1    3    3    0    0 -0.33403312155E+02 -0.75496067792E+01 -0.81665161143E+02  0.88554934193E+02  0.00000000000E+00 0.  1.
         22    1    3    3    0    0  0.88457644370E+02  0.70035266672E+02 -0.44875705577E+03  0.46272301492E+03  0.00000000000E+00 0.  1.
</event>
<event>
 7    1  0.5957303E-006  0.9658003E+02  0.7818608E-02  0.1372140E+00
          2   -1    0    0  502    0  0.00000000000E+00  0.00000000000E+00  0.19198291458E+04  0.19198291458E+04  0.00000000000E+00 0. -1.
          1   -1    0    0  501    0 -0.00000000000E+00 -0.00000000000E+00 -0.67000147657E+03  0.67000147657E+03  0.00000000000E+00 0. -1.
         25    2    1    2    0    0 -0.34136665876E+02  0.42646977174E+02  0.31667338098E+03  0.34479781271E+03  0.12497769726E+03 0.  0.
          2    1    1    2  501    0  0.40820156371E+02 -0.88050762656E+02 -0.65201536850E+03  0.65919895535E+03  0.00000000000E+00 0. -1.
          1    1    1    2  502    0 -0.66834904944E+01  0.45403785483E+02  0.15851696567E+04  0.15858338543E+04  0.00000000000E+00 0. -1.
         22    1    3    3    0    0 -0.35702361434E+02  0.54319408669E+02  0.32431100068E+03  0.33076106472E+03  0.00000000000E+00 0.  1.
         22    1    3    3    0    0  0.15656955581E+01 -0.11672431496E+02 -0.76376197013E+01  0.14036747996E+02  0.00000000000E+00 0.  1.
</event>
<event>
 7    1  0.5957303E-006  0.5374036E+02  0.7818608E-02  0.1553554E+00
          2   -1    0    0  502    0  0.00000000000E+00  0.00000000000E+00  0.50884249440E+03  0.50884249440E+03  0.00000000000E+00 0. -1.
          1   -1    0    0  501    0 -0.00000000000E+00 -0.00000000000E+00 -0.71905428676E+03  0.71905428676E+03  0.00000000000E+00 0. -1.
         25    2    1    2    0    0 -0.42044371040E+02 -0.61802029894E+02 -0.28506571985E+02  0.14840170236E+03  0.12499288213E+03 0.  0.
          2    1    1    2  501    0  0.82830459532E+01  0.20469622845E+02 -0.62881943734E+03  0.62920703992E+03  0.00000000000E+00 0. -1.
          1    1    1    2  502    0  0.33761325087E+02  0.41332407049E+02  0.44711421697E+03  0.45028803888E+03  0.00000000000E+00 0. -1.
         22    1    3    3    0    0  0.20991099694E+02 -0.40279824286E+02 -0.59565830894E+02  0.74907801469E+02  0.00000000000E+00 0.  1.
         22    1    3    3    0    0 -0.63035470734E+02 -0.21522205608E+02  0.31059258909E+02  0.73493900896E+02  0.00000000000E+00 0.  1.
</event>
<event>
 7    1  0.5957303E-006  0.5606919E+02  0.7818608E-02  0.1495796E+00
          2   -1    0    0  502    0  0.00000000000E+00  0.00000000000E+00  0.92317673105E+03  0.92317673105E+03  0.00000000000E+00 0. -1.
          1   -1    0    0  501    0 -0.00000000000E+00 -0.00000000000E+00 -0.48440614701E+03  0.48440614701E+03  0.00000000000E+00 0. -1.
         25    2    1    2    0    0 -0.45455102581E+02 -0.11002014164E+02  0.32642230809E+03  0.35265154657E+03  0.12499751765E+03 0.  0.
          2    1    1    2  501    0 -0.92765607576E+01  0.29653099781E+02 -0.46934448038E+03  0.47037177017E+03  0.00000000000E+00 0. -1.
          1    1    1    2  502    0  0.54731663338E+02 -0.18651085617E+02  0.58169275633E+03  0.58455956133E+03  0.00000000000E+00 0. -1.
         22    1    3    3    0    0  0.65746540395E+01 -0.58759410810E+02  0.10841203269E+03  0.12348709757E+03  0.00000000000E+00 0.  1.
         22    1    3    3    0    0 -0.52029756620E+02  0.47757396646E+02  0.21801027539E+03  0.22916444900E+03  0.00000000000E+00 0.  1.
</event>
<event>
 7    1  0.5957303E-006  0.5531298E+02  0.7818608E-02  0.1517166E+00
          2   -1    0    0  502    0  0.00000000000E+00  0.00000000000E+00  0.15002783906E+03  0.15002783906E+03  0.00000000000E+00 0. -1.
          1   -1    0    0  501    0 -0.00000000000E+00 -0.00000000000E+00 -0.13742487081E+03  0.13742487081E+03  0.00000000000E+00 0. -1.
         25    2    1    2    0    0 -0.42343970825E+01 -0.49631698685E+02  0.47143195142E+02  0.14257879111E+03  0.12499998077E+03 0.  0.
          2    1    1    2  501    0  0.31327306662E+02  0.46913213807E+02 -0.76380442184E+02  0.94953787289E+02  0.00000000000E+00 0. -1.
          1    1    1    2  502    0 -0.27092909579E+02  0.27184848788E+01  0.41840215299E+02  0.49920131468E+02  0.00000000000E+00 0. -1.
         22    1    3    3    0    0 -0.28442014238E+02 -0.85817503496E+02  0.25362949331E+02  0.93898196357E+02  0.00000000000E+00 0.  1.
         22    1    3    3    0    0  0.24207617155E+02  0.36185804811E+02  0.21780245811E+02  0.48680594755E+02  0.00000000000E+00 0.  1.
</event>
<event>
 7    1  0.5957303E-006  0.3563926E+03  0.7818608E-02  0.1158688E+00
          2   -1    0    0  502    0  0.00000000000E+00  0.00000000000E+00  0.30142599163E+04  0.30142599163E+04  0.00000000000E+00 0. -1.
          1   -1    0    0  501    0 -0.00000000000E+00 -0.00000000000E+00 -0.15150645220E+04  0.15150645220E+04  0.00000000000E+00 0. -1.
         25    2    1    2    0    0  0.16072127241E+03  0.32666702550E+03  0.45254634193E+03  0.59410950417E+03  0.12500095360E+03 0.  0.
          2    1    1    2  501    0 -0.62692612415E+02 -0.35109105655E+03 -0.14212166714E+04  0.14652822665E+04  0.00000000000E+00 0. -1.
          1    1    1    2  502    0 -0.98028659993E+02  0.24424031054E+02  0.24678657238E+04  0.24699326675E+04  0.00000000000E+00 0. -1.
         22    1    3    3    0    0  0.11939611912E+03  0.23531324486E+03  0.23008096702E+03  0.35009285604E+03  0.00000000000E+00 0.  1.
         22    1    3    3    0    0  0.41325153286E+02  0.91353780641E+02  0.22246537490E+03  0.24401664813E+03  0.00000000000E+00 0.  1.
</event>
<event>
 7    1  0.5957303E-006  0.1056427E+03  0.7818608E-02  0.1422921E+00
          2   -1    0    0  502    0  0.00000000000E+00  0.00000000000E+00  0.87468606095E+03  0.87468606095E+03  0.00000000000E+00 0. -1.
          1   -1    0    0  501    0 -0.00000000000E+00 -0.00000000000E+00 -0.21162272997E+03  0.21162272997E+03  0.00000000000E+00 0. -1.
         25    2    1    2    0    0 -0.92339261810E+02 -0.82612957763E+02  0.32114428216E+02  0.17890954586E+03  0.12500339610E+03 0.  0.
          2    1    1    2  501    0  0.28020264491E+02 -0.18538939882E+00 -0.13318771554E+03  0.13610340614E+03  0.00000000000E+00 0. -1.
          1    1    1    2  502    0  0.64318997319E+02  0.82798347162E+02  0.76413661830E+03  0.77129583892E+03  0.00000000000E+00 0. -1.
         22    1    3    3    0    0  0.50610156229E+01  0.27701018805E+02 -0.56387474526E+00  0.28165196195E+02  0.00000000000E+00 0. -1.
         22    1    3    3    0    0 -0.97400277432E+02 -0.11031397657E+03  0.32678302961E+02  0.15074434966E+03  0.00000000000E+00 0. -1.
</event>
<event>
 7    1  0.8747978E-006  0.1019511E+03  0.7818608E-02  0.1308322E+00
          2   -1    0    0  502    0  0.00000000000E+00  0.00000000000E+00  0.10617700278E+04  0.10617700278E+04  0.00000000000E+00 0. -1.
          1   -1    0    0  501    0 -0.00000000000E+00 -0.00000000000E+00 -0.24936502690E+04  0.24936502690E+04  0.00000000000E+00 0. -1.
         25    2    1    2    0    0 -0.41287805475E+02 -0.77997684566E+02 -0.14602257267E+04  0.14682206027E+04  0.12499697433E+03 0.  0.
          2    1    1    2  501    0 -0.18887292599E+02  0.12372202676E+03 -0.10242632372E+04  0.10318813152E+04  0.00000000000E+00 0. -1.
          1    1    1    2  502    0  0.60175098074E+02 -0.45724342194E+02  0.10526087226E+04  0.10553183789E+04  0.00000000000E+00 0. -1.
         22    1    3    3    0    0 -0.38057878572E+02 -0.56836914425E+02 -0.29609993937E+03  0.30389802740E+03  0.00000000000E+00 0. -1.
         22    1    3    3    0    0 -0.32299269026E+01 -0.21160770140E+02 -0.11641257873E+04  0.11643225753E+04  0.00000000000E+00 0. -1.
</event>
<event>
 7    1  0.5957303E-006  0.5574207E+02  0.7818608E-02  0.1432575E+00
          2   -1    0    0  502    0  0.00000000000E+00  0.00000000000E+00  0.31460804325E+04  0.31460804325E+04  0.00000000000E+00 0. -1.
          1   -1    0    0  501    0 -0.00000000000E+00 -0.00000000000E+00 -0.53331091884E+03  0.53331091884E+03  0.00000000000E+00 0. -1.
         25    2    1    2    0    0  0.34574433121E+02 -0.49106082340E+02  0.48990050647E+03  0.50915061394E+03  0.12500017075E+03 0.  0.
          2    1    1    2  501    0 -0.55614158053E+02  0.44702024624E+01 -0.52196900208E+03  0.52494243153E+03  0.00000000000E+00 0. -1.
          1    1    1    2  502    0  0.21039724931E+02  0.44635879878E+02  0.26448380092E+04  0.26452983058E+04  0.00000000000E+00 0. -1.
         22    1    3    3    0    0 -0.15963247123E+02  0.33541763491E+02  0.20203804996E+03  0.20542455741E+03  0.00000000000E+00 0. -1.
         22    1    3    3    0    0  0.50537680244E+02 -0.82647845831E+02  0.28786245651E+03  0.30372605653E+03  0.00000000000E+00 0. -1.
</event>
<event>
 7    1  0.5957303E-006  0.9246257E+02  0.7818608E-02  0.1330866E+00
          2   -1    0    0  502    0  0.00000000000E+00  0.00000000000E+00  0.19197874943E+04  0.19197874943E+04  0.00000000000E+00 0. -1.
          1   -1    0    0  501    0 -0.00000000000E+00 -0.00000000000E+00 -0.33536289604E+03  0.33536289604E+03  0.00000000000E+00 0. -1.
         25    2    1    2    0    0  0.27414140761E+02 -0.15495576149E+02  0.77501329640E+02  0.15040315979E+03  0.12499202528E+03 0.  0.
          2    1    1    2  501    0 -0.62609450831E+02  0.73820168172E+02 -0.29041357596E+03  0.30611992040E+03  0.00000000000E+00 0. -1.
          1    1    1    2  502    0  0.35195310070E+02 -0.58324592023E+02  0.17973368446E+04  0.17986273102E+04  0.00000000000E+00 0. -1.
         22    1    3    3    0    0  0.29851586432E+02 -0.31324344881E+02 -0.22745941707E+02  0.48884656681E+02  0.00000000000E+00 0.  1.
         22    1    3    3    0    0 -0.24374456703E+01  0.15828768732E+02  0.10024727135E+03  0.10151850311E+03  0.00000000000E+00 0.  1.
</event>
<event>
 7    1  0.5957303E-006  0.5877309E+02  0.7818608E-02  0.1483504E+00
          2   -1    0    0  502    0  0.00000000000E+00  0.00000000000E+00  0.23935958147E+04  0.23935958147E+04  0.00000000000E+00 0. -1.
          1   -1    0    0  501    0 -0.00000000000E+00 -0.00000000000E+00 -0.91048979013E+01  0.91048979013E+01  0.00000000000E+00 0. -1.
         25    2    1    2    0    0 -0.29461600437E+02 -0.23641080140E+02  0.97037629194E+03  0.97912241752E+03  0.12499469574E+03 0.  0.
          2    1    1    2  501    0  0.61405054036E+02  0.18907834652E+02  0.22417532592E+03  0.23320090828E+03  0.00000000000E+00 0. -1.
          1    1    1    2  502    0 -0.31943453599E+02  0.47332454889E+01  0.11899392989E+04  0.11903773868E+04  0.00000000000E+00 0. -1.
         22    1    3    3    0    0 -0.66970086813E+02 -0.16000542470E+02  0.30629907853E+03  0.31394288557E+03  0.00000000000E+00 0. -1.
         22    1    3    3    0    0  0.37508486376E+02 -0.76405376705E+01  0.66407721341E+03  0.66517953196E+03  0.00000000000E+00 0. -1.
</event>
<event>
 7    1  0.5957303E-006  0.6531899E+02  0.7818608E-02  0.1535574E+00
          2   -1    0    0  502    0  0.00000000000E+00  0.00000000000E+00  0.21694761015E+02  0.21694761015E+02  0.00000000000E+00 0. -1.
          1   -1    0    0  501    0 -0.00000000000E+00 -0.00000000000E+00 -0.20377351908E+04  0.20377351908E+04  0.00000000000E+00 0. -1.
         25    2    1    2    0    0  0.51750065757E+02 -0.76442957556E+01 -0.99115236841E+03  0.10003726523E+04  0.12500368634E+03 0.  0.
          2    1    1    2  501    0 -0.68656924619E+02 -0.37871899413E+01 -0.10342997254E+04  0.10365828660E+04  0.00000000000E+00 0. -1.
          1    1    1    2  502    0  0.16906858862E+02  0.11431485697E+02  0.94116640018E+01  0.22474433499E+02  0.00000000000E+00 0. -1.
         22    1    3    3    0    0  0.83461367024E+02 -0.25804365157E+02 -0.85325548824E+03  0.85771591641E+03  0.00000000000E+00 0. -1.
         22    1    3    3    0    0 -0.31711301267E+02  0.18160069402E+02 -0.13789688017E+03  0.14265673594E+03  0.00000000000E+00 0. -1.
</event>
<event>
 7    1  0.5957303E-006  0.4163970E+02  0.7818608E-02  0.1549406E+00
          2   -1    0    0  502    0  0.00000000000E+00  0.00000000000E+00  0.24646562072E+04  0.24646562072E+04  0.00000000000E+00 0. -1.
          1   -1    0    0  501    0 -0.00000000000E+00 -0.00000000000E+00 -0.56864417623E+03  0.56864417623E+03  0.00000000000E+00 0. -1.
         25    2    1    2    0    0 -0.10551887441E+02  0.32725066840E+02  0.15002729672E+03  0.19828143406E+03  0.12500026002E+03 0.  0.
          2    1    1    2  501    0  0.28867783634E+02  0.48176735628E+01 -0.54393321910E+03  0.54472002510E+03  0.00000000000E+00 0. -1.
          1    1    1    2  502    0 -0.18315896193E+02 -0.37542740403E+02  0.22899179533E+04  0.22902989242E+04  0.00000000000E+00 0. -1.
         22    1    3    3    0    0 -0.54546000824E+02 -0.27110812089E+01  0.12516628684E+03  0.13656213066E+03  0.00000000000E+00 0. -1.
         22    1    3    3    0    0  0.43994113383E+02  0.35436148049E+02  0.24861009879E+02  0.61719303407E+02  0.00000000000E+00 0. -1.
</event>
<event>
 7    1  0.5957303E-006  0.2010777E+03  0.7818608E-02  0.1316825E+00
          2   -1    0    0  502    0  0.00000000000E+00  0.00000000000E+00  0.83052165801E+03  0.83052165801E+03  0.00000000000E+00 0. -1.
          1   -1    0    0  501    0 -0.00000000000E+00 -0.00000000000E+00 -0.60488921515E+03  0.60488921515E+03  0.00000000000E+00 0. -1.
         25    2    1    2    0    0  0.11487312533E+03 -0.13446043366E+03  0.11661510638E+03  0.24596588203E+03  0.12499875576E+03 0.  0.
          2    1    1    2  501    0  0.45199493208E+01 -0.35195391221E+02 -0.52302469634E+03  0.52422702953E+03  0.00000000000E+00 0. -1.
          1    1    1    2  502    0 -0.11939307465E+03  0.16965582488E+03  0.63204203282E+03  0.66521796161E+03  0.00000000000E+00 0. -1.
         22    1    3    3    0    0  0.95158686855E+02 -0.13486767395E+03  0.44144006752E+02  0.17086005528E+03  0.00000000000E+00 0.  1.
         22    1    3    3    0    0  0.19714438479E+02  0.40724028957E+00  0.72471099631E+02  0.75105826745E+02  0.00000000000E+00 0.  1.
</event>
<event>
 7    1  0.5957303E-006  0.6503797E+02  0.7818608E-02  0.1408151E+00
          2   -1    0    0  502    0  0.00000000000E+00  0.00000000000E+00  0.34869737607E+03  0.34869737607E+03  0.00000000000E+00 0. -1.
          1   -1    0    0  501    0 -0.00000000000E+00 -0.00000000000E+00 -0.21558416027E+04  0.21558416027E+04  0.00000000000E+00 0. -1.
         25    2    1    2    0    0 -0.23199442547E+02  0.23125342445E+02  0.12938888851E+03  0.18286566052E+03  0.12500147890E+03 0.  0.
          2    1    1    2  501    0  0.64871904194E+02  0.63231419830E+01 -0.21252144489E+04  0.21262137239E+04  0.00000000000E+00 0. -1.
          1    1    1    2  502    0 -0.41672461646E+02 -0.29448484428E+02  0.18868133376E+03  0.19545959430E+03  0.00000000000E+00 0. -1.
         22    1    3    3    0    0  0.84163631032E+01 -0.23729604732E+02 -0.13950241958E+02  0.28784345734E+02  0.00000000000E+00 0. -1.
         22    1    3    3    0    0 -0.31615805651E+02  0.46854947177E+02  0.14333913047E+03  0.15408131478E+03  0.00000000000E+00 0. -1.
</event>
<event>
 7    1  0.5957303E-006  0.7598424E+02  0.7818608E-02  0.1383919E+00
          2   -1    0    0  502    0  0.00000000000E+00  0.00000000000E+00  0.17546933644E+03  0.17546933644E+03  0.00000000000E+00 0. -1.
          1   -1    0    0  501    0 -0.00000000000E+00 -0.00000000000E+00 -0.45602906480E+03  0.45602906480E+03  0.00000000000E+00 0. -1.
         25    2    1    2    0    0 -0.23618264348E+02 -0.21289363095E+02 -0.10436343989E+03  0.16589284861E+03  0.12497059752E+03 0.  0.
          2    1    1    2  501    0 -0.52952898009E+02 -0.15182759139E+01 -0.30743194967E+03  0.31196268727E+03  0.00000000000E+00 0. -1.
          1    1    1    2  502    0  0.76571162357E+02  0.22807639009E+02  0.13123566120E+03  0.15364286535E+03  0.00000000000E+00 0. -1.
         22    1    3    3    0    0 -0.50881020731E+02 -0.58798968643E+02 -0.42607155867E+02  0.88665476456E+02  0.00000000000E+00 0.  1.
         22    1    3    3    0    0  0.27262756383E+02  0.37509605548E+02 -0.61756284024E+02  0.77227372158E+02  0.00000000000E+00 0.  1.
</event>
<event>
 7    1  0.5957303E-006  0.8502932E+02  0.7818608E-02  0.1443186E+00
          2   -1    0    0  502    0  0.00000000000E+00  0.00000000000E+00  0.11194150586E+03  0.11194150586E+03  0.00000000000E+00 0. -1.
          1   -1    0    0  501    0 -0.00000000000E+00 -0.00000000000E+00 -0.14047310023E+04  0.14047310023E+04  0.00000000000E+00 0. -1.
         25    2    1    2    0    0 -0.83340120873E+02  0.61822454658E+02 -0.63139003493E+03  0.65195472696E+03  0.12499599253E+03 0.  0.
          2    1    1    2  501    0  0.51946474693E+01 -0.29421025916E+02 -0.74510786572E+03  0.74570658619E+03  0.00000000000E+00 0. -1.
          1    1    1    2  502    0  0.78145473404E+02 -0.32401428742E+02  0.83708404226E+02  0.11901119500E+03  0.00000000000E+00 0. -1.
         22    1    3    3    0    0 -0.24389042255E+02  0.33029271519E+02 -0.52741887779E+03  0.52901458469E+03  0.00000000000E+00 0.  1.
         22    1    3    3    0    0 -0.58951078618E+02  0.28793183139E+02 -0.10397115713E+03  0.12294014227E+03  0.00000000000E+00 0.  1.
</event>
<event>
 7    1  0.5957303E-006  0.5953069E+02  0.7818608E-02  0.1507058E+00
          2   -1    0    0  502    0  0.00000000000E+00  0.00000000000E+00  0.79775618613E+03  0.79775618613E+03  0.00000000000E+00 0. -1.
          1   -1    0    0  501    0 -0.00000000000E+00 -0.00000000000E+00 -0.19697940572E+03  0.19697940572E+03  0.00000000000E+00 0. -1.
         25    2    1    2    0    0  0.27391747653E+02 -0.77864858017E+02  0.35977260734E+03  0.38971123585E+03  0.12500109760E+03 0.  0.
          2    1    1    2  501    0 -0.30283547612E+02  0.50931127120E+02 -0.17673712511E+03  0.18640569830E+03  0.00000000000E+00 0. -1.
          1    1    1    2  502    0  0.28917999599E+01  0.26933730897E+02  0.41774129819E+03  0.41861865771E+03  0.00000000000E+00 0. -1.
         22    1    3    3    0    0  0.34426949415E+02  0.74203905745E+01  0.23965032611E+03  0.24222418510E+03  0.00000000000E+00 0.  1.
         22    1    3    3    0    0 -0.70352017625E+01 -0.85285248592E+02  0.12012228123E+03  0.14748705075E+03  0.00000000000E+00 0.  1.
</event>
<event>
 7    1  0.5957303E-006  0.1070263E+03  0.7818608E-02  0.1328284E+00
          2   -1    0    0  502    0  0.00000000000E+00  0.00000000000E+00  0.24329685915E+03  0.24329685915E+03  0.00000000000E+00 0. -1.
          1   -1    0    0  501    0 -0.00000000000E+00 -0.00000000000E+00 -0.19256397311E+03  0.19256397311E+03  0.00000000000E+00 0. -1.
         25    2    1    2    0    0 -0.69979127228E+02  0.43741486701E+02  0.36234584232E+02  0.15410471607E+03  0.12499969006E+03 0.  0.
          2    1    1    2  501    0  0.55772440552E+02 -0.10224543953E+03 -0.99274469307E+02  0.15303632015E+03  0.00000000000E+00 0. -1.
          1    1    1    2  502    0  0.14206686676E+02  0.58503952828E+02  0.11377277112E+03  0.12871979603E+03  0.00000000000E+00 0. -1.
         22    1    3    3    0    0  0.19465427576E+02  0.20575468612E+02  0.53100289320E+02  0.60182169329E+02  0.00000000000E+00 0.  1.
         22    1    3    3    0    0 -0.89444554803E+02  0.23166018089E+02 -0.16865705088E+02  0.93922546740E+02  0.00000000000E+00 0.  1.
</event>
<event>
 7    1  0.5957303E-006  0.1109542E+03  0.7818608E-02  0.1274173E+00
          2   -1    0    0  502    0  0.00000000000E+00  0.00000000000E+00  0.49753102936E+02  0.49753102936E+02  0.00000000000E+00 0. -1.
          1   -1    0    0  501    0 -0.00000000000E+00 -0.00000000000E+00 -0.21169183666E+04  0.21169183666E+04  0.00000000000E+00 0. -1.
         25    2    1    2    0    0 -0.25561644620E+02  0.12029856629E+02 -0.14692728825E+03  0.19496396321E+03  0.12500081516E+03 0.  0.
          2    1    1    2  501    0  0.11648082881E+03  0.17385466520E+02 -0.18484231338E+04  0.18521711907E+04  0.00000000000E+00 0. -1.
          1    1    1    2  502    0 -0.90919184187E+02 -0.29415323149E+02 -0.71814841624E+02  0.11953631568E+03  0.00000000000E+00 0. -1.
         22    1    3    3    0    0 -0.27667243494E+02  0.60697930634E+02 -0.12469634213E+03  0.14141744195E+03  0.00000000000E+00 0. -1.
         22    1    3    3    0    0  0.21055988738E+01 -0.48668074004E+02 -0.22230946118E+02  0.53546521261E+02  0.00000000000E+00 0. -1.
</event>
<event>
 7    1  0.5957303E-006  0.9991064E+02  0.7818608E-02  0.1424621E+00
          2   -1    0    0  502    0  0.00000000000E+00  0.00000000000E+00  0.21622130921E+03  0.21622130921E+03  0.00000000000E+00 0. -1.
          1   -1    0    0  501    0 -0.00000000000E+00 -0.00000000000E+00 -0.12365500150E+04  0.12365500150E+04  0.00000000000E+00 0. -1.
         25    2    1    2    0    0 -0.69512323567E+02  0.10762800696E+03  0.50864689998E+02  0.18608703943E+03  0.12500167417E+03 0.  0.
          2    1    1    2  501    0  0.49765417556E+02 -0.86055613270E+02 -0.11645852664E+04  0.11688203489E+04  0.00000000000E+00 0. -1.
          1    1    1    2  502    0  0.19746906011E+02 -0.21572393686E+02  0.93391870548E+02  0.97863935905E+02  0.00000000000E+00 0. -1.
         22    1    3    3    0    0 -0.76950577635E+02  0.43264493559E+02 -0.19529972300E+02  0.90413647306E+02  0.00000000000E+00 0.  1.
         22    1    3    3    0    0  0.74382540678E+01  0.64363513398E+02  0.70394662298E+02  0.95673392124E+02  0.00000000000E+00 0.  1.
</event>
<event>
 7    1  0.5957303E-006  0.5410216E+02  0.7818608E-02  0.1534368E+00
          2   -1    0    0  502    0  0.00000000000E+00  0.00000000000E+00  0.21495353722E+04  0.21495353722E+04  0.00000000000E+00 0. -1.
          1   -1    0    0  501    0 -0.00000000000E+00 -0.00000000000E+00 -0.12959909709E+03  0.12959909709E+03  0.00000000000E+00 0. -1.
         25    2    1    2    0    0 -0.27651485843E+02 -0.37710512462E+02 -0.22453584752E+02  0.13533764172E+03  0.12500170550E+03 0.  0.
          2    1    1    2  501    0 -0.20816403945E+02  0.13545855049E+02 -0.47290178577E+02  0.53415108837E+02  0.00000000000E+00 0. -1.
          1    1    1    2  502    0  0.48467889789E+02  0.24164657414E+02  0.20896800384E+04  0.20903817187E+04  0.00000000000E+00 0. -1.
         22    1    3    3    0    0 -0.25674012636E+02 -0.15827276407E+02 -0.73671169374E+02  0.79605896768E+02  0.00000000000E+00 0. -1.
         22    1    3    3    0    0 -0.19774732075E+01 -0.21883236055E+02  0.51217584623E+02  0.55731744949E+02  0.00000000000E+00 0. -1.
</event>
<event>
 7    1  0.5957303E-006  0.9525292E+02  0.7818608E-02  0.1311694E+00
          2   -1    0    0  502    0  0.00000000000E+00  0.00000000000E+00  0.11126472759E+04  0.11126472759E+04  0.00000000000E+00 0. -1.
          1   -1    0    0  501    0 -0.00000000000E+00 -0.00000000000E+00 -0.20894699804E+03  0.20894699804E+03  0.00000000000E+00 0. -1.
         25    2    1    2    0    0 -0.16086311281E+03  0.32232198854E+02  0.48744239808E+02  0.21193579027E+03  0.12499969031E+03 0.  0.
          2    1    1    2  501    0  0.77733319633E+02  0.10606091685E+02 -0.11279684536E+03  0.13739754905E+03  0.00000000000E+00 0. -1.
          1    1    1    2  502    0  0.83129793175E+02 -0.42838290539E+02  0.96775288344E+03  0.97226093466E+03  0.00000000000E+00 0. -1.
         22    1    3    3    0    0 -0.74911205829E+01  0.21410529475E+01 -0.34143449757E+02  0.35021081603E+02  0.00000000000E+00 0. -1.
         22    1    3    3    0    0 -0.15337199223E+03  0.30091145906E+02  0.82887689565E+02  0.17691470867E+03  0.00000000000E+00 0. -1.
</event>
<event>
 7    1  0.5957303E-006  0.1184725E+03  0.7818608E-02  0.1247755E+00
          2   -1    0    0  502    0  0.00000000000E+00  0.00000000000E+00  0.17809954687E+04  0.17809954687E+04  0.00000000000E+00 0. -1.
          1   -1    0    0  501    0 -0.00000000000E+00 -0.00000000000E+00 -0.73712463811E+03  0.73712463811E+03  0.00000000000E+00 0. -1.
         25    2    1    2    0    0 -0.19739565556E+03  0.67113861688E+02  0.52666379774E+03  0.58005992930E+03  0.12500180185E+03 0.  0.
          2    1    1    2  501    0  0.82654855450E+02 -0.84030369663E+02 -0.70276829827E+03  0.71258417693E+03  0.00000000000E+00 0. -1.
          1    1    1    2  502    0  0.11474080011E+03  0.16916507975E+02  0.12199753311E+04  0.12254760005E+04  0.00000000000E+00 0. -1.
         22    1    3    3    0    0 -0.19585179349E+03  0.62994020005E+02  0.37013340862E+03  0.42346772221E+03  0.00000000000E+00 0.  1.
         22    1    3    3    0    0 -0.15438620628E+01  0.41198416832E+01  0.15653038912E+03  0.15659220709E+03  0.00000000000E+00 0.  1.
</event>
<event>
 7    1  0.5957303E-006  0.5655136E+02  0.7818608E-02  0.1422316E+00
          2   -1    0    0  502    0  0.00000000000E+00  0.00000000000E+00  0.30818444358E+04  0.30818444358E+04  0.00000000000E+00 0. -1.
          1   -1    0    0  501    0 -0.00000000000E+00 -0.00000000000E+00 -0.93149849358E+02  0.93149849358E+02  0.00000000000E+00 0. -1.
         25    2    1    2    0    0 -0.34748682936E+02 -0.87354372241E+02  0.50176435619E+03  0.52557136649E+03  0.12497813736E+03 0.  0.
          2    1    1    2  501    0  0.43402214667E+02  0.35482883975E+02 -0.71273288974E+02  0.90678933685E+02  0.00000000000E+00 0. -1.
          1    1    1    2  502    0 -0.86535317314E+01  0.51871488266E+02  0.25582035192E+04  0.25587439850E+04  0.00000000000E+00 0. -1.
         22    1    3    3    0    0 -0.81580978390E+01 -0.10195931642E+03  0.47241238209E+03  0.48335878550E+03  0.00000000000E+00 0. -1.
         22    1    3    3    0    0 -0.26590585097E+02  0.14604944183E+02  0.29351974095E+02  0.42212580988E+02  0.00000000000E+00 0. -1.
</event>
<event>
 7    1  0.5957303E-006  0.3690586E+02  0.7818608E-02  0.1614040E+00
          2   -1    0    0  502    0  0.00000000000E+00  0.00000000000E+00  0.16765956834E+03  0.16765956834E+03  0.00000000000E+00 0. -1.
          1   -1    0    0  501    0 -0.00000000000E+00 -0.00000000000E+00 -0.19397969571E+03  0.19397969571E+03  0.00000000000E+00 0. -1.
         25    2    1    2    0    0 -0.52509230883E+01  0.39321005651E+02 -0.41097086349E+02  0.13743283942E+03  0.12500040466E+03 0.  0.
          2    1    1    2  501    0 -0.19031139062E+02 -0.11374518514E+02 -0.10061088801E+03  0.10302482571E+03  0.00000000000E+00 0. -1.
          1    1    1    2  502    0  0.24282062150E+02 -0.27946487137E+02  0.11538784699E+03  0.12118159892E+03  0.00000000000E+00 0. -1.
         22    1    3    3    0    0 -0.11434073960E+02  0.65072674684E+01 -0.82896313293E+02  0.83933791376E+02  0.00000000000E+00 0. -1.
         22    1    3    3    0    0  0.61831508714E+01  0.32813738182E+02  0.41799226943E+02  0.53499048040E+02  0.00000000000E+00 0. -1.
</event>
<event>
 7    1  0.5957303E-006  0.7843321E+02  0.7818608E-02  0.1336547E+00
          2   -1    0    0  502    0  0.00000000000E+00  0.00000000000E+00  0.47290250638E+02  0.47290250638E+02  0.00000000000E+00 0. -1.
          1   -1    0    0  501    0 -0.00000000000E+00 -0.00000000000E+00 -0.60917462978E+03  0.60917462978E+03  0.00000000000E+00 0. -1.
         25    2    1    2    0    0  0.76989964603E+01 -0.28393720759E+02 -0.13852733313E+03  0.18889245365E+03  0.12500023639E+03 0.  0.
          2    1    1    2  501    0  0.51436216962E+02  0.76787929882E+02 -0.34870694948E+03  0.36074728995E+03  0.00000000000E+00 0. -1.
          1    1    1    2  502    0 -0.59135213422E+02 -0.48394209123E+02 -0.74650096534E+02  0.10682513682E+03  0.00000000000E+00 0. -1.
         22    1    3    3    0    0  0.14588163779E+02  0.40961341023E+02 -0.10048607735E+03  0.10949017181E+03  0.00000000000E+00 0. -1.
         22    1    3    3    0    0 -0.68891673184E+01 -0.69355061782E+02 -0.38041255777E+02  0.79402281845E+02  0.00000000000E+00 0. -1.
</event>
<event>
 7    1  0.5957303E-006  0.1686264E+03  0.7818608E-02  0.1212618E+00
          2   -1    0    0  502    0  0.00000000000E+00  0.00000000000E+00  0.40379978366E+04  0.40379978366E+04  0.00000000000E+00 0. -1.
          1   -1    0    0  501    0 -0.00000000000E+00 -0.00000000000E+00 -0.17833440725E+02  0.17833440725E+02  0.00000000000E+00 0. -1.
         25    2    1    2    0    0 -0.86822667807E+02 -0.18609584441E+03  0.12139122972E+04  0.12374887186E+04  0.12500169711E+03 0.  0.
          2    1    1    2  501    0  0.98314531376E+02  0.69546655654E+02  0.20007725073E+04  0.20043934520E+04  0.00000000000E+00 0. -1.
          1    1    1    2  502    0 -0.11491863569E+02  0.11654918876E+03  0.80547959134E+03  0.81394910676E+03  0.00000000000E+00 0. -1.
         22    1    3    3    0    0 -0.14227473699E+02 -0.16382103557E+03  0.82082443513E+03  0.83713350548E+03  0.00000000000E+00 0. -1.
         22    1    3    3    0    0 -0.72595194108E+02 -0.22274808848E+02  0.39308786210E+03  0.40035521309E+03  0.00000000000E+00 0. -1.
</event>
<event>
 7    1  0.5957303E-006  0.2815647E+02  0.7818608E-02  0.1669990E+00
          2   -1    0    0  502    0  0.00000000000E+00  0.00000000000E+00  0.20618873923E+04  0.20618873923E+04  0.00000000000E+00 0. -1.
          1   -1    0    0  501    0 -0.00000000000E+00 -0.00000000000E+00 -0.16642162342E+03  0.16642162342E+03  0.00000000000E+00 0. -1.
         25    2    1    2    0    0  0.11256981346E+02 -0.10015732235E+02 -0.11255777985E+03  0.16888383862E+03  0.12500185048E+03 0.  0.
          2    1    1    2  501    0 -0.10799320783E+02 -0.18149489143E+02 -0.21247829900E+02  0.29958297031E+02  0.00000000000E+00 0. -1.
          1    1    1    2  502    0 -0.45766056322E+00  0.28165221377E+02  0.20292713786E+04  0.20294668800E+04  0.00000000000E+00 0. -1.
         22    1    3    3    0    0  0.11581894956E+02 -0.63847910740E+02 -0.88945444235E+02  0.11009990030E+03  0.00000000000E+00 0. -1.
         22    1    3    3    0    0 -0.32491360928E+00  0.53832178506E+02 -0.23612335611E+02  0.58783938321E+02  0.00000000000E+00 0. -1.
</event>
<event>
 7    1  0.5957303E-006  0.1724672E+03  0.7818608E-02  0.1190680E+00
          2   -1    0    0  502    0  0.00000000000E+00  0.00000000000E+00  0.27645089970E+04  0.27645089970E+04  0.00000000000E+00 0. -1.
          1   -1    0    0  501    0 -0.00000000000E+00 -0.00000000000E+00 -0.59404190616E+03  0.59404190616E+03  0.00000000000E+00 0. -1.
         25    2    1    2    0    0  0.78410063762E+02  0.27163711688E+03  0.89698205848E+03  0.94875220871E+03  0.12497631352E+03 0.  0.
          2    1    1    2  501    0 -0.91799809537E+02 -0.11251906069E+03 -0.55534172003E+03  0.57401408524E+03  0.00000000000E+00 0. -1.
          1    1    1    2  502    0  0.13389745775E+02 -0.15911805620E+03  0.18288267524E+04  0.18357846092E+04  0.00000000000E+00 0. -1.
         22    1    3    3    0    0  0.92559383092E+02  0.26533093627E+03  0.74932473532E+03  0.80028451448E+03  0.00000000000E+00 0.  1.
         22    1    3    3    0    0 -0.14149319330E+02  0.63061806070E+01  0.14765732315E+03  0.14846769424E+03  0.00000000000E+00 0.  1.
</event>
<event>
 7    1  0.5957303E-006  0.1873297E+03  0.7818608E-02  0.1313742E+00
          2   -1    0    0  502    0  0.00000000000E+00  0.00000000000E+00  0.11095691609E+04  0.11095691609E+04  0.00000000000E+00 0. -1.
          1   -1    0    0  501    0 -0.00000000000E+00 -0.00000000000E+00 -0.36035671390E+04  0.36035671390E+04  0.00000000000E+00 0. -1.
         25    2    1    2    0    0  0.16638540145E+03 -0.77512320233E+02 -0.50575417989E+03  0.55236231754E+03  0.12499831100E+03 0.  0.
          2    1    1    2  501    0 -0.15036509930E+03  0.11324588274E+03 -0.30712733847E+04  0.30770366421E+04  0.00000000000E+00 0. -1.
          1    1    1    2  502    0 -0.16020302142E+02 -0.35733562511E+02  0.10830295865E+04  0.10837373403E+04  0.00000000000E+00 0. -1.
         22    1    3    3    0    0  0.13633994029E+02 -0.36258867408E+02 -0.24667880538E+02  0.45924890736E+02  0.00000000000E+00 0. -1.
         22    1    3    3    0    0  0.15275140742E+03 -0.41253452825E+02 -0.48108629936E+03  0.50643742680E+03  0.00000000000E+00 0. -1.
</event>
<event>
 7    1  0.5957303E-006  0.1192437E+03  0.7818608E-02  0.1353968E+00
          2   -1    0    0  502    0  0.00000000000E+00  0.00000000000E+00  0.10469653527E+03  0.10469653527E+03  0.00000000000E+00 0. -1.
          1   -1    0    0  501    0 -0.00000000000E+00 -0.00000000000E+00 -0.17602812042E+04  0.17602812042E+04  0.00000000000E+00 0. -1.
         25    2    1    2    0    0  0.59398924562E+02  0.14479337014E+03 -0.28781279232E+03  0.35064907096E+03  0.12500086106E+03 0.  0.
          2    1    1    2  501    0 -0.22906803041E+02 -0.36712405233E+02 -0.13961146701E+04  0.13967851282E+04  0.00000000000E+00 0. -1.
          1    1    1    2  502    0 -0.36492121521E+02 -0.10808096490E+03  0.28342793540E+02  0.11754354024E+03  0.00000000000E+00 0. -1.
         22    1    3    3    0    0  0.71636973696E+02  0.51546393397E+02 -0.21271850193E+03  0.23029990824E+03  0.00000000000E+00 0.  1.
         22    1    3    3    0    0 -0.12238049134E+02  0.93246976740E+02 -0.75094290391E+02  0.12034916272E+03  0.00000000000E+00 0.  1.
</event>
<event>
 7    1  0.5957303E-006  0.4853153E+02  0.7818608E-02  0.1564479E+00
          2   -1    0    0  502    0  0.00000000000E+00  0.00000000000E+00  0.50577337620E+03  0.50577337620E+03  0.00000000000E+00 0. -1.
          1   -1    0    0  501    0 -0.00000000000E+00 -0.00000000000E+00 -0.84792141710E+02  0.84792141710E+02  0.00000000000E+00 0. -1.
         25    2    1    2    0    0 -0.28469808621E+02  0.88085915043E+00  0.21432472888E+03  0.24974389995E+03  0.12500248094E+03 0.  0.
          2    1    1    2  501    0 -0.22709627273E+02  0.21803575267E+01 -0.62651786138E+02  0.66676288410E+02  0.00000000000E+00 0. -1.
          1    1    1    2  502    0  0.51179435894E+02 -0.30612166771E+01  0.26930829175E+03  0.27414532954E+03  0.00000000000E+00 0. -1.
         22    1    3    3    0    0 -0.33147673367E+02 -0.24485575958E+02  0.82087198727E+01  0.42020170890E+02  0.00000000000E+00 0. -1.
         22    1    3    3    0    0  0.46778647468E+01  0.25366435108E+02  0.20611600900E+03  0.20772372906E+03  0.00000000000E+00 0. -1.
</event>
<event>
 7    1  0.5957303E-006  0.4818888E+02  0.7818608E-02  0.1471867E+00
          2   -1    0    0  502    0  0.00000000000E+00  0.00000000000E+00  0.54653578791E+03  0.54653578791E+03  0.00000000000E+00 0. -1.
          1   -1    0    0  501    0 -0.00000000000E+00 -0.00000000000E+00 -0.34684250329E+03  0.34684250329E+03  0.00000000000E+00 0. -1.
         25    2    1    2    0    0 -0.13906275709E+02  0.96792002917E+01  0.25379288539E+02  0.12867289313E+03  0.12500213485E+03 0.  0.
          2    1    1    2  501    0 -0.25130068580E+01 -0.49172393643E+02 -0.29215745264E+03  0.29627726310E+03  0.00000000000E+00 0. -1.
          1    1    1    2  502    0  0.16419282567E+02  0.39493193352E+02  0.46647144872E+03  0.46842813497E+03  0.00000000000E+00 0. -1.
         22    1    3    3    0    0 -0.27558015700E+02  0.62591253998E+02 -0.77331036586E-01  0.68389438413E+02  0.00000000000E+00 0.  1.
         22    1    3    3    0    0  0.13651739991E+02 -0.52912053706E+02  0.25456619576E+02  0.60283454715E+02  0.00000000000E+00 0.  1.
</event>
<event>
 7    1  0.5957303E-006  0.8924791E+02  0.7818608E-02  0.1415586E+00
          2   -1    0    0  502    0  0.00000000000E+00  0.00000000000E+00  0.39907884929E+03  0.39907884929E+03  0.00000000000E+00 0. -1.
          1   -1    0    0  501    0 -0.00000000000E+00 -0.00000000000E+00 -0.38828050106E+03  0.38828050106E+03  0.00000000000E+00 0. -1.
         25    2    1    2    0    0 -0.43847136710E+02 -0.50205900287E+02 -0.90240411144E+02  0.16796443709E+03  0.12500206599E+03 0.  0.
          2    1    1    2  501    0 -0.34675548850E+02  0.54104089645E+01 -0.25227226724E+03  0.25470171383E+03  0.00000000000E+00 0. -1.
          1    1    1    2  502    0  0.78522685559E+02  0.44795491322E+02  0.35331102660E+03  0.36469319943E+03  0.00000000000E+00 0. -1.
         22    1    3    3    0    0  0.36515127342E+02 -0.48123565454E+02 -0.47974500478E+02  0.77141329862E+02  0.00000000000E+00 0. -1.
         22    1    3    3    0    0 -0.80362264052E+02 -0.20823348334E+01 -0.42265910667E+02  0.90823107227E+02  0.00000000000E+00 0. -1.
</event>
<event>
 7    1  0.5957303E-006  0.1052618E+03  0.7818608E-02  0.1277749E+00
          2   -1    0    0  502    0  0.00000000000E+00  0.00000000000E+00  0.17681661413E+04  0.17681661413E+04  0.00000000000E+00 0. -1.
          1   -1    0    0  501    0 -0.00000000000E+00 -0.00000000000E+00 -0.59067897319E+03  0.59067897319E+03  0.00000000000E+00 0. -1.
         25    2    1    2    0    0 -0.50666412985E+02 -0.74111488969E+02  0.57175293225E+02  0.16417381772E+03  0.12499772025E+03 0.  0.
          2    1    1    2  501    0 -0.43454629533E+02  0.98918215447E+02 -0.53029887841E+03  0.54119314354E+03  0.00000000000E+00 0. -1.
          1    1    1    2  502    0  0.94121042518E+02 -0.24806726478E+02  0.16506107533E+04  0.16534781532E+04  0.00000000000E+00 0. -1.
         22    1    3    3    0    0  0.11907632436E+02 -0.88065497296E+02  0.24321734743E+02  0.92135065556E+02  0.00000000000E+00 0. -1.
         22    1    3    3    0    0 -0.62574045422E+02  0.13954008327E+02  0.32853558482E+02  0.72038752167E+02  0.00000000000E+00 0. -1.
</event>
<event>
 7    1  0.5957303E-006  0.1414547E+03  0.7818608E-02  0.1335370E+00
          2   -1    0    0  502    0  0.00000000000E+00  0.00000000000E+00  0.23996320192E+04  0.23996320192E+04  0.00000000000E+00 0. -1.
          1   -1    0    0  501    0 -0.00000000000E+00 -0.00000000000E+00 -0.10266331216E+03  0.10266331216E+03  0.00000000000E+00 0. -1.
         25    2    1    2    0    0 -0.80249413557E+02 -0.80972288803E+02  0.30556217697E+03  0.34926934502E+03  0.12499740574E+03 0.  0.
          2    1    1    2  501    0  0.44099316323E+01 -0.42578283011E+02 -0.72414149602E+02  0.84119954492E+02  0.00000000000E+00 0. -1.
          1    1    1    2  502    0  0.75839481925E+02  0.12355057181E+03  0.20638206797E+04  0.20689060319E+04  0.00000000000E+00 0. -1.
         22    1    3    3    0    0 -0.26694749203E+02 -0.56731152597E+02  0.27682368063E+03  0.28383513431E+03  0.00000000000E+00 0. -1.
         22    1    3    3    0    0 -0.53554664354E+02 -0.24241136206E+02  0.28738496338E+02  0.65434210704E+02  0.00000000000E+00 0. -1.
</event>
<event>
 7    1  0.5957303E-006  0.1426551E+03  0.7818608E-02  0.1332643E+00
          2   -1    0    0  502    0  0.00000000000E+00  0.00000000000E+00  0.54789565077E+03  0.54789565077E+03  0.00000000000E+00 0. -1.
          1   -1    0    0  501    0 -0.00000000000E+00 -0.00000000000E+00 -0.67476827762E+03  0.67476827762E+03  0.00000000000E+00 0. -1.
         25    2    1    2    0    0  0.10164752432E+03 -0.11595539612E+03  0.60849455345E+01  0.19859242891E+03  0.12499621262E+03 0.  0.
          2    1    1    2  501    0 -0.60121256824E+02  0.12880887842E+03 -0.56868470360E+03  0.58618135827E+03  0.00000000000E+00 0. -1.
          1    1    1    2  502    0 -0.41526267495E+02 -0.12853482303E+02  0.43572713121E+03  0.43789014122E+03  0.00000000000E+00 0. -1.
         22    1    3    3    0    0  0.73843921086E+02  0.29689153837E+01  0.17443153363E+02  0.75934200062E+02  0.00000000000E+00 0. -1.
         22    1    3    3    0    0  0.27803603234E+02 -0.11892431150E+03 -0.11358207829E+02  0.12265822885E+03  0.00000000000E+00 0. -1.
</event>
<event>
 7    1  0.5957303E-006  0.1067908E+03  0.7818608E-02  0.1359468E+00
          2   -1    0    0  502    0  0.00000000000E+00  0.00000000000E+00  0.27192696909E+03  0.27192696909E+03  0.00000000000E+00 0. -1.
          1   -1    0    0  501    0 -0.00000000000E+00 -0.00000000000E+00 -0.24546393291E+03  0.24546393291E+03  0.00000000000E+00 0. -1.
         25    2    1    2    0    0  0.26548942853E+02 -0.60115605841E+02 -0.70724198887E+02  0.15794212866E+03  0.12500028506E+03 0.  0.
          2    1    1    2  501    0  0.16531208698E+02 -0.43061487757E+02 -0.11262476340E+03  0.12170419023E+03  0.00000000000E+00 0. -1.
          1    1    1    2  502    0 -0.43080151551E+02  0.10317709360E+03  0.20981199847E+03  0.23774458312E+03  0.00000000000E+00 0. -1.
         22    1    3    3    0    0  0.51463003674E+02 -0.10238670765E+02  0.15987472896E+02  0.54853171429E+02  0.00000000000E+00 0. -1.
         22    1    3    3    0    0 -0.24914060821E+02 -0.49876935076E+02 -0.86711671783E+02  0.10308895723E+03  0.00000000000E+00 0. -1.
</event>
<event>
 7    1  0.5957303E-006  0.1902581E+03  0.7818608E-02  0.1171433E+00
          2   -1    0    0  502    0  0.00000000000E+00  0.00000000000E+00  0.17774769462E+04  0.17774769462E+04  0.00000000000E+00 0. -1.
          1   -1    0    0  501    0 -0.00000000000E+00 -0.00000000000E+00 -0.83435650173E+03  0.83435650173E+03  0.00000000000E+00 0. -1.
         25    2    1    2    0    0  0.87950885850E+02  0.65360424184E+02  0.35857556204E+03  0.39523317180E+03  0.12500193210E+03 0.  0.
          2    1    1    2  501    0  0.15706654111E+03 -0.44928887646E+02 -0.79688649525E+03  0.81345964226E+03  0.00000000000E+00 0. -1.
          1    1    1    2  502    0 -0.24501742696E+03 -0.20431536538E+02  0.13814313776E+04  0.14031406338E+04  0.00000000000E+00 0. -1.
         22    1    3    3    0    0  0.52600813231E+02  0.30611233442E+02  0.40008197923E+02  0.72832335308E+02  0.00000000000E+00 0.  1.
         22    1    3    3    0    0  0.35350072619E+02  0.34749190742E+02  0.31856736411E+03  0.32240083649E+03  0.00000000000E+00 0.  1.
</event>
<event>
 7    1  0.5957303E-006  0.1016192E+03  0.7818608E-02  0.1331220E+00
          2   -1    0    0  502    0  0.00000000000E+00  0.00000000000E+00  0.16915310972E+04  0.16915310972E+04  0.00000000000E+00 0. -1.
          1   -1    0    0  501    0 -0.00000000000E+00 -0.00000000000E+00 -0.80023769097E+02  0.80023769097E+02  0.00000000000E+00 0. -1.
         25    2    1    2    0    0  0.32799381988E+02 -0.78759785801E+02  0.43070791015E+03  0.45652411237E+03  0.12500423188E+03 0.  0.
          2    1    1    2  501    0  0.24602657848E+02  0.10163104672E+03 -0.25110107004E+02  0.10753919241E+03  0.00000000000E+00 0. -1.
          1    1    1    2  502    0 -0.57402039835E+02 -0.22871260922E+02  0.12059095249E+04  0.12074915615E+04  0.00000000000E+00 0. -1.
         22    1    3    3    0    0  0.60137235390E+02 -0.67271478565E+01  0.28858382713E+03  0.29485991060E+03  0.00000000000E+00 0.  1.
         22    1    3    3    0    0 -0.27337853402E+02 -0.72032637945E+02  0.14212408302E+03  0.16166420177E+03  0.00000000000E+00 0.  1.
</event>
<event>
 7    1  0.5957303E-006  0.3851249E+02  0.7818608E-02  0.1522899E+00
          2   -1    0    0  502    0  0.00000000000E+00  0.00000000000E+00  0.15743386855E+03  0.15743386855E+03  0.00000000000E+00 0. -1.
          1   -1    0    0  501    0 -0.00000000000E+00 -0.00000000000E+00 -0.18361811068E+04  0.18361811068E+04  0.00000000000E+00 0. -1.
         25    2    1    2    0    0 -0.20433703289E+02  0.83694702705E+01 -0.48794420730E+03  0.50418445249E+03  0.12499931369E+03 0.  0.
          2    1    1    2  501    0  0.24548021656E+02  0.29922624590E+02 -0.13373487627E+04  0.13379086972E+04  0.00000000000E+00 0. -1.
          1    1    1    2  502    0 -0.41143183671E+01 -0.38292094861E+02  0.14654573180E+03  0.15152182567E+03  0.00000000000E+00 0. -1.
         22    1    3    3    0    0 -0.14438488718E+02  0.62030072313E+02 -0.35544969224E+03  0.36111034815E+03  0.00000000000E+00 0.  1.
         22    1    3    3    0    0 -0.59952145715E+01 -0.53660602042E+02 -0.13249451506E+03  0.14307410433E+03  0.00000000000E+00 0.  1.
</event>
<event>
 7    1  0.5957303E-006  0.6081215E+02  0.7818608E-02  0.1520163E+00
          2   -1    0    0  502    0  0.00000000000E+00  0.00000000000E+00  0.14451094795E+04  0.14451094795E+04  0.00000000000E+00 0. -1.
          1   -1    0    0  501    0 -0.00000000000E+00 -0.00000000000E+00 -0.28604066370E+03  0.28604066370E+03  0.00000000000E+00 0. -1.
         25    2    1    2    0    0 -0.39303870490E+02 -0.69243348547E+02  0.99099570537E+01  0.14853787787E+03  0.12500343339E+03 0.  0.
          2    1    1    2  501    0  0.18319200268E+02  0.57041186271E+02 -0.21247611516E+03  0.22076093301E+03  0.00000000000E+00 0. -1.
          1    1    1    2  502    0  0.20984670222E+02  0.12202162276E+02  0.13616349739E+04  0.13618513323E+04  0.00000000000E+00 0. -1.
         22    1    3    3    0    0 -0.82637649522E+02 -0.64029271209E+02  0.81037198608E+01  0.10485417953E+03  0.00000000000E+00 0.  1.
         22    1    3    3    0    0  0.43333779032E+02 -0.52140773380E+01  0.18062371929E+01  0.43683698338E+02  0.00000000000E+00 0.  1.
</event>
<event>
 7    1  0.5957303E-006  0.5227787E+02  0.7818608E-02  0.1484569E+00
          2   -1    0    0  502    0  0.00000000000E+00  0.00000000000E+00  0.18802927503E+02  0.18802927503E+02  0.00000000000E+00 0. -1.
          1   -1    0    0  501    0 -0.00000000000E+00 -0.00000000000E+00 -0.15505895749E+04  0.15505895749E+04  0.00000000000E+00 0. -1.
         25    2    1    2    0    0  0.76845585028E+02  0.26859510684E+02 -0.79886165097E+03  0.81267004623E+03  0.12500395758E+03 0.  0.
          2    1    1    2  501    0 -0.26426665177E+02 -0.24496320413E+02 -0.68861831799E+03  0.68956045871E+03  0.00000000000E+00 0. -1.
          1    1    1    2  502    0 -0.50418919851E+02 -0.23631902704E+01 -0.44306678423E+02  0.67161997440E+02  0.00000000000E+00 0. -1.
         22    1    3    3    0    0  0.51295284266E+02 -0.39178448801E+02 -0.55486756085E+03  0.55860913627E+03  0.00000000000E+00 0. -1.
         22    1    3    3    0    0  0.25550300762E+02  0.66037959484E+02 -0.24399409011E+03  0.25406090996E+03  0.00000000000E+00 0. -1.
</event>
<event>
 7    1  0.5957303E-006  0.1321228E+03  0.7818608E-02  0.1263725E+00
          2   -1    0    0  502    0  0.00000000000E+00  0.00000000000E+00  0.21624264542E+04  0.21624264542E+04  0.00000000000E+00 0. -1.
          1   -1    0    0  501    0 -0.00000000000E+00 -0.00000000000E+00 -0.12167675269E+04  0.12167675269E+04  0.00000000000E+00 0. -1.
         25    2    1    2    0    0  0.11793018161E+03 -0.14518304055E+03  0.14903961212E+04  0.15072794023E+04  0.12499982237E+03 0.  0.
          2    1    1    2  501    0 -0.32061689916E+02  0.82804809351E+02 -0.12024345643E+04  0.12057087002E+04  0.00000000000E+00 0. -1.
          1    1    1    2  502    0 -0.85868491698E+02  0.62378231200E+02  0.65769737042E+03  0.66620587858E+03  0.00000000000E+00 0. -1.
         22    1    3    3    0    0  0.81496635098E+02 -0.10414767275E+03  0.56550818212E+03  0.58076496392E+03  0.00000000000E+00 0. -1.
         22    1    3    3    0    0  0.36433546516E+02 -0.41035367798E+02  0.92488793903E+03  0.92651443836E+03  0.00000000000E+00 0. -1.
</event>
<event>
 7    1  0.5957303E-006  0.1885847E+03  0.7818608E-02  0.1233396E+00
          2   -1    0    0  502    0  0.00000000000E+00  0.00000000000E+00  0.25156366913E+03  0.25156366913E+03  0.00000000000E+00 0. -1.
          1   -1    0    0  501    0 -0.00000000000E+00 -0.00000000000E+00 -0.80959626514E+03  0.80959626514E+03  0.00000000000E+00 0. -1.
         25    2    1    2    0    0  0.12449709700E+03 -0.94413076869E+02 -0.39715373182E+03  0.44469978538E+03  0.12495381615E+03 0.  0.
          2    1    1    2  501    0 -0.19453355021E+03  0.14130976326E+03 -0.34120256510E+03  0.41740980077E+03  0.00000000000E+00 0. -1.
          1    1    1    2  502    0  0.70036453211E+02 -0.46896686391E+02  0.18032370092E+03  0.19905034812E+03  0.00000000000E+00 0. -1.
         22    1    3    3    0    0 -0.25695671116E+02 -0.12018558256E+02 -0.66694902472E+02  0.72477053420E+02  0.00000000000E+00 0.  1.
         22    1    3    3    0    0  0.15019276811E+03 -0.82394518613E+02 -0.33045882935E+03  0.37222273196E+03  0.00000000000E+00 0.  1.
</event>
<event>
 7    1  0.5957303E-006  0.6893361E+02  0.7818608E-02  0.1372591E+00
          2   -1    0    0  502    0  0.00000000000E+00  0.00000000000E+00  0.29418943498E+03  0.29418943498E+03  0.00000000000E+00 0. -1.
          1   -1    0    0  501    0 -0.00000000000E+00 -0.00000000000E+00 -0.15927863018E+03  0.15927863018E+03  0.00000000000E+00 0. -1.
         25    2    1    2    0    0  0.26615418400E+02 -0.16023807127E+02  0.14746630470E+03  0.19579565431E+03  0.12499793731E+03 0.  0.
          2    1    1    2  501    0 -0.61628623266E+02 -0.37621143916E+02 -0.11562471518E+03  0.13631768937E+03  0.00000000000E+00 0. -1.
          1    1    1    2  502    0  0.35013204866E+02  0.53644951043E+02  0.10306921528E+03  0.12135472148E+03  0.00000000000E+00 0. -1.
         22    1    3    3    0    0 -0.37642175450E+02  0.24275603504E+02  0.23799529279E+02  0.50721355384E+02  0.00000000000E+00 0. -1.
         22    1    3    3    0    0  0.64257593849E+02 -0.40299410631E+02  0.12366677543E+03  0.14507429893E+03  0.00000000000E+00 0. -1.
</event>
<event>
 7    1  0.5957303E-006  0.4115716E+02  0.7818608E-02  0.1555927E+00
          2   -1    0    0  502    0  0.00000000000E+00  0.00000000000E+00  0.10536161658E+04  0.10536161658E+04  0.00000000000E+00 0. -1.
          1   -1    0    0  501    0 -0.00000000000E+00 -0.00000000000E+00 -0.24292621118E+02  0.24292621118E+02  0.00000000000E+00 0. -1.
         25    2    1    2    0    0 -0.50186666356E+01 -0.25374794364E+02  0.20751421857E+03  0.24363216951E+03  0.12500166360E+03 0.  0.
          2    1    1    2  501    0 -0.28398899651E+02  0.22721799211E+00  0.29805701369E+02  0.41169514978E+02  0.00000000000E+00 0. -1.
          1    1    1    2  502    0  0.33417566287E+02  0.25147576372E+02  0.79200362477E+03  0.79310710246E+03  0.00000000000E+00 0. -1.
         22    1    3    3    0    0 -0.71516877466E+01 -0.69735478987E+02  0.69765772272E+02  0.98901196392E+02  0.00000000000E+00 0. -1.
         22    1    3    3    0    0  0.21330211110E+01  0.44360684623E+02  0.13774844630E+03  0.14473097311E+03  0.00000000000E+00 0. -1.
</event>
<event>
 7    1  0.5957303E-006  0.1716203E+03  0.7818608E-02  0.1220907E+00
          2   -1    0    0  502    0  0.00000000000E+00  0.00000000000E+00  0.11700746284E+04  0.11700746284E+04  0.00000000000E+00 0. -1.
          1   -1    0    0  501    0 -0.00000000000E+00 -0.00000000000E+00 -0.28859585618E+03  0.28859585618E+03  0.00000000000E+00 0. -1.
         25    2    1    2    0    0 -0.51883694442E+02 -0.72031625207E+02 -0.20250403673E+02  0.15464071955E+03  0.12499280186E+03 0.  0.
          2    1    1    2  501    0 -0.10417963287E+03 -0.16195584903E+02 -0.17942744783E+03  0.20811031188E+03  0.00000000000E+00 0. -1.
          1    1    1    2  502    0  0.15606332731E+03  0.88227210110E+02  0.10811566238E+04  0.10959194532E+04  0.00000000000E+00 0. -1.
         22    1    3    3    0    0  0.16482973005E+01 -0.94473925330E+02 -0.20061224342E+02  0.96594472789E+02  0.00000000000E+00 0.  1.
         22    1    3    3    0    0 -0.53531991743E+02  0.22442300123E+02 -0.18917933076E+00  0.58046246766E+02  0.00000000000E+00 0.  1.
</event>
<event>
 7    1  0.5957303E-006  0.8076527E+02  0.7818608E-02  0.1347973E+00
          2   -1    0    0  502    0  0.00000000000E+00  0.00000000000E+00  0.24796312069E+03  0.24796312069E+03  0.00000000000E+00 0. -1.
          1   -1    0    0  501    0 -0.00000000000E+00 -0.00000000000E+00 -0.33317031207E+03  0.33317031207E+03  0.00000000000E+00 0. -1.
         25    2    1    2    0    0  0.26986493074E+02  0.65278628988E+02 -0.12829376680E+03  0.19254546278E+03  0.12499957770E+03 0.  0.
          2    1    1    2  501    0  0.52315631635E+02 -0.42235480591E+02 -0.15772525732E+03  0.17145850206E+03  0.00000000000E+00 0. -1.
          1    1    1    2  502    0 -0.79302124708E+02 -0.23043148397E+02  0.20081183273E+03  0.21712946791E+03  0.00000000000E+00 0. -1.
         22    1    3    3    0    0  0.77108718256E+02  0.32818300377E+02 -0.72159891869E+02  0.11058863081E+03  0.00000000000E+00 0. -1.
         22    1    3    3    0    0 -0.50122225182E+02  0.32460328611E+02 -0.56133874930E+02  0.81956831963E+02  0.00000000000E+00 0. -1.
</event>
<event>
 7    1  0.5957303E-006  0.7282287E+02  0.7818608E-02  0.1385932E+00
          2   -1    0    0  502    0  0.00000000000E+00  0.00000000000E+00  0.76156928251E+03  0.76156928251E+03  0.00000000000E+00 0. -1.
          1   -1    0    0  501    0 -0.00000000000E+00 -0.00000000000E+00 -0.84969761730E+02  0.84969761730E+02  0.00000000000E+00 0. -1.
         25    2    1    2    0    0  0.68961863920E+02  0.19568266874E+02  0.23832822771E+03  0.27850452183E+03  0.12500307520E+03 0.  0.
          2    1    1    2  501    0 -0.37836061043E+02 -0.64160316235E+02 -0.41449114288E+02  0.85241672730E+02  0.00000000000E+00 0. -1.
          1    1    1    2  502    0 -0.31125802878E+02  0.44592049360E+02  0.47972040735E+03  0.48279284968E+03  0.00000000000E+00 0. -1.
         22    1    3    3    0    0  0.87328843405E+02  0.22804697723E+02  0.24304876870E+03  0.25926643650E+03  0.00000000000E+00 0. -1.
         22    1    3    3    0    0 -0.18366979484E+02 -0.32364308487E+01 -0.47205409843E+01  0.19238085331E+02  0.00000000000E+00 0. -1.
</event>
<event>
 7    1  0.5957303E-006  0.8272955E+02  0.7818608E-02  0.1357084E+00
          2   -1    0    0  502    0  0.00000000000E+00  0.00000000000E+00  0.10684982586E+03  0.10684982586E+03  0.00000000000E+00 0. -1.
          1   -1    0    0  501    0 -0.00000000000E+00 -0.00000000000E+00 -0.53108796664E+03  0.53108796664E+03  0.00000000000E+00 0. -1.
         25    2    1    2    0    0 -0.58656092797E+02  0.57635953202E+02 -0.35355854904E+03  0.38391040811E+03  0.12498445316E+03 0.  0.
          2    1    1    2  501    0  0.93102417977E+02 -0.75971045169E+01 -0.13589336861E+03  0.16490234644E+03  0.00000000000E+00 0. -1.
          1    1    1    2  502    0 -0.34446325180E+02 -0.50038848685E+02  0.65213776872E+02  0.89125037952E+02  0.00000000000E+00 0. -1.
         22    1    3    3    0    0 -0.19302749685E+01  0.80602438608E+02 -0.13793493284E+03  0.15977022491E+03  0.00000000000E+00 0. -1.
         22    1    3    3    0    0 -0.56725817829E+02 -0.22966485406E+02 -0.21562361620E+03  0.22414018320E+03  0.00000000000E+00 0. -1.
</event>
<event>
 7    1  0.5957303E-006  0.9376366E+02  0.7818608E-02  0.1300956E+00
          2   -1    0    0  502    0  0.00000000000E+00  0.00000000000E+00  0.79172805692E+03  0.79172805692E+03  0.00000000000E+00 0. -1.
          1   -1    0    0  501    0 -0.00000000000E+00 -0.00000000000E+00 -0.69827401532E+02  0.69827401532E+02  0.00000000000E+00 0. -1.
         25    2    1    2    0    0 -0.17081124018E+02  0.36215795305E+02  0.21220849091E+03  0.24952134637E+03  0.12500044023E+03 0.  0.
          2    1    1    2  501    0  0.76974542524E+02  0.53540110934E+02  0.28224598116E+01  0.93806129624E+02  0.00000000000E+00 0. -1.
          1    1    1    2  502    0 -0.59893418506E+02 -0.89755906240E+02  0.50686970467E+03  0.51822798245E+03  0.00000000000E+00 0. -1.
         22    1    3    3    0    0 -0.14741499335E+02 -0.34636145208E+02  0.15175616489E+03  0.15635507008E+03  0.00000000000E+00 0. -1.
         22    1    3    3    0    0 -0.23396246824E+01  0.70851940513E+02  0.60452326018E+02  0.93166276297E+02  0.00000000000E+00 0. -1.
</event>
<event>
 7    1  0.5957303E-006  0.1743552E+03  0.7818608E-02  0.1389623E+00
          2   -1    0    0  502    0  0.00000000000E+00  0.00000000000E+00  0.68427258899E+03  0.68427258899E+03  0.00000000000E+00 0. -1.
          1   -1    0    0  501    0 -0.00000000000E+00 -0.00000000000E+00 -0.36865639546E+03  0.36865639546E+03  0.00000000000E+00 0. -1.
         25    2    1    2    0    0  0.16877999028E+03  0.87321287247E+02  0.49276496230E+03  0.54272734079E+03  0.12499586412E+03 0.  0.
          2    1    1    2  501    0 -0.16028381895E+03 -0.66976649814E+02 -0.32082898292E+03  0.36483970524E+03  0.00000000000E+00 0. -1.
          1    1    1    2  502    0 -0.84961713320E+01 -0.20344637433E+02  0.14368021415E+03  0.14536193841E+03  0.00000000000E+00 0. -1.
         22    1    3    3    0    0  0.78576554084E+02  0.97506285007E+02  0.36585790240E+03  0.38669594673E+03  0.00000000000E+00 0. -1.
         22    1    3    3    0    0  0.90203436199E+02 -0.10184997760E+02  0.12690705990E+03  0.15603139407E+03  0.00000000000E+00 0. -1.
</event>
<event>
 7    1  0.5957303E-006  0.6033231E+02  0.7818608E-02  0.1410918E+00
          2   -1    0    0  502    0  0.00000000000E+00  0.00000000000E+00  0.26180962754E+04  0.26180962754E+04  0.00000000000E+00 0. -1.
          1   -1    0    0  501    0 -0.00000000000E+00 -0.00000000000E+00 -0.31450866255E+02  0.31450866255E+02  0.00000000000E+00 0. -1.
         25    2    1    2    0    0  0.95464262648E+01 -0.14698529163E+01  0.48614851378E+03  0.50205444675E+03  0.12499998132E+03 0.  0.
          2    1    1    2  501    0  0.51354938229E+02 -0.16141322648E+02  0.84566354841E+01  0.54492078884E+02  0.00000000000E+00 0. -1.
          1    1    1    2  502    0 -0.60901364494E+02  0.17611175564E+02  0.20920402599E+04  0.20930006160E+04  0.00000000000E+00 0. -1.
         22    1    3    3    0    0  0.13452607874E+02  0.61110795676E+02  0.23299376983E+03  0.24125007520E+03  0.00000000000E+00 0.  1.
         22    1    3    3    0    0 -0.39061816096E+01 -0.62580648592E+02  0.25315474395E+03  0.26080437154E+03  0.00000000000E+00 0.  1.
</event>
<event>
 7    1  0.5957303E-006  0.1593106E+03  0.7818608E-02  0.1359348E+00
          2   -1    0    0  502    0  0.00000000000E+00  0.00000000000E+00  0.10060811927E+04  0.10060811927E+04  0.00000000000E+00 0. -1.
          1   -1    0    0  501    0 -0.00000000000E+00 -0.00000000000E+00 -0.51710650463E+03  0.51710650463E+03  0.00000000000E+00 0. -1.
         25    2    1    2    0    0 -0.59802321500E+02 -0.17770366514E+03 -0.22831934965E+03  0.32079489060E+03  0.12499890458E+03 0.  0.
          2    1    1    2  501    0 -0.45707363960E+00  0.30947429017E+02 -0.23497222173E+03  0.23700189295E+03  0.00000000000E+00 0. -1.
          1    1    1    2  502    0  0.60259395140E+02  0.14675623613E+03  0.95226625949E+03  0.96539091383E+03  0.00000000000E+00 0. -1.
         22    1    3    3    0    0 -0.12693594356E+02 -0.12562468294E+02  0.14763211624E+02  0.23171002671E+02  0.00000000000E+00 0. -1.
         22    1    3    3    0    0 -0.47108727144E+02 -0.16514119685E+03 -0.24308256127E+03  0.29762388793E+03  0.00000000000E+00 0. -1.
</event>
<event>
 7    1  0.5957303E-006  0.1265366E+03  0.7818608E-02  0.1329232E+00
          2   -1    0    0  502    0  0.00000000000E+00  0.00000000000E+00  0.74595432260E+03  0.74595432260E+03  0.00000000000E+00 0. -1.
          1   -1    0    0  501    0 -0.00000000000E+00 -0.00000000000E+00 -0.39390731869E+03  0.39390731869E+03  0.00000000000E+00 0. -1.
         25    2    1    2    0    0 -0.10379663592E+03 -0.90510213884E+02 -0.14602702944E+03  0.23646111564E+03  0.12499650169E+03 0.  0.
          2    1    1    2  501    0  0.45565469554E+02 -0.21767512342E+02 -0.19369225296E+03  0.20016674416E+03  0.00000000000E+00 0. -1.
          1    1    1    2  502    0  0.58231166367E+02  0.11227772623E+03  0.69176628632E+03  0.70323378149E+03  0.00000000000E+00 0. -1.
         22    1    3    3    0    0 -0.88015546165E+01 -0.87057386615E+02 -0.47535441213E+02  0.99579486337E+02  0.00000000000E+00 0. -1.
         22    1    3    3    0    0 -0.94995081305E+02 -0.34528272696E+01 -0.98491588232E+02  0.13688162930E+03  0.00000000000E+00 0. -1.
</event>
<event>
 7    1  0.5957303E-006  0.4713050E+02  0.7818608E-02  0.1488300E+00
          2   -1    0    0  502    0  0.00000000000E+00  0.00000000000E+00  0.21080250790E+04  0.21080250790E+04  0.00000000000E+00 0. -1.
          1   -1    0    0  501    0 -0.00000000000E+00 -0.00000000000E+00 -0.26591176661E+02  0.26591176661E+02  0.00000000000E+00 0. -1.
         25    2    1    2    0    0  0.20600904676E+02 -0.27083807291E+02  0.74620090629E+03  0.75736236192E+03  0.12499609923E+03 0.  0.
          2    1    1    2  501    0  0.28600412244E+02  0.26424194287E+02 -0.21196412491E+01  0.38996339613E+02  0.00000000000E+00 0. -1.
          1    1    1    2  502    0 -0.49201316920E+02  0.65961300398E+00  0.13373526373E+04  0.13382575541E+04  0.00000000000E+00 0. -1.
         22    1    3    3    0    0 -0.12257929749E+02  0.72349736825E+01  0.56903782499E+01  0.15329125564E+02  0.00000000000E+00 0.  1.
         22    1    3    3    0    0  0.32858834426E+02 -0.34318780973E+02  0.74051052804E+03  0.74203323636E+03  0.00000000000E+00 0.  1.
</event>
<event>
 7    1  0.5957303E-006  0.1213165E+03  0.7818608E-02  0.1334010E+00
          2   -1    0    0  502    0  0.00000000000E+00  0.00000000000E+00  0.23346957415E+04  0.23346957415E+04  0.00000000000E+00 0. -1.
          1   -1    0    0  501    0 -0.00000000000E+00 -0.00000000000E+00 -0.32455661781E+04  0.32455661781E+04  0.00000000000E+00 0. -1.
         25    2    1    2    0    0 -0.39249817718E+02  0.66169449974E+02  0.94211399049E+02  0.17441229607E+03  0.12499966803E+03 0.  0.
          2    1    1    2  501    0 -0.44026055626E+02  0.24754614193E+02 -0.32035392974E+04  0.32039374392E+04  0.00000000000E+00 0. -1.
          1    1    1    2  502    0  0.83275873344E+02 -0.90924064166E+02  0.21984574617E+04  0.22019121843E+04  0.00000000000E+00 0. -1.
         22    1    3    3    0    0 -0.13428022252E+02  0.70793591433E+02 -0.45762440920E+01  0.72201013702E+02  0.00000000000E+00 0. -1.
         22    1    3    3    0    0 -0.25821795466E+02 -0.46241414596E+01  0.98787643141E+02  0.10221128236E+03  0.00000000000E+00 0. -1.
</event>
<event>
 7    1  0.5957303E-006  0.5504692E+03  0.7818608E-02  0.1246511E+00
          2   -1    0    0  502    0  0.00000000000E+00  0.00000000000E+00  0.33391136622E+04  0.33391136622E+04  0.00000000000E+00 0. -1.
          1   -1    0    0  501    0 -0.00000000000E+00 -0.00000000000E+00 -0.11790105322E+04  0.11790105322E+04  0.00000000000E+00 0. -1.
         25    2    1    2    0    0  0.23105094382E+03  0.50508174487E+03 -0.93706651045E+02  0.57697323149E+03  0.12500026305E+03 0.  0.
          2    1    1    2  501    0  0.19942782077E+02 -0.15527852414E+02 -0.81904611931E+03  0.81943600990E+03  0.00000000000E+00 0. -1.
          1    1    1    2  502    0 -0.25099372589E+03 -0.48955389245E+03  0.30728559003E+04  0.31217149531E+04  0.00000000000E+00 0. -1.
         22    1    3    3    0    0  0.30096983688E+02  0.17985596046E+03 -0.65002745649E+02  0.19359584676E+03  0.00000000000E+00 0. -1.
         22    1    3    3    0    0  0.20095396013E+03  0.32522578441E+03 -0.28703905396E+02  0.38337738473E+03  0.00000000000E+00 0. -1.
</event>
<event>
 7    1  0.5957303E-006  0.1299846E+03  0.7818608E-02  0.1275894E+00
          2   -1    0    0  502    0  0.00000000000E+00  0.00000000000E+00  0.93824983513E+03  0.93824983513E+03  0.00000000000E+00 0. -1.
          1   -1    0    0  501    0 -0.00000000000E+00 -0.00000000000E+00 -0.40788252311E+03  0.40788252311E+03  0.00000000000E+00 0. -1.
         25    2    1    2    0    0 -0.64374851213E+02 -0.41770136974E+02  0.74950272562E+02  0.16471787819E+03  0.12500228089E+03 0.  0.
          2    1    1    2  501    0  0.61957376282E+02  0.12196722910E+03 -0.34804034270E+03  0.37396096267E+03  0.00000000000E+00 0. -1.
          1    1    1    2  502    0  0.24174749305E+01 -0.80197092122E+02  0.80345738217E+03  0.80745351738E+03  0.00000000000E+00 0. -1.
         22    1    3    3    0    0 -0.46669843072E+02 -0.74446658607E+02  0.81087610339E+01  0.88239057314E+02  0.00000000000E+00 0.  1.
         22    1    3    3    0    0 -0.17705008140E+02  0.32676521633E+02  0.66841511528E+02  0.76478820876E+02  0.00000000000E+00 0.  1.
</event>
<event>
 7    1  0.5957303E-006  0.1543148E+03  0.7818608E-02  0.1231644E+00
          2   -1    0    0  502    0  0.00000000000E+00  0.00000000000E+00  0.19527028513E+03  0.19527028513E+03  0.00000000000E+00 0. -1.
          1   -1    0    0  501    0 -0.00000000000E+00 -0.00000000000E+00 -0.32274567709E+04  0.32274567709E+04  0.00000000000E+00 0. -1.
         25    2    1    2    0    0  0.35443560445E+02  0.17023669869E+03 -0.95319195369E+03  0.97695295157E+03  0.12500155775E+03 0.  0.
          2    1    1    2  501    0  0.80295564351E+02 -0.67469677040E+02 -0.22282717383E+04  0.22307385491E+04  0.00000000000E+00 0. -1.
          1    1    1    2  502    0 -0.11573912480E+03 -0.10276702165E+03  0.14927720623E+03  0.21503555530E+03  0.00000000000E+00 0. -1.
         22    1    3    3    0    0  0.13365235306E+01  0.12888994303E+01  0.39773850161E+01  0.43894360065E+01  0.00000000000E+00 0.  1.
         22    1    3    3    0    0  0.34107036914E+02  0.16894779925E+03 -0.95716933871E+03  0.97256351556E+03  0.00000000000E+00 0.  1.
</event>
<event>
 7    1  0.5957303E-006  0.3872107E+02  0.7818608E-02  0.1601071E+00
          2   -1    0    0  502    0  0.00000000000E+00  0.00000000000E+00  0.53043863777E+03  0.53043863777E+03  0.00000000000E+00 0. -1.
          1   -1    0    0  501    0 -0.00000000000E+00 -0.00000000000E+00 -0.36753228536E+03  0.36753228536E+03  0.00000000000E+00 0. -1.
         25    2    1    2    0    0 -0.17929948521E+02  0.15186435867E+02 -0.13090921139E+03  0.18252124015E+03  0.12499868235E+03 0.  0.
          2    1    1    2  501    0  0.39380022530E+02 -0.73708844702E+01 -0.20865208916E+03  0.21246366848E+03  0.00000000000E+00 0. -1.
          1    1    1    2  502    0 -0.21450074009E+02 -0.78155513964E+01  0.50246765296E+03  0.50298601451E+03  0.00000000000E+00 0. -1.
         22    1    3    3    0    0  0.34126568379E+02  0.42043965478E+02 -0.21198682979E+02  0.58152402035E+02  0.00000000000E+00 0. -1.
         22    1    3    3    0    0 -0.52056516900E+02 -0.26857529611E+02 -0.10971052841E+03  0.12436883811E+03  0.00000000000E+00 0. -1.
</event>
<event>
 7    1  0.5957303E-006  0.5009649E+02  0.7818608E-02  0.1544131E+00
          2   -1    0    0  502    0  0.00000000000E+00  0.00000000000E+00  0.10264638878E+04  0.10264638878E+04  0.00000000000E+00 0. -1.
          1   -1    0    0  501    0 -0.00000000000E+00 -0.00000000000E+00 -0.55176751303E+03  0.55176751303E+03  0.00000000000E+00 0. -1.
         25    2    1    2    0    0  0.16750518338E+02 -0.69829363615E+02 -0.11168479218E+02  0.14459246901E+03  0.12500210910E+03 0.  0.
          2    1    1    2  501    0 -0.21036148318E+02  0.45028384903E+02 -0.47241826235E+03  0.47502535678E+03  0.00000000000E+00 0. -1.
          1    1    1    2  502    0  0.42856299800E+01  0.24800978712E+02  0.95828311635E+03  0.95861357504E+03  0.00000000000E+00 0. -1.
         22    1    3    3    0    0  0.56550384955E+02 -0.72067405440E+02 -0.35097125272E+02  0.98099261811E+02  0.00000000000E+00 0.  1.
         22    1    3    3    0    0 -0.39799866617E+02  0.22380418253E+01  0.23928646055E+02  0.46493207202E+02  0.00000000000E+00 0.  1.
</event>
<event>
 7    1  0.5957303E-006  0.5778355E+02  0.7818608E-02  0.1436958E+00
          2   -1    0    0  502    0  0.00000000000E+00  0.00000000000E+00  0.36121566397E+03  0.36121566397E+03  0.00000000000E+00 0. -1.
          1   -1    0    0  501    0 -0.00000000000E+00 -0.00000000000E+00 -0.70236116744E+02  0.70236116744E+02  0.00000000000E+00 0. -1.
         25    2    1    2    0    0  0.32147474570E+02 -0.30761196119E+02  0.26909809388E+03  0.30002968847E+03  0.12499727408E+03 0.  0.
          2    1    1    2  501    0 -0.48230007060E+02 -0.31824598840E+02 -0.11150830527E+02  0.58849636309E+02  0.00000000000E+00 0. -1.
          1    1    1    2  502    0  0.16082532489E+02  0.62585794960E+02  0.33032283873E+02  0.72572455931E+02  0.00000000000E+00 0. -1.
         22    1    3    3    0    0  0.20042421063E+02  0.18287782493E+02  0.24040166092E+03  0.24192788223E+03  0.00000000000E+00 0.  1.
         22    1    3    3    0    0  0.12105053507E+02 -0.49048978612E+02  0.28696432960E+02  0.58101806236E+02  0.00000000000E+00 0.  1.
</event>
<event>
 7    1  0.5957303E-006  0.8655339E+02  0.7818608E-02  0.1454103E+00
          2   -1    0    0  502    0  0.00000000000E+00  0.00000000000E+00  0.50016686760E+03  0.50016686760E+03  0.00000000000E+00 0. -1.
          1   -1    0    0  501    0 -0.00000000000E+00 -0.00000000000E+00 -0.28964669137E+03  0.28964669137E+03  0.00000000000E+00 0. -1.
         25    2    1    2    0    0 -0.10817432235E+03 -0.25258315311E+02  0.27179577675E+02  0.16941989792E+03  0.12499882343E+03 0.  0.
          2    1    1    2  501    0  0.24161925617E+02  0.12223104350E+02 -0.21316395322E+03  0.21487688075E+03  0.00000000000E+00 0. -1.
          1    1    1    2  502    0  0.84012396734E+02  0.13035210961E+02  0.39650455178E+03  0.40551678031E+03  0.00000000000E+00 0. -1.
         22    1    3    3    0    0 -0.80377371943E+02 -0.50358855746E+02 -0.31381418832E+02  0.99906604989E+02  0.00000000000E+00 0.  1.
         22    1    3    3    0    0 -0.27796950408E+02  0.25100540435E+02  0.58560996507E+02  0.69513292930E+02  0.00000000000E+00 0.  1.
</event>
<event>
 7    1  0.5957303E-006  0.7622356E+02  0.7818608E-02  0.1473063E+00
          2   -1    0    0  502    0  0.00000000000E+00  0.00000000000E+00  0.65970615552E+03  0.65970615552E+03  0.00000000000E+00 0. -1.
          1   -1    0    0  501    0 -0.00000000000E+00 -0.00000000000E+00 -0.69376611380E+03  0.69376611380E+03  0.00000000000E+00 0. -1.
         25    2    1    2    0    0 -0.34445364385E+02 -0.38478179397E+02 -0.41086587852E+02  0.14135450401E+03  0.12500373869E+03 0.  0.
          2    1    1    2  501    0  0.57911231008E+02  0.51444035480E+02 -0.59975883324E+03  0.60474032238E+03  0.00000000000E+00 0. -1.
          1    1    1    2  502    0 -0.23465866623E+02 -0.12965856083E+02  0.60678546280E+03  0.60737744294E+03  0.00000000000E+00 0. -1.
         22    1    3    3    0    0 -0.34020432896E+02  0.27149806843E+02  0.23338540514E+02  0.49388149787E+02  0.00000000000E+00 0. -1.
         22    1    3    3    0    0 -0.42493148937E+00 -0.65627986240E+02 -0.64425128365E+02  0.91966354226E+02  0.00000000000E+00 0. -1.
</event>
<event>
 7    1  0.5957303E-006  0.1488769E+03  0.7818608E-02  0.1210627E+00
          2   -1    0    0  502    0  0.00000000000E+00  0.00000000000E+00  0.33786644421E+04  0.33786644421E+04  0.00000000000E+00 0. -1.
          1   -1    0    0  501    0 -0.00000000000E+00 -0.00000000000E+00 -0.36441849098E+03  0.36441849098E+03  0.00000000000E+00 0. -1.
         25    2    1    2    0    0 -0.84596869999E+02 -0.14774037595E+03  0.86889650686E+03  0.89419800095E+03  0.12500030469E+03 0.  0.
          2    1    1    2  501    0 -0.50712301001E+02  0.14069769598E+03 -0.33393738197E+03  0.36589855726E+03  0.00000000000E+00 0. -1.
          1    1    1    2  502    0  0.13530917100E+03  0.70426799700E+01  0.24792868262E+04  0.24829863749E+04  0.00000000000E+00 0. -1.
         22    1    3    3    0    0  0.27004070703E+02 -0.68027921480E+02  0.26477646314E+03  0.27470637664E+03  0.00000000000E+00 0.  1.
         22    1    3    3    0    0 -0.11160094070E+03 -0.79712454467E+02  0.60412004372E+03  0.61949162431E+03  0.00000000000E+00 0.  1.
</event>
<event>
 7    1  0.5957303E-006  0.6969395E+02  0.7818608E-02  0.1394330E+00
          2   -1    0    0  502    0  0.00000000000E+00  0.00000000000E+00  0.10780444146E+03  0.10780444146E+03  0.00000000000E+00 0. -1.
          1   -1    0    0  501    0 -0.00000000000E+00 -0.00000000000E+00 -0.15653797264E+04  0.15653797264E+04  0.00000000000E+00 0. -1.
         25    2    1    2    0    0 -0.43076695962E+01  0.96616439113E+02 -0.13965356829E+03  0.21090553187E+03  0.12499892765E+03 0.  0.
          2    1    1    2  501    0  0.39635134292E+02 -0.56953099393E+02 -0.13793369420E+04  0.13810810979E+04  0.00000000000E+00 0. -1.
          1    1    1    2  502    0 -0.35327464696E+02 -0.39663339720E+02  0.61415225377E+02  0.81197538065E+02  0.00000000000E+00 0. -1.
         22    1    3    3    0    0  0.59372505583E+02  0.49769217966E+02 -0.54566284757E+02  0.94760481786E+02  0.00000000000E+00 0. -1.
         22    1    3    3    0    0 -0.63680175179E+02  0.46847221146E+02 -0.85087283535E+02  0.11614505009E+03  0.00000000000E+00 0. -1.
</event>
<event>
 7    1  0.5957303E-006  0.1242338E+03  0.7818608E-02  0.1382003E+00
          2   -1    0    0  502    0  0.00000000000E+00  0.00000000000E+00  0.18811907931E+04  0.18811907931E+04  0.00000000000E+00 0. -1.
          1   -1    0    0  501    0 -0.00000000000E+00 -0.00000000000E+00 -0.11236465760E+04  0.11236465760E+04  0.00000000000E+00 0. -1.
         25    2    1    2    0    0 -0.82651940922E+02 -0.13265927126E+03  0.91640028208E+03  0.93800036494E+03  0.12500152812E+03 0.  0.
          2    1    1    2  501    0  0.60365729219E+02  0.10844560789E+03 -0.11091002124E+04  0.11160231863E+04  0.00000000000E+00 0. -1.
          1    1    1    2  502    0  0.22286211703E+02  0.24213663365E+02  0.95024414742E+03  0.95081381796E+03  0.00000000000E+00 0. -1.
         22    1    3    3    0    0  0.11120011746E+02 -0.53908282447E+02  0.52535192100E+03  0.52822760102E+03  0.00000000000E+00 0. -1.
         22    1    3    3    0    0 -0.93771952668E+02 -0.78750988809E+02  0.39104836108E+03  0.40977276392E+03  0.00000000000E+00 0. -1.
</event>
<event>
 7    1  0.5957303E-006  0.1173229E+03  0.7818608E-02  0.1436090E+00
          2   -1    0    0  502    0  0.00000000000E+00  0.00000000000E+00  0.36268861349E+03  0.36268861349E+03  0.00000000000E+00 0. -1.
          1   -1    0    0  501    0 -0.00000000000E+00 -0.00000000000E+00 -0.35440989084E+03  0.35440989084E+03  0.00000000000E+00 0. -1.
         25    2    1    2    0    0  0.44921832921E+02  0.94343059235E+02  0.16246804448E+03  0.23008450912E+03  0.12499772781E+03 0.  0.
          2    1    1    2  501    0 -0.32554744862E+02 -0.11353605077E+03 -0.30885687215E+03  0.33067024921E+03  0.00000000000E+00 0. -1.
          1    1    1    2  502    0 -0.12367088059E+02  0.19192991533E+02  0.15466755032E+03  0.15634374600E+03  0.00000000000E+00 0. -1.
         22    1    3    3    0    0 -0.19844563906E+01  0.79471585142E+02  0.16247118270E+03  0.18087718519E+03  0.00000000000E+00 0.  1.
         22    1    3    3    0    0  0.46906289312E+02  0.14871474093E+02 -0.31382163560E-02  0.49207323932E+02  0.00000000000E+00 0.  1.
</event>
<event>
 7    1  0.5957303E-006  0.1422926E+03  0.7818608E-02  0.1269164E+00
          2   -1    0    0  502    0  0.00000000000E+00  0.00000000000E+00  0.16813942665E+04  0.16813942665E+04  0.00000000000E+00 0. -1.
          1   -1    0    0  501    0 -0.00000000000E+00 -0.00000000000E+00 -0.17860978337E+03  0.17860978337E+03  0.00000000000E+00 0. -1.
         25    2    1    2    0    0 -0.68677137705E+02  0.49341763041E+02  0.34740995990E+03  0.37877372321E+03  0.12499877734E+03 0.  0.
          2    1    1    2  501    0  0.14487506288E+03 -0.31755499431E+02 -0.12773610064E+03  0.19573887451E+03  0.00000000000E+00 0. -1.
          1    1    1    2  502    0 -0.76197925171E+02 -0.17586263611E+02  0.12831106239E+04  0.12854914522E+04  0.00000000000E+00 0. -1.
         22    1    3    3    0    0  0.19178451963E+02  0.55700704181E+02  0.18307925496E+03  0.19232367265E+03  0.00000000000E+00 0.  1.
         22    1    3    3    0    0 -0.87855589668E+02 -0.63589411397E+01  0.16433070494E+03  0.18645005056E+03  0.00000000000E+00 0.  1.
</event>
<event>
 7    1  0.5957303E-006  0.1543968E+03  0.7818608E-02  0.1360822E+00
          2   -1    0    0  502    0  0.00000000000E+00  0.00000000000E+00  0.13797077925E+04  0.13797077925E+04  0.00000000000E+00 0. -1.
          1   -1    0    0  501    0 -0.00000000000E+00 -0.00000000000E+00 -0.39940484529E+03  0.39940484529E+03  0.00000000000E+00 0. -1.
         25    2    1    2    0    0 -0.15386422701E+02  0.12659345357E+03  0.13648521875E+03  0.22475987864E+03  0.12500457438E+03 0.  0.
          2    1    1    2  501    0  0.65654092660E+01 -0.15687758932E+03 -0.33769807148E+03  0.37241599068E+03  0.00000000000E+00 0. -1.
          1    1    1    2  502    0  0.88210134346E+01  0.30284135747E+02  0.11815157999E+04  0.11819367685E+04  0.00000000000E+00 0. -1.
         22    1    3    3    0    0 -0.45484351371E+02  0.67788644698E+02  0.10237575921E+02  0.82273534812E+02  0.00000000000E+00 0.  1.
         22    1    3    3    0    0  0.30097928670E+02  0.58804808877E+02  0.12624764283E+03  0.14248634383E+03  0.00000000000E+00 0.  1.
</event>
<event>
 7    1  0.5957303E-006  0.8346623E+02  0.7818608E-02  0.1320040E+00
          2   -1    0    0  502    0  0.00000000000E+00  0.00000000000E+00  0.91087046401E+03  0.91087046401E+03  0.00000000000E+00 0. -1.
          1   -1    0    0  501    0 -0.00000000000E+00 -0.00000000000E+00 -0.30436757556E+03  0.30436757556E+03  0.00000000000E+00 0. -1.
         25    2    1    2    0    0  0.66392804481E+02 -0.22394276005E+01  0.11822802347E+03  0.18443093711E+03  0.12499554195E+03 0.  0.
          2    1    1    2  501    0 -0.30153767468E+02 -0.77392004072E+02 -0.26230716717E+03  0.27514327528E+03  0.00000000000E+00 0. -1.
          1    1    1    2  502    0 -0.36239037013E+02  0.79631431673E+02  0.75058203215E+03  0.75566382718E+03  0.00000000000E+00 0. -1.
         22    1    3    3    0    0 -0.50156705343E+00 -0.44120530228E+02  0.22944157607E+01  0.44182995607E+02  0.00000000000E+00 0.  1.
         22    1    3    3    0    0  0.66894371534E+02  0.41881102627E+02  0.11593360771E+03  0.14024794150E+03  0.00000000000E+00 0.  1.
</event>
<event>
 7    1  0.5957303E-006  0.9083509E+02  0.7818608E-02  0.1321651E+00
          2   -1    0    0  502    0  0.00000000000E+00  0.00000000000E+00  0.51433646607E+03  0.51433646607E+03  0.00000000000E+00 0. -1.
          1   -1    0    0  501    0 -0.00000000000E+00 -0.00000000000E+00 -0.40249906524E+03  0.40249906524E+03  0.00000000000E+00 0. -1.
         25    2    1    2    0    0 -0.15553079776E+03  0.42270014190E+02 -0.70525350526E+01  0.20408594188E+03  0.12499900109E+03 0.  0.
          2    1    1    2  501    0  0.74833214425E+02 -0.77364119486E+01 -0.28740129500E+03  0.29708477985E+03  0.00000000000E+00 0. -1.
          1    1    1    2  502    0  0.80697583330E+02 -0.34533602242E+02  0.40629123087E+03  0.41566480958E+03  0.00000000000E+00 0. -1.
         22    1    3    3    0    0  0.11802216260E+02  0.15947539750E+02  0.24765920117E+02  0.31732745421E+02  0.00000000000E+00 0. -1.
         22    1    3    3    0    0 -0.16733301402E+03  0.26322474440E+02 -0.31818455169E+02  0.17235319646E+03  0.00000000000E+00 0. -1.
</event>
<event>
 7    1  0.5957303E-006  0.8676358E+02  0.7818608E-02  0.1401016E+00
          2   -1    0    0  502    0  0.00000000000E+00  0.00000000000E+00  0.32860331656E+03  0.32860331656E+03  0.00000000000E+00 0. -1.
          1   -1    0    0  501    0 -0.00000000000E+00 -0.00000000000E+00 -0.21967115628E+04  0.21967115628E+04  0.00000000000E+00 0. -1.
         25    2    1    2    0    0  0.52319014458E+02  0.61732871084E+01 -0.45394035698E+02  0.14307128796E+03  0.12503354036E+03 0.  0.
          2    1    1    2  501    0 -0.79713933566E+02 -0.35945539242E+02 -0.21001015626E+04  0.21019212560E+04  0.00000000000E+00 0. -1.
          1    1    1    2  502    0  0.27394919108E+02  0.29772252134E+02  0.27738735213E+03  0.28032233537E+03  0.00000000000E+00 0. -1.
         22    1    3    3    0    0 -0.24433611176E+01 -0.53961687511E+02 -0.13265425692E+02  0.55621985323E+02  0.00000000000E+00 0.  1.
         22    1    3    3    0    0  0.54762375576E+02  0.60134974619E+02 -0.32128610006E+02  0.87449302639E+02  0.00000000000E+00 0.  1.
</event>
<event>
 7    1  0.5957303E-006  0.4330969E+02  0.7818608E-02  0.1524909E+00
          2   -1    0    0  502    0  0.00000000000E+00  0.00000000000E+00  0.18471120608E+03  0.18471120608E+03  0.00000000000E+00 0. -1.
          1   -1    0    0  501    0 -0.00000000000E+00 -0.00000000000E+00 -0.12170619670E+03  0.12170619670E+03  0.00000000000E+00 0. -1.
         25    2    1    2    0    0 -0.18336815621E+02 -0.61881667215E+01 -0.58213160052E+02  0.13924248528E+03  0.12500066196E+03 0.  0.
          2    1    1    2  501    0 -0.22141230646E+02  0.24501064278E+02 -0.49690869880E+01  0.33395030629E+02  0.00000000000E+00 0. -1.
          1    1    1    2  502    0  0.40478046267E+02 -0.18312897556E+02  0.12618725643E+03  0.13377988687E+03  0.00000000000E+00 0. -1.
         22    1    3    3    0    0 -0.66361571865E+02  0.67903587690E+01 -0.57692950800E+01  0.66957090426E+02  0.00000000000E+00 0.  1.
         22    1    3    3    0    0  0.48024756243E+02 -0.12978525491E+02 -0.52443864972E+02  0.72285394855E+02  0.00000000000E+00 0.  1.
</event>
<event>
 7    1  0.5957303E-006  0.7170103E+02  0.7818608E-02  0.1358697E+00
          2   -1    0    0  502    0  0.00000000000E+00  0.00000000000E+00  0.55215210720E+02  0.55215210720E+02  0.00000000000E+00 0. -1.
          1   -1    0    0  501    0 -0.00000000000E+00 -0.00000000000E+00 -0.20391303733E+04  0.20391303733E+04  0.00000000000E+00 0. -1.
         25    2    1    2    0    0 -0.37148424363E+02 -0.27804094022E+02 -0.90293586252E+03  0.91272733859E+03  0.12499979883E+03 0.  0.
          2    1    1    2  501    0 -0.26690502704E+02  0.63787332402E+02 -0.11029488874E+04  0.11051142271E+04  0.00000000000E+00 0. -1.
          1    1    1    2  502    0  0.63838927067E+02 -0.35983238380E+02  0.21969587342E+02  0.76504018335E+02  0.00000000000E+00 0. -1.
         22    1    3    3    0    0 -0.63524805994E+02  0.28418879426E+02 -0.40527628065E+03  0.41120785175E+03  0.00000000000E+00 0.  1.
         22    1    3    3    0    0  0.26376381631E+02 -0.56222973447E+02 -0.49765958187E+03  0.50151948684E+03  0.00000000000E+00 0.  1.
</event>
<event>
 7    1  0.5957303E-006  0.1207425E+03  0.7818608E-02  0.1431826E+00
          2   -1    0    0  502    0  0.00000000000E+00  0.00000000000E+00  0.96646149031E+02  0.96646149031E+02  0.00000000000E+00 0. -1.
          1   -1    0    0  501    0 -0.00000000000E+00 -0.00000000000E+00 -0.24014355939E+04  0.24014355939E+04  0.00000000000E+00 0. -1.
         25    2    1    2    0    0  0.27092685341E+02  0.13837263757E+03 -0.57046511366E+03  0.60077954318E+03  0.12499845269E+03 0.  0.
          2    1    1    2  501    0 -0.24451346843E+02 -0.11561496084E+03 -0.18122396145E+04  0.18160884086E+04  0.00000000000E+00 0. -1.
          1    1    1    2  502    0 -0.26413384978E+01 -0.22757676724E+02  0.77915283233E+02  0.81213791194E+02  0.00000000000E+00 0. -1.
         22    1    3    3    0    0  0.41418299207E+01  0.10441978486E+03 -0.17974201280E+03  0.20791305248E+03  0.00000000000E+00 0. -1.
         22    1    3    3    0    0  0.22950855420E+02  0.33952852706E+02 -0.39072310085E+03  0.39286649069E+03  0.00000000000E+00 0. -1.
</event>
<event>
 7    1  0.5957303E-006  0.2973257E+02  0.7818608E-02  0.1608124E+00
          2   -1    0    0  502    0  0.00000000000E+00  0.00000000000E+00  0.52061764579E+03  0.52061764579E+03  0.00000000000E+00 0. -1.
          1   -1    0    0  501    0 -0.00000000000E+00 -0.00000000000E+00 -0.77475772011E+03  0.77475772011E+03  0.00000000000E+00 0. -1.
         25    2    1    2    0    0  0.99948544147E+01 -0.10054745927E+02  0.65479305774E+01  0.12596708039E+03  0.12499533958E+03 0.  0.
          2    1    1    2  501    0  0.17090191240E+02  0.22811353583E+02 -0.71427040916E+03  0.71483889785E+03  0.00000000000E+00 0. -1.
          1    1    1    2  502    0 -0.27085045655E+02 -0.12756607656E+02  0.45358240427E+03  0.45456938766E+03  0.00000000000E+00 0. -1.
         22    1    3    3    0    0  0.60556839423E+02 -0.65159710181E+01  0.32487756952E+02  0.69029291108E+02  0.00000000000E+00 0. -1.
         22    1    3    3    0    0 -0.50561985008E+02 -0.35387749088E+01 -0.25939826375E+02  0.56937789280E+02  0.00000000000E+00 0. -1.
</event>
<event>
 7    1  0.5957303E-006  0.1075496E+03  0.7818608E-02  0.1342400E+00
          2   -1    0    0  502    0  0.00000000000E+00  0.00000000000E+00  0.68371950955E+03  0.68371950955E+03  0.00000000000E+00 0. -1.
          1   -1    0    0  501    0 -0.00000000000E+00 -0.00000000000E+00 -0.22865180134E+03  0.22865180134E+03  0.00000000000E+00 0. -1.
         25    2    1    2    0    0  0.65548589657E+02  0.62683642350E+02  0.32617596005E+03  0.36088987483E+03  0.12499955287E+03 0.  0.
          2    1    1    2  501    0 -0.10515705068E+03 -0.27514675767E+02 -0.19502052051E+03  0.22326680477E+03  0.00000000000E+00 0. -1.
          1    1    1    2  502    0  0.39608461023E+02 -0.35168966583E+02  0.32391226868E+03  0.32821463129E+03  0.00000000000E+00 0. -1.
         22    1    3    3    0    0 -0.22276901177E+01  0.75800195983E+02  0.23229527396E+03  0.24435983021E+03  0.00000000000E+00 0. -1.
         22    1    3    3    0    0  0.67776279775E+02 -0.13116553633E+02  0.93880686084E+02  0.11653004462E+03  0.00000000000E+00 0. -1.
</event>
<event>
 7    1  0.5957303E-006  0.6676138E+02  0.7818608E-02  0.1476979E+00
          2   -1    0    0  502    0  0.00000000000E+00  0.00000000000E+00  0.66319462355E+03  0.66319462355E+03  0.00000000000E+00 0. -1.
          1   -1    0    0  501    0 -0.00000000000E+00 -0.00000000000E+00 -0.71539503692E+02  0.71539503692E+02  0.00000000000E+00 0. -1.
         25    2    1    2    0    0  0.36848195415E+02  0.28216721074E+02  0.35306525331E+03  0.37739685825E+03  0.12497736862E+03 0.  0.
          2    1    1    2  501    0 -0.65238226586E+02 -0.19262390865E+02 -0.38829742664E+02  0.78325058732E+02  0.00000000000E+00 0. -1.
          1    1    1    2  502    0  0.28390031171E+02 -0.89543302092E+01  0.27741960921E+03  0.27901221026E+03  0.00000000000E+00 0. -1.
         22    1    3    3    0    0 -0.88611241998E+01  0.70481550151E+02  0.18448117086E+03  0.19768528229E+03  0.00000000000E+00 0. -1.
         22    1    3    3    0    0  0.45709319615E+02 -0.42264829077E+02  0.16858408245E+03  0.17971157596E+03  0.00000000000E+00 0. -1.
</event>
<event>
 7    1  0.5957303E-006  0.8629889E+02  0.7818608E-02  0.1436307E+00
          2   -1    0    0  502    0  0.00000000000E+00  0.00000000000E+00  0.88742773743E+03  0.88742773743E+03  0.00000000000E+00 0. -1.
          1   -1    0    0  501    0 -0.00000000000E+00 -0.00000000000E+00 -0.12456326721E+03  0.12456326721E+03  0.00000000000E+00 0. -1.
         25    2    1    2    0    0  0.28109503743E+02 -0.76482651476E+02  0.58558176673E+03  0.60429332661E+03  0.12499871550E+03 0.  0.
          2    1    1    2  501    0  0.11933927618E+01  0.86568309722E+02 -0.97948981386E+02  0.13072681205E+03  0.00000000000E+00 0. -1.
          1    1    1    2  502    0 -0.29302896505E+02 -0.10085658246E+02  0.27523168488E+03  0.27697086599E+03  0.00000000000E+00 0. -1.
         22    1    3    3    0    0  0.68667138700E+02 -0.51441176927E+02  0.22909808860E+03  0.24463708800E+03  0.00000000000E+00 0. -1.
         22    1    3    3    0    0 -0.40557634956E+02 -0.25041474549E+02  0.35648367813E+03  0.35965623861E+03  0.00000000000E+00 0. -1.
</event>
<event>
 7    1  0.5957303E-006  0.9617601E+02  0.7818608E-02  0.1363644E+00
          2   -1    0    0  502    0  0.00000000000E+00  0.00000000000E+00  0.24420298931E+04  0.24420298931E+04  0.00000000000E+00 0. -1.
          1   -1    0    0  501    0 -0.00000000000E+00 -0.00000000000E+00 -0.70469170493E+03  0.70469170493E+03  0.00000000000E+00 0. -1.
         25    2    1    2    0    0  0.51241624956E+02 -0.46251404059E+02  0.13211969349E+04  0.13288912635E+04  0.12500301166E+03 0.  0.
          2    1    1    2  501    0  0.39769373310E+02 -0.29396374596E+02 -0.69683104342E+03  0.69858374800E+03  0.00000000000E+00 0. -1.
          1    1    1    2  502    0 -0.91010998267E+02  0.75647778655E+02  0.11129722967E+04  0.11192465865E+04  0.00000000000E+00 0. -1.
         22    1    3    3    0    0  0.54187206724E+02 -0.61038325889E+02  0.43647955756E+03  0.44404541971E+03  0.00000000000E+00 0. -1.
         22    1    3    3    0    0 -0.29455817676E+01  0.14786921830E+02  0.88471737730E+03  0.88484584375E+03  0.00000000000E+00 0. -1.
</event>
<event>
 7    1  0.5957303E-006  0.1722188E+03  0.7818608E-02  0.1286395E+00
          2   -1    0    0  502    0  0.00000000000E+00  0.00000000000E+00  0.24596841667E+04  0.24596841667E+04  0.00000000000E+00 0. -1.
          1   -1    0    0  501    0 -0.00000000000E+00 -0.00000000000E+00 -0.20067384917E+04  0.20067384917E+04  0.00000000000E+00 0. -1.
         25    2    1    2    0    0  0.12303509221E+03  0.83391705039E+02  0.39462500170E+03  0.43982388769E+03  0.12499739931E+03 0.  0.
          2    1    1    2  501    0 -0.10653970612E+03 -0.13565908729E+03 -0.19800209918E+04  0.19875203709E+04  0.00000000000E+00 0. -1.
          1    1    1    2  502    0 -0.16495386090E+02  0.52267382249E+02  0.20383416650E+04  0.20390783998E+04  0.00000000000E+00 0. -1.
         22    1    3    3    0    0  0.12011910839E+03  0.99998863138E+01  0.23489440049E+03  0.26401510810E+03  0.00000000000E+00 0. -1.
         22    1    3    3    0    0  0.29159838193E+01  0.73391818725E+02  0.15973060121E+03  0.17580877959E+03  0.00000000000E+00 0. -1.
</event>
<event>
 7    1  0.5957303E-006  0.1896339E+03  0.7818608E-02  0.1232105E+00
          2   -1    0    0  502    0  0.00000000000E+00  0.00000000000E+00  0.15635711094E+04  0.15635711094E+04  0.00000000000E+00 0. -1.
          1   -1    0    0  501    0 -0.00000000000E+00 -0.00000000000E+00 -0.79213135044E+03  0.79213135044E+03  0.00000000000E+00 0. -1.
         25    2    1    2    0    0 -0.72201310106E+02  0.11133226606E+03  0.33505545069E+03  0.38143790408E+03  0.12499926795E+03 0.  0.
          2    1    1    2  501    0 -0.70554918344E+02  0.47296137895E+02 -0.75710043676E+03  0.76185037409E+03  0.00000000000E+00 0. -1.
          1    1    1    2  502    0  0.14275622845E+03 -0.15862840395E+03  0.11934847451E+04  0.12124141817E+04  0.00000000000E+00 0. -1.
         22    1    3    3    0    0 -0.10795274731E+03  0.83285204901E+02  0.26321886529E+03  0.29643615173E+03  0.00000000000E+00 0.  1.
         22    1    3    3    0    0  0.35751437201E+02  0.28047061158E+02  0.71836585401E+02  0.85001752356E+02  0.00000000000E+00 0.  1.
</event>
<event>
 7    1  0.5957303E-006  0.9331862E+02  0.7818608E-02  0.1297020E+00
          2   -1    0    0  502    0  0.00000000000E+00  0.00000000000E+00  0.34506267820E+03  0.34506267820E+03  0.00000000000E+00 0. -1.
          1   -1    0    0  501    0 -0.00000000000E+00 -0.00000000000E+00 -0.26692619647E+04  0.26692619647E+04  0.00000000000E+00 0. -1.
         25    2    1    2    0    0  0.96302782198E+02  0.69678437460E+02 -0.52908360308E+03  0.55649268532E+03  0.12500135705E+03 0.  0.
          2    1    1    2  501    0 -0.53637822868E+01 -0.91436578703E+02 -0.21188681030E+04  0.21208468724E+04  0.00000000000E+00 0. -1.
          1    1    1    2  502    0 -0.90938999911E+02  0.21758141243E+02  0.32375241962E+03  0.33698508517E+03  0.00000000000E+00 0. -1.
         22    1    3    3    0    0  0.84472382434E+02 -0.15296502542E+02 -0.29228469704E+03  0.30463077735E+03  0.00000000000E+00 0.  1.
         22    1    3    3    0    0  0.11830399764E+02  0.84974940003E+02 -0.23679890604E+03  0.25186190797E+03  0.00000000000E+00 0.  1.
</event>
<event>
 7    1  0.5957303E-006  0.3164328E+03  0.7818608E-02  0.1150204E+00
          2   -1    0    0  502    0  0.00000000000E+00  0.00000000000E+00  0.11241286759E+04  0.11241286759E+04  0.00000000000E+00 0. -1.
          1   -1    0    0  501    0 -0.00000000000E+00 -0.00000000000E+00 -0.52014737610E+03  0.52014737610E+03  0.00000000000E+00 0. -1.
         25    2    1    2    0    0  0.11360513077E+01 -0.23721799609E+03 -0.42855881339E+02  0.27154228530E+03  0.12499967144E+03 0.  0.
          2    1    1    2  501    0 -0.96313219198E+02 -0.80795170273E+02 -0.32356346444E+03  0.34712737036E+03  0.00000000000E+00 0. -1.
          1    1    1    2  502    0  0.95177167890E+02  0.31801316636E+03  0.97040064557E+03  0.10256063963E+04  0.00000000000E+00 0. -1.
         22    1    3    3    0    0 -0.24375294577E+02 -0.15671436131E+03  0.28310128029E+02  0.16110558455E+03  0.00000000000E+00 0. -1.
         22    1    3    3    0    0  0.25511345884E+02 -0.80503634781E+02 -0.71166009368E+02  0.11043670074E+03  0.00000000000E+00 0. -1.
</event>
<event>
 7    1  0.5957303E-006  0.2010837E+03  0.7818608E-02  0.1352734E+00
          2   -1    0    0  502    0  0.00000000000E+00  0.00000000000E+00  0.13490997493E+04  0.13490997493E+04  0.00000000000E+00 0. -1.
          1   -1    0    0  501    0 -0.00000000000E+00 -0.00000000000E+00 -0.10121433208E+04  0.10121433208E+04  0.00000000000E+00 0. -1.
         25    2    1    2    0    0 -0.12528827040E+03 -0.18491499166E+03  0.94853846195E+03  0.98246711345E+03  0.12500284147E+03 0.  0.
          2    1    1    2  501    0  0.10235074857E+03  0.17281971124E+03 -0.98458983387E+03  0.10048678865E+04  0.00000000000E+00 0. -1.
          1    1    1    2  502    0  0.22937521836E+02  0.12095280421E+02  0.37300780042E+03  0.37390807010E+03  0.00000000000E+00 0. -1.
         22    1    3    3    0    0 -0.97169300727E+02 -0.99057037489E+02  0.76965867938E+03  0.78206691045E+03  0.00000000000E+00 0.  1.
         22    1    3    3    0    0 -0.28118969674E+02 -0.85857954172E+02  0.17887978257E+03  0.20040020300E+03  0.00000000000E+00 0.  1.
</event>
<event>
 7    1  0.6902245E-006  0.1172101E+03  0.7818608E-02  0.1266093E+00
          2   -1    0    0  502    0  0.00000000000E+00  0.00000000000E+00  0.12466358144E+04  0.12466358144E+04  0.00000000000E+00 0. -1.
          1   -1    0    0  501    0 -0.00000000000E+00 -0.00000000000E+00 -0.89139499327E+03  0.89139499327E+03  0.00000000000E+00 0. -1.
         25    2    1    2    0    0  0.84870190856E+02 -0.53659742576E+02 -0.18843830347E+03  0.24741922255E+03  0.12499984082E+03 0.  0.
          2    1    1    2  501    0 -0.12132798562E+03 -0.37099291991E+02 -0.66549864666E+03  0.67748452844E+03  0.00000000000E+00 0. -1.
          1    1    1    2  502    0  0.36457794766E+02  0.90759034567E+02  0.12091777713E+04  0.12131270567E+04  0.00000000000E+00 0. -1.
         22    1    3    3    0    0 -0.18540804256E+02  0.11854441993E+01 -0.97328204929E+02  0.99085549779E+02  0.00000000000E+00 0.  1.
         22    1    3    3    0    0  0.10341099511E+03 -0.54845186775E+02 -0.91110098539E+02  0.14833367277E+03  0.00000000000E+00 0.  1.
</event>
<event>
 7    1  0.5957303E-006  0.9804379E+02  0.7818608E-02  0.1424129E+00
          2   -1    0    0  502    0  0.00000000000E+00  0.00000000000E+00  0.68218060368E+03  0.68218060368E+03  0.00000000000E+00 0. -1.
          1   -1    0    0  501    0 -0.00000000000E+00 -0.00000000000E+00 -0.45136782497E+03  0.45136782497E+03  0.00000000000E+00 0. -1.
         25    2    1    2    0    0  0.80500388809E+01 -0.12025391634E+03 -0.36118883796E+02  0.17735945455E+03  0.12500397926E+03 0.  0.
          2    1    1    2  501    0  0.15180720737E+02  0.25776663028E+02 -0.34009849279E+03  0.34141159242E+03  0.00000000000E+00 0. -1.
          1    1    1    2  502    0 -0.23230759617E+02  0.94477253317E+02  0.60703015530E+03  0.61477738168E+03  0.00000000000E+00 0. -1.
         22    1    3    3    0    0 -0.98122011600E+01 -0.28383133333E+02 -0.71306221836E+02  0.77372209623E+02  0.00000000000E+00 0.  1.
         22    1    3    3    0    0  0.17862240041E+02 -0.91870783012E+02  0.35187338041E+02  0.99987244931E+02  0.00000000000E+00 0.  1.
</event>
<event>
 7    1  0.5957303E-006  0.8959835E+02  0.7818608E-02  0.1432391E+00
          2   -1    0    0  502    0  0.00000000000E+00  0.00000000000E+00  0.37272687676E+04  0.37272687676E+04  0.00000000000E+00 0. -1.
          1   -1    0    0  501    0 -0.00000000000E+00 -0.00000000000E+00 -0.16582599125E+02  0.16582599125E+02  0.00000000000E+00 0. -1.
         25    2    1    2    0    0  0.59288386038E+02  0.25368128706E+02  0.60591398473E+03  0.62202666080E+03  0.12500702054E+03 0.  0.
          2    1    1    2  501    0  0.17129202509E+02  0.25528077125E+02  0.22283767593E+02  0.37969179586E+02  0.00000000000E+00 0. -1.
          1    1    1    2  502    0 -0.76417588547E+02 -0.50896205831E+02  0.30824884161E+04  0.30838555263E+04  0.00000000000E+00 0. -1.
         22    1    3    3    0    0 -0.39317171263E+02  0.99847883701E+01  0.19397425284E+03  0.19817049912E+03  0.00000000000E+00 0. -1.
         22    1    3    3    0    0  0.98605557301E+02  0.15383340336E+02  0.41193973188E+03  0.42385616168E+03  0.00000000000E+00 0. -1.
</event>
<event>
 7    1  0.5957303E-006  0.7156704E+02  0.7818608E-02  0.1423431E+00
          2   -1    0    0  502    0  0.00000000000E+00  0.00000000000E+00  0.14598003406E+04  0.14598003406E+04  0.00000000000E+00 0. -1.
          1   -1    0    0  501    0 -0.00000000000E+00 -0.00000000000E+00 -0.13974697033E+03  0.13974697033E+03  0.00000000000E+00 0. -1.
         25    2    1    2    0    0 -0.62937479411E+02 -0.63898539586E+02  0.14942622994E+02  0.15453420878E+03  0.12495355147E+03 0.  0.
          2    1    1    2  501    0  0.21783350604E+02  0.65870600949E+02 -0.52358513041E+02  0.86918722499E+02  0.00000000000E+00 0. -1.
          1    1    1    2  502    0  0.41154128807E+02 -0.19720613629E+01  0.13574692603E+04  0.13580943797E+04  0.00000000000E+00 0. -1.
         22    1    3    3    0    0 -0.51892641246E+02  0.29448214528E+02  0.90870015909E+01  0.60354098057E+02  0.00000000000E+00 0.  1.
         22    1    3    3    0    0 -0.11044838165E+02 -0.93346754114E+02  0.58556214026E+01  0.94180110723E+02  0.00000000000E+00 0.  1.
</event>
<event>
 7    1  0.7591709E-006  0.9041878E+02  0.7818608E-02  0.1365090E+00
          2   -1    0    0  502    0  0.00000000000E+00  0.00000000000E+00  0.17227400690E+04  0.17227400690E+04  0.00000000000E+00 0. -1.
          1   -1    0    0  501    0 -0.00000000000E+00 -0.00000000000E+00 -0.76290563419E+03  0.76290563419E+03  0.00000000000E+00 0. -1.
         25    2    1    2    0    0 -0.54479134027E+02 -0.45896250121E+02 -0.81893135066E+02  0.16554996957E+03  0.12500346009E+03 0.  0.
          2    1    1    2  501    0  0.30967584788E+02 -0.41739132403E+02 -0.63690035145E+03  0.63901737391E+03  0.00000000000E+00 0. -1.
          1    1    1    2  502    0  0.23511549239E+02  0.87635382524E+02  0.16786279214E+04  0.16810783597E+04  0.00000000000E+00 0. -1.
         22    1    3    3    0    0 -0.24454442821E+02  0.42520282418E+02 -0.39609865509E+02  0.63047090624E+02  0.00000000000E+00 0. -1.
         22    1    3    3    0    0 -0.30024691206E+02 -0.88416532538E+02 -0.42283269557E+02  0.10250287895E+03  0.00000000000E+00 0. -1.
</event>
<event>
 7    1  0.5957303E-006  0.7288229E+02  0.7818608E-02  0.1403841E+00
          2   -1    0    0  502    0  0.00000000000E+00  0.00000000000E+00  0.18854347473E+04  0.18854347473E+04  0.00000000000E+00 0. -1.
          1   -1    0    0  501    0 -0.00000000000E+00 -0.00000000000E+00 -0.32283058656E+02  0.32283058656E+02  0.00000000000E+00 0. -1.
         25    2    1    2    0    0 -0.26419199176E+02 -0.11613067989E+02  0.80429575727E+03  0.81446225866E+03  0.12499707269E+03 0.  0.
          2    1    1    2  501    0  0.66829509490E+02  0.35812698895E+02  0.27256401442E+02  0.80570740101E+02  0.00000000000E+00 0. -1.
          1    1    1    2  502    0 -0.40410310314E+02 -0.24199630907E+02  0.10215995299E+04  0.10226848072E+04  0.00000000000E+00 0. -1.
         22    1    3    3    0    0  0.45125379630E+02 -0.29647201053E+02  0.37618796055E+03  0.38004294241E+03  0.00000000000E+00 0.  1.
         22    1    3    3    0    0 -0.71544578806E+02  0.18034133064E+02  0.42810779672E+03  0.43441931624E+03  0.00000000000E+00 0.  1.
</event>
<event>
 7    1  0.5957303E-006  0.1129785E+03  0.7818608E-02  0.1332039E+00
          2   -1    0    0  502    0  0.00000000000E+00  0.00000000000E+00  0.39899294489E+03  0.39899294489E+03  0.00000000000E+00 0. -1.
          1   -1    0    0  501    0 -0.00000000000E+00 -0.00000000000E+00 -0.26776419969E+04  0.26776419969E+04  0.00000000000E+00 0. -1.
         25    2    1    2    0    0  0.53686786742E+02 -0.12904841958E+03 -0.64213199650E+03  0.66895009397E+03  0.12499984652E+03 0.  0.
          2    1    1    2  501    0  0.25615321192E+02  0.48874156386E+02 -0.20134697580E+04  0.20142257307E+04  0.00000000000E+00 0. -1.
          1    1    1    2  502    0 -0.79302107935E+02  0.80174263198E+02  0.37695270257E+03  0.39345911704E+03  0.00000000000E+00 0. -1.
         22    1    3    3    0    0  0.91363138378E+02 -0.64961687237E+02 -0.42025763565E+03  0.43495255395E+03  0.00000000000E+00 0. -1.
         22    1    3    3    0    0 -0.37676351635E+02 -0.64086732347E+02 -0.22187436084E+03  0.23399754002E+03  0.00000000000E+00 0. -1.
</event>
<event>
 7    1  0.5957303E-006  0.5593642E+02  0.7818608E-02  0.1431333E+00
          2   -1    0    0  502    0  0.00000000000E+00  0.00000000000E+00  0.60215910257E+03  0.60215910257E+03  0.00000000000E+00 0. -1.
          1   -1    0    0  501    0 -0.00000000000E+00 -0.00000000000E+00 -0.34446186772E+03  0.34446186772E+03  0.00000000000E+00 0. -1.
         25    2    1    2    0    0  0.67650436316E+02 -0.46492270718E+02  0.88166210695E+02  0.17359890416E+03  0.12500074418E+03 0.  0.
          2    1    1    2  501    0 -0.12164429029E+02  0.48124670466E+02 -0.29805120045E+03  0.30215637562E+03  0.00000000000E+00 0. -1.
          1    1    1    2  502    0 -0.55486007287E+02 -0.16323997483E+01  0.46758222461E+03  0.47086569051E+03  0.00000000000E+00 0. -1.
         22    1    3    3    0    0  0.84823469053E+02  0.24543588359E+01  0.18686883053E+02  0.86892142209E+02  0.00000000000E+00 0. -1.
         22    1    3    3    0    0 -0.17173032736E+02 -0.48946629554E+02  0.69479327642E+02  0.86706761949E+02  0.00000000000E+00 0. -1.
</event>
<event>
 7    1  0.5957303E-006  0.1350210E+03  0.7818608E-02  0.1274443E+00
          2   -1    0    0  502    0  0.00000000000E+00  0.00000000000E+00  0.24266800798E+04  0.24266800798E+04  0.00000000000E+00 0. -1.
          1   -1    0    0  501    0 -0.00000000000E+00 -0.00000000000E+00 -0.47330296557E+03  0.47330296557E+03  0.00000000000E+00 0. -1.
         25    2    1    2    0    0 -0.68516837529E+02 -0.17798216259E+03  0.62861899350E+03  0.66869959613E+03  0.12500041459E+03 0.  0.
          2    1    1    2  501    0 -0.12729043518E+02  0.77281148125E+02 -0.44750302031E+03  0.45430535721E+03  0.00000000000E+00 0. -1.
          1    1    1    2  502    0  0.81245881047E+02  0.10070101447E+03  0.17722611410E+04  0.17769780920E+04  0.00000000000E+00 0. -1.
         22    1    3    3    0    0 -0.28201192060E+02 -0.18166542608E+03  0.46202399273E+03  0.49725627611E+03  0.00000000000E+00 0. -1.
         22    1    3    3    0    0 -0.40315645468E+02  0.36832634878E+01  0.16659500077E+03  0.17144332002E+03  0.00000000000E+00 0. -1.
</event>
<event>
 7    1  0.5957303E-006  0.7279161E+02  0.7818608E-02  0.1426594E+00
          2   -1    0    0  502    0  0.00000000000E+00  0.00000000000E+00  0.30321417205E+04  0.30321417205E+04  0.00000000000E+00 0. -1.
          1   -1    0    0  501    0 -0.00000000000E+00 -0.00000000000E+00 -0.11314203426E+04  0.11314203426E+04  0.00000000000E+00 0. -1.
         25    2    1    2    0    0 -0.38454170870E+02 -0.53928397679E+02  0.16370185596E+03  0.21635598930E+03  0.12499848450E+03 0.  0.
          2    1    1    2  501    0 -0.29311628541E+02  0.26540228699E+02 -0.11042694266E+04  0.11049771590E+04  0.00000000000E+00 0. -1.
          1    1    1    2  502    0  0.67765799411E+02  0.27388168980E+02  0.28412889485E+04  0.28422289149E+04  0.00000000000E+00 0. -1.
         22    1    3    3    0    0 -0.44447276228E+02 -0.46259600325E+02  0.18344791182E+03  0.19434157388E+03  0.00000000000E+00 0. -1.
         22    1    3    3    0    0  0.59931053586E+01 -0.76687973546E+01 -0.19746055854E+02  0.22014415425E+02  0.00000000000E+00 0. -1.
</event>
<event>
 7    1  0.5957303E-006  0.8176070E+02  0.7818608E-02  0.1341782E+00
          2   -1    0    0  502    0  0.00000000000E+00  0.00000000000E+00  0.19130731720E+04  0.19130731720E+04  0.00000000000E+00 0. -1.
          1   -1    0    0  501    0 -0.00000000000E+00 -0.00000000000E+00 -0.25559929820E+02  0.25559929820E+02  0.00000000000E+00 0. -1.
         25    2    1    2    0    0  0.54182912148E+02 -0.84118425061E+02  0.41349681623E+03  0.44341516755E+03  0.12500278550E+03 0.  0.
          2    1    1    2  501    0  0.25956302614E+02  0.65062715051E+02  0.12189026330E+03  0.14058493100E+03  0.00000000000E+00 0. -1.
          1    1    1    2  502    0 -0.80139214761E+02  0.19055710010E+02  0.13521261626E+04  0.13546330032E+04  0.00000000000E+00 0. -1.
         22    1    3    3    0    0  0.41349046182E+01  0.25647546417E+02  0.22961317568E+02  0.34671547094E+02  0.00000000000E+00 0.  1.
         22    1    3    3    0    0  0.50048007529E+02 -0.10976597148E+03  0.39053549866E+03  0.40874362046E+03  0.00000000000E+00 0.  1.
</event>
<event>
 7    1  0.5957303E-006  0.1091967E+03  0.7818608E-02  0.1430098E+00
          2   -1    0    0  502    0  0.00000000000E+00  0.00000000000E+00  0.42063945631E+03  0.42063945631E+03  0.00000000000E+00 0. -1.
          1   -1    0    0  501    0 -0.00000000000E+00 -0.00000000000E+00 -0.12868707473E+03  0.12868707473E+03  0.00000000000E+00 0. -1.
         25    2    1    2    0    0 -0.87157519204E+02  0.19638298101E+02  0.21526382162E+03  0.26447144078E+03  0.12499813672E+03 0.  0.
          2    1    1    2  501    0  0.11126211315E+03 -0.10821892697E+02 -0.72654145773E+02  0.13332290157E+03  0.00000000000E+00 0. -1.
          1    1    1    2  502    0 -0.24104593950E+02 -0.88164054037E+01  0.14934270573E+03  0.15153218869E+03  0.00000000000E+00 0. -1.
         22    1    3    3    0    0 -0.97568158298E+02  0.56114383018E+02  0.18214723022E+03  0.21411675080E+03  0.00000000000E+00 0.  1.
         22    1    3    3    0    0  0.10410639094E+02 -0.36476084917E+02  0.33116591404E+02  0.50354689984E+02  0.00000000000E+00 0.  1.
</event>
<event>
 7    1  0.5957303E-006  0.2834825E+03  0.7818608E-02  0.1232481E+00
          2   -1    0    0  502    0  0.00000000000E+00  0.00000000000E+00  0.18670768094E+04  0.18670768094E+04  0.00000000000E+00 0. -1.
          1   -1    0    0  501    0 -0.00000000000E+00 -0.00000000000E+00 -0.39180447303E+03  0.39180447303E+03  0.00000000000E+00 0. -1.
         25    2    1    2    0    0 -0.18180490495E+03 -0.21149853131E+03  0.34867555008E+03  0.46366442448E+03  0.12500162835E+03 0.  0.
          2    1    1    2  501    0  0.22493357918E+03  0.17484338016E+03 -0.27293781143E+03  0.39453817501E+03  0.00000000000E+00 0. -1.
          1    1    1    2  502    0 -0.43128674229E+02  0.36655151155E+02  0.13995345977E+04  0.14006786830E+04  0.00000000000E+00 0. -1.
         22    1    3    3    0    0  0.94572817766E+00 -0.63278196953E+02  0.37575304612E+02  0.73599783479E+02  0.00000000000E+00 0.  1.
         22    1    3    3    0    0 -0.18275063313E+03 -0.14822033436E+03  0.31110024547E+03  0.39006464100E+03  0.00000000000E+00 0.  1.
</event>
<event>
 7    1  0.5957303E-006  0.3488408E+02  0.7818608E-02  0.1637982E+00
          2   -1    0    0  502    0  0.00000000000E+00  0.00000000000E+00  0.32132566281E+03  0.32132566281E+03  0.00000000000E+00 0. -1.
          1   -1    0    0  501    0 -0.00000000000E+00 -0.00000000000E+00 -0.60724333302E+03  0.60724333302E+03  0.00000000000E+00 0. -1.
         25    2    1    2    0    0  0.98686429868E+01 -0.29082642046E+02 -0.31497090436E+02  0.13251629587E+03  0.12500124713E+03 0.  0.
          2    1    1    2  501    0 -0.28374770770E+02  0.20486273186E+02 -0.52426802967E+03  0.52543485033E+03  0.00000000000E+00 0. -1.
          1    1    1    2  502    0  0.18506127783E+02  0.85963688598E+01  0.26984744990E+03  0.27061784963E+03  0.00000000000E+00 0. -1.
         22    1    3    3    0    0 -0.51679335547E+02  0.13931065760E+02 -0.10464752830E+02  0.54537504230E+02  0.00000000000E+00 0. -1.
         22    1    3    3    0    0  0.61547978534E+02 -0.43013707806E+02 -0.21032337605E+02  0.77978791642E+02  0.00000000000E+00 0. -1.
</event>
<event>
 7    1  0.5957303E-006  0.1063570E+03  0.7818608E-02  0.1407812E+00
          2   -1    0    0  502    0  0.00000000000E+00  0.00000000000E+00  0.72768221316E+03  0.72768221316E+03  0.00000000000E+00 0. -1.
          1   -1    0    0  501    0 -0.00000000000E+00 -0.00000000000E+00 -0.59629772878E+03  0.59629772878E+03  0.00000000000E+00 0. -1.
         25    2    1    2    0    0 -0.75271086525E+02  0.10375080683E+03 -0.31915140345E+03  0.36594079691E+03  0.12500032853E+03 0.  0.
          2    1    1    2  501    0  0.30350088307E+02 -0.75977960532E+01 -0.24876809847E+03  0.25072778303E+03  0.00000000000E+00 0. -1.
          1    1    1    2  502    0  0.44920998218E+02 -0.96153010776E+02  0.69930398630E+03  0.70731136200E+03  0.00000000000E+00 0. -1.
         22    1    3    3    0    0  0.13921949528E+02  0.81927299439E+02 -0.19092922146E+03  0.20823033084E+03  0.00000000000E+00 0. -1.
         22    1    3    3    0    0 -0.89193036052E+02  0.21823507390E+02 -0.12822218198E+03  0.15771046607E+03  0.00000000000E+00 0. -1.
</event>
<event>
 7    1  0.5957303E-006  0.1594496E+03  0.7818608E-02  0.1294554E+00
          2   -1    0    0  502    0  0.00000000000E+00  0.00000000000E+00  0.25726974146E+04  0.25726974146E+04  0.00000000000E+00 0. -1.
          1   -1    0    0  501    0 -0.00000000000E+00 -0.00000000000E+00 -0.17452861593E+03  0.17452861593E+03  0.00000000000E+00 0. -1.
         25    2    1    2    0    0  0.13050387878E+03  0.87103547217E+02  0.35214965717E+03  0.40527622763E+03  0.12498459632E+03 0.  0.
          2    1    1    2  501    0 -0.95457662391E+02 -0.12929255658E+03 -0.10387235417E+03  0.19135881599E+03  0.00000000000E+00 0. -1.
          1    1    1    2  502    0 -0.35046216386E+02  0.42189009367E+02  0.21498914956E+04  0.21505909869E+04  0.00000000000E+00 0. -1.
         22    1    3    3    0    0  0.14642828038E+03  0.42006517596E+02  0.27902085912E+03  0.31789688366E+03  0.00000000000E+00 0.  1.
         22    1    3    3    0    0 -0.15924401607E+02  0.45097029621E+02  0.73128798050E+02  0.87379343964E+02  0.00000000000E+00 0.  1.
</event>
<event>
 7    1  0.5957303E-006  0.5075667E+02  0.7818608E-02  0.1526194E+00
          2   -1    0    0  502    0  0.00000000000E+00  0.00000000000E+00  0.10868307768E+03  0.10868307768E+03  0.00000000000E+00 0. -1.
          1   -1    0    0  501    0 -0.00000000000E+00 -0.00000000000E+00 -0.23219265477E+03  0.23219265477E+03  0.00000000000E+00 0. -1.
         25    2    1    2    0    0  0.49549857636E+02  0.32117766015E+02  0.30070458165E+02  0.14147306721E+03  0.12499462790E+03 0.  0.
          2    1    1    2  501    0 -0.90592465999E+00 -0.27924104270E+02 -0.14759126742E+03  0.15021237804E+03  0.00000000000E+00 0. -1.
          1    1    1    2  502    0 -0.48643932976E+02 -0.41936617445E+01 -0.59887678356E+01  0.49190287195E+02  0.00000000000E+00 0. -1.
         22    1    3    3    0    0  0.17456860051E+00  0.33022405430E+02  0.70369913943E+02  0.77733097989E+02  0.00000000000E+00 0. -1.
         22    1    3    3    0    0  0.49375289035E+02 -0.90463941535E+00 -0.40299455779E+02  0.63739969217E+02  0.00000000000E+00 0. -1.
</event>
<event>
 7    1  0.5957303E-006  0.1270050E+03  0.7818608E-02  0.1285053E+00
          2   -1    0    0  502    0  0.00000000000E+00  0.00000000000E+00  0.37670499575E+03  0.37670499575E+03  0.00000000000E+00 0. -1.
          1   -1    0    0  501    0 -0.00000000000E+00 -0.00000000000E+00 -0.40039138247E+03  0.40039138247E+03  0.00000000000E+00 0. -1.
         25    2    1    2    0    0  0.10684470240E+02 -0.11879961577E+03 -0.27009791248E+03  0.32063294234E+03  0.12500037911E+03 0.  0.
          2    1    1    2  501    0 -0.84620184204E+02  0.13289356432E+03 -0.38162602810E+02  0.16210385333E+03  0.00000000000E+00 0. -1.
          1    1    1    2  502    0  0.73935713964E+02 -0.14093948552E+02  0.28457412857E+03  0.29435958255E+03  0.00000000000E+00 0. -1.
         22    1    3    3    0    0  0.35409581867E+02  0.18699550422E+01 -0.12682913162E+03  0.13169268715E+03  0.00000000000E+00 0. -1.
         22    1    3    3    0    0 -0.24725111627E+02 -0.12066957081E+03 -0.14326878086E+03  0.18894025519E+03  0.00000000000E+00 0. -1.
</event>
<event>
 7    1  0.5957303E-006  0.7623705E+02  0.7818608E-02  0.1374660E+00
          2   -1    0    0  502    0  0.00000000000E+00  0.00000000000E+00  0.16366401172E+04  0.16366401172E+04  0.00000000000E+00 0. -1.
          1   -1    0    0  501    0 -0.00000000000E+00 -0.00000000000E+00 -0.18560953595E+03  0.18560953595E+03  0.00000000000E+00 0. -1.
         25    2    1    2    0    0  0.12997179128E+03 -0.11805625094E+02  0.32963199113E+03  0.37592147056E+03  0.12501065209E+03 0.  0.
          2    1    1    2  501    0 -0.56920162533E+02  0.16800885430E+01 -0.15637875028E+03  0.16642428050E+03  0.00000000000E+00 0. -1.
          1    1    1    2  502    0 -0.73051628750E+02  0.10125536551E+02  0.12777773404E+04  0.12799039021E+04  0.00000000000E+00 0. -1.
         22    1    3    3    0    0 -0.96180620918E+01 -0.31428520089E+02  0.28795329084E+02  0.43697024733E+02  0.00000000000E+00 0. -1.
         22    1    3    3    0    0  0.13958985337E+03  0.19622894995E+02  0.30083666204E+03  0.33222444582E+03  0.00000000000E+00 0. -1.
</event>
<event>
 7    1  0.5957303E-006  0.2133694E+03  0.7818608E-02  0.1316000E+00
          2   -1    0    0  502    0  0.00000000000E+00  0.00000000000E+00  0.72620207159E+03  0.72620207159E+03  0.00000000000E+00 0. -1.
          1   -1    0    0  501    0 -0.00000000000E+00 -0.00000000000E+00 -0.33672409729E+03  0.33672409729E+03  0.00000000000E+00 0. -1.
         25    2    1    2    0    0  0.18575745096E+03 -0.52352798061E+01  0.25672611705E+03  0.34068670915E+03  0.12500358344E+03 0.  0.
          2    1    1    2  501    0 -0.21698119980E+03 -0.74147609111E+01 -0.25393149604E+03  0.33409134144E+03  0.00000000000E+00 0. -1.
          1    1    1    2  502    0  0.31223748839E+02  0.12650040717E+02  0.38668335329E+03  0.38814811829E+03  0.00000000000E+00 0. -1.
         22    1    3    3    0    0  0.50307692606E+02 -0.39588693422E+02  0.15542569301E+03  0.16809305348E+03  0.00000000000E+00 0. -1.
         22    1    3    3    0    0  0.13544975835E+03  0.34353413616E+02  0.10130042404E+03  0.17259365567E+03  0.00000000000E+00 0. -1.
</event>
<event>
 7    1  0.5957303E-006  0.4721502E+02  0.7818608E-02  0.1520954E+00
          2   -1    0    0  502    0  0.00000000000E+00  0.00000000000E+00  0.55430354069E+03  0.55430354069E+03  0.00000000000E+00 0. -1.
          1   -1    0    0  501    0 -0.00000000000E+00 -0.00000000000E+00 -0.16478992772E+03  0.16478992772E+03  0.00000000000E+00 0. -1.
         25    2    1    2    0    0 -0.73873132333E-01 -0.57965734728E+02  0.74176850320E+02  0.15648492961E+03  0.12500118485E+03 0.  0.
          2    1    1    2  501    0 -0.25193586951E+02  0.39833618375E+02 -0.11856712553E+03  0.12759152492E+03  0.00000000000E+00 0. -1.
          1    1    1    2  502    0  0.25267460083E+02  0.18132116353E+02  0.43390388818E+03  0.43501701388E+03  0.00000000000E+00 0. -1.
         22    1    3    3    0    0 -0.39995608070E+02 -0.40457323006E+02  0.92985524648E+02  0.10900803385E+03  0.00000000000E+00 0.  1.
         22    1    3    3    0    0  0.39921734938E+02 -0.17508411722E+02 -0.18808674328E+02  0.47476895765E+02  0.00000000000E+00 0.  1.
</event>
<event>
 7    1  0.5957303E-006  0.9936935E+02  0.7818608E-02  0.1415449E+00
          2   -1    0    0  502    0  0.00000000000E+00  0.00000000000E+00  0.31012064210E+04  0.31012064210E+04  0.00000000000E+00 0. -1.
          1   -1    0    0  501    0 -0.00000000000E+00 -0.00000000000E+00 -0.33868094666E+02  0.33868094666E+02  0.00000000000E+00 0. -1.
         25    2    1    2    0    0 -0.10170760249E+03  0.51502032982E+02  0.16717051165E+04  0.16802439923E+04  0.12499992615E+03 0.  0.
          2    1    1    2  501    0  0.93634597331E+01 -0.30132640479E+02 -0.19127218628E+02  0.36898521554E+02  0.00000000000E+00 0. -1.
          1    1    1    2  502    0  0.92344142758E+02 -0.21369392504E+02  0.14147604285E+04  0.14179320018E+04  0.00000000000E+00 0. -1.
         22    1    3    3    0    0 -0.11510979238E+03  0.14645818821E+02  0.14815342129E+04  0.14860714614E+04  0.00000000000E+00 0.  1.
         22    1    3    3    0    0  0.13402189885E+02  0.36856214161E+02  0.19017090360E+03  0.19417253099E+03  0.00000000000E+00 0.  1.
</event>
<event>
 7    1  0.5957303E-006  0.7845595E+02  0.7818608E-02  0.1425225E+00
          2   -1    0    0  502    0  0.00000000000E+00  0.00000000000E+00  0.23162712054E+03  0.23162712054E+03  0.00000000000E+00 0. -1.
          1   -1    0    0  501    0 -0.00000000000E+00 -0.00000000000E+00 -0.26164876772E+03  0.26164876772E+03  0.00000000000E+00 0. -1.
         25    2    1    2    0    0 -0.11159088452E+03  0.16739531164E+02 -0.55510240451E+02  0.17731135013E+03  0.12500076271E+03 0.  0.
          2    1    1    2  501    0  0.36975669015E+02 -0.26687288452E+01 -0.13415537038E+03  0.13918328066E+03  0.00000000000E+00 0. -1.
          1    1    1    2  502    0  0.74615215504E+02 -0.14070802319E+02  0.15964396365E+03  0.17678125747E+03  0.00000000000E+00 0. -1.
         22    1    3    3    0    0 -0.47214478117E+02 -0.26646973489E+02 -0.79349079149E+02  0.96101740368E+02  0.00000000000E+00 0. -1.
         22    1    3    3    0    0 -0.64376406402E+02  0.43386504653E+02  0.23838838699E+02  0.81209609762E+02  0.00000000000E+00 0. -1.
</event>
<event>
 7    1  0.5957303E-006  0.1110209E+03  0.7818608E-02  0.1295091E+00
          2   -1    0    0  502    0  0.00000000000E+00  0.00000000000E+00  0.64654551890E+03  0.64654551890E+03  0.00000000000E+00 0. -1.
          1   -1    0    0  501    0 -0.00000000000E+00 -0.00000000000E+00 -0.12207623215E+04  0.12207623215E+04  0.00000000000E+00 0. -1.
         25    2    1    2    0    0  0.59462330878E+02  0.72851920543E+02 -0.33395240284E+03  0.36877173337E+03  0.12500085142E+03 0.  0.
          2    1    1    2  501    0 -0.68315150718E+02  0.38422925399E+02 -0.86265813529E+03  0.86621148653E+03  0.00000000000E+00 0. -1.
          1    1    1    2  502    0  0.88528198394E+01 -0.11127484594E+03  0.62239373549E+03  0.63232462054E+03  0.00000000000E+00 0. -1.
         22    1    3    3    0    0  0.49134061079E+02  0.65081234498E+02 -0.34327986867E+03  0.35283252582E+03  0.00000000000E+00 0.  1.
         22    1    3    3    0    0  0.10328269799E+02  0.77706860451E+01  0.93274658327E+01  0.15939207556E+02  0.00000000000E+00 0.  1.
</event>
<event>
 7    1  0.5957303E-006  0.8699323E+02  0.7818608E-02  0.1325685E+00
          2   -1    0    0  502    0  0.00000000000E+00  0.00000000000E+00  0.80899429764E+02  0.80899429764E+02  0.00000000000E+00 0. -1.
          1   -1    0    0  501    0 -0.00000000000E+00 -0.00000000000E+00 -0.17904267946E+04  0.17904267946E+04  0.00000000000E+00 0. -1.
         25    2    1    2    0    0 -0.15578012698E+02  0.33564231773E+02 -0.49312709719E+03  0.51006604501E+03  0.12499521654E+03 0.  0.
          2    1    1    2  501    0  0.90708684190E+02 -0.43533371288E+02 -0.12664473474E+04  0.12704377606E+04  0.00000000000E+00 0. -1.
          1    1    1    2  502    0 -0.75130671493E+02  0.99691395146E+01  0.50047079810E+02  0.90822418703E+02  0.00000000000E+00 0. -1.
         22    1    3    3    0    0  0.70574621219E+01  0.53238713221E+02 -0.46762416859E+03  0.47069791948E+03  0.00000000000E+00 0. -1.
         22    1    3    3    0    0 -0.22635474820E+02 -0.19674481447E+02 -0.25502928605E+02  0.39368125533E+02  0.00000000000E+00 0. -1.
</event>
<event>
 7    1  0.5957303E-006  0.8849682E+02  0.7818608E-02  0.1406134E+00
          2   -1    0    0  502    0  0.00000000000E+00  0.00000000000E+00  0.24488105969E+04  0.24488105969E+04  0.00000000000E+00 0. -1.
          1   -1    0    0  501    0 -0.00000000000E+00 -0.00000000000E+00 -0.12150228550E+03  0.12150228550E+03  0.00000000000E+00 0. -1.
         25    2    1    2    0    0  0.21303328679E+02  0.83120649346E+02  0.17924529405E+03  0.23477854246E+03  0.12501685647E+03 0.  0.
          2    1    1    2  501    0  0.35200662818E+02 -0.14574781917E+02 -0.88946071172E+02  0.96762154315E+02  0.00000000000E+00 0. -1.
          1    1    1    2  502    0 -0.56503991498E+02 -0.68545867430E+02  0.22370090885E+04  0.22387721856E+04  0.00000000000E+00 0. -1.
         22    1    3    3    0    0  0.29141698991E+02 -0.23326490858E+02  0.83207960831E+02  0.91197195908E+02  0.00000000000E+00 0.  1.
         22    1    3    3    0    0 -0.78383703119E+01  0.10644714020E+03  0.96037333218E+02  0.14358134655E+03  0.00000000000E+00 0.  1.
</event>
<event>
 7    1  0.5957303E-006  0.1389368E+03  0.7818608E-02  0.1419875E+00
          2   -1    0    0  502    0  0.00000000000E+00  0.00000000000E+00  0.50195159509E+03  0.50195159509E+03  0.00000000000E+00 0. -1.
          1   -1    0    0  501    0 -0.00000000000E+00 -0.00000000000E+00 -0.27611240654E+04  0.27611240654E+04  0.00000000000E+00 0. -1.
         25    2    1    2    0    0 -0.10877492547E+03  0.88433167913E+02 -0.31847363270E+03  0.36973403392E+03  0.12500156605E+03 0.  0.
          2    1    1    2  501    0  0.12014741558E+03 -0.69822789943E+02 -0.24147719518E+04  0.24187670832E+04  0.00000000000E+00 0. -1.
          1    1    1    2  502    0 -0.11372490105E+02 -0.18610377970E+02  0.47407311416E+03  0.47457454343E+03  0.00000000000E+00 0. -1.
         22    1    3    3    0    0 -0.21994186295E+02  0.55089420352E+02 -0.29646174486E+02  0.66313528990E+02  0.00000000000E+00 0. -1.
         22    1    3    3    0    0 -0.86780739177E+02  0.33343747561E+02 -0.28882745821E+03  0.30342050493E+03  0.00000000000E+00 0. -1.
</event>
<event>
 7    1  0.5957303E-006  0.4728470E+02  0.7818608E-02  0.1542075E+00
          2   -1    0    0  502    0  0.00000000000E+00  0.00000000000E+00  0.15586524326E+03  0.15586524326E+03  0.00000000000E+00 0. -1.
          1   -1    0    0  501    0 -0.00000000000E+00 -0.00000000000E+00 -0.19806606057E+04  0.19806606057E+04  0.00000000000E+00 0. -1.
         25    2    1    2    0    0  0.14109551553E+02 -0.16694831612E+02 -0.10100045899E+03  0.16218346349E+03  0.12499834506E+03 0.  0.
          2    1    1    2  501    0  0.23295716495E+02 -0.13694799882E+02 -0.18443307837E+04  0.18445287413E+04  0.00000000000E+00 0. -1.
          1    1    1    2  502    0 -0.37405268048E+02  0.30389631494E+02  0.12053588023E+03  0.12981364413E+03  0.00000000000E+00 0. -1.
         22    1    3    3    0    0  0.64881023781E+02 -0.19864734912E+02 -0.28453047381E+02  0.73578059537E+02  0.00000000000E+00 0.  1.
         22    1    3    3    0    0 -0.50771472228E+02  0.31699033000E+01 -0.72547411610E+02  0.88605403958E+02  0.00000000000E+00 0.  1.
</event>
<event>
 7    1  0.5957303E-006  0.4311672E+02  0.7818608E-02  0.1576330E+00
          2   -1    0    0  502    0  0.00000000000E+00  0.00000000000E+00  0.29952742814E+03  0.29952742814E+03  0.00000000000E+00 0. -1.
          1   -1    0    0  501    0 -0.00000000000E+00 -0.00000000000E+00 -0.47170663329E+03  0.47170663329E+03  0.00000000000E+00 0. -1.
         25    2    1    2    0    0 -0.20133201680E+02  0.22164961434E+02 -0.14477604616E+03  0.19361485069E+03  0.12501990059E+03 0.  0.
          2    1    1    2  501    0  0.12316200100E+02  0.20418238041E+02 -0.30033233195E+03  0.30127745160E+03  0.00000000000E+00 0. -1.
          1    1    1    2  502    0  0.78170015801E+01 -0.42583199475E+02  0.27292917295E+03  0.27634175913E+03  0.00000000000E+00 0. -1.
         22    1    3    3    0    0 -0.51655797758E+02  0.11648629352E+02 -0.15081407907E+03  0.15984022789E+03  0.00000000000E+00 0. -1.
         22    1    3    3    0    0  0.31522596079E+02  0.10516332082E+02  0.60380329098E+01  0.33774622802E+02  0.00000000000E+00 0. -1.
</event>
<event>
 7    1  0.5957303E-006  0.1940571E+03  0.7818608E-02  0.1253946E+00
          2   -1    0    0  502    0  0.00000000000E+00  0.00000000000E+00  0.22951578459E+04  0.22951578459E+04  0.00000000000E+00 0. -1.
          1   -1    0    0  501    0 -0.00000000000E+00 -0.00000000000E+00 -0.15103121258E+03  0.15103121258E+03  0.00000000000E+00 0. -1.
         25    2    1    2    0    0 -0.22478427660E+02 -0.14519623846E+03  0.10322974373E+03  0.21878979805E+03  0.12500147346E+03 0.  0.
          2    1    1    2  501    0  0.41472298408E+02 -0.52067919147E+02 -0.76123853593E+02  0.10112299850E+03  0.00000000000E+00 0. -1.
          1    1    1    2  502    0 -0.18993870748E+02  0.19726415760E+03  0.21170207432E+04  0.21262762619E+04  0.00000000000E+00 0. -1.
         22    1    3    3    0    0 -0.31598851161E+02 -0.81278660346E+02  0.12343947082E+03  0.15113573693E+03  0.00000000000E+00 0.  1.
         22    1    3    3    0    0  0.91204235016E+01 -0.63917578111E+02 -0.20209727090E+02  0.67654061116E+02  0.00000000000E+00 0.  1.
</event>
<event>
 7    1  0.5957303E-006  0.7200179E+02  0.7818608E-02  0.1391846E+00
          2   -1    0    0  502    0  0.00000000000E+00  0.00000000000E+00  0.12472916107E+04  0.12472916107E+04  0.00000000000E+00 0. -1.
          1   -1    0    0  501    0 -0.00000000000E+00 -0.00000000000E+00 -0.28893280073E+03  0.28893280073E+03  0.00000000000E+00 0. -1.
         25    2    1    2    0    0  0.12289783830E+03  0.85029149705E+01  0.19042796700E+03  0.25896820096E+03  0.12500216107E+03 0.  0.
          2    1    1    2  501    0 -0.70846320889E+02 -0.20964363049E+01 -0.24904227035E+03  0.25893174516E+03  0.00000000000E+00 0. -1.
          1    1    1    2  502    0 -0.52051517409E+02 -0.64064786656E+01  0.10169731133E+04  0.10183244653E+04  0.00000000000E+00 0. -1.
         22    1    3    3    0    0  0.71573306735E+02 -0.23570543852E+02  0.18310543431E+03  0.19800482027E+03  0.00000000000E+00 0.  1.
         22    1    3    3    0    0  0.51324531562E+02  0.32073458822E+02  0.73225326902E+01  0.60963380696E+02  0.00000000000E+00 0.  1.
</event>
<event>
 7    1  0.5957303E-006  0.9088416E+02  0.7818608E-02  0.1354438E+00
          2   -1    0    0  502    0  0.00000000000E+00  0.00000000000E+00  0.57867480863E+02  0.57867480863E+02  0.00000000000E+00 0. -1.
          1   -1    0    0  501    0 -0.00000000000E+00 -0.00000000000E+00 -0.17665583752E+04  0.17665583752E+04  0.00000000000E+00 0. -1.
         25    2    1    2    0    0 -0.78359948790E+02  0.10548293093E+03 -0.69808273415E+03  0.72125674969E+03  0.12499945984E+03 0.  0.
          2    1    1    2  501    0  0.52737312462E+02 -0.20412001801E+02 -0.10127205385E+04  0.10142981628E+04  0.00000000000E+00 0. -1.
          1    1    1    2  502    0  0.25622636329E+02 -0.85070929126E+02  0.21123782934E+01  0.88870943603E+02  0.00000000000E+00 0. -1.
         22    1    3    3    0    0  0.33564587777E+02  0.20043770970E+02 -0.19265378795E+03  0.19658030501E+03  0.00000000000E+00 0. -1.
         22    1    3    3    0    0 -0.11192453657E+03  0.85439159957E+02 -0.50542894620E+03  0.52467644468E+03  0.00000000000E+00 0. -1.
</event>
<event>
 7    1  0.5957303E-006  0.6893475E+02  0.7818608E-02  0.1380167E+00
          2   -1    0    0  502    0  0.00000000000E+00  0.00000000000E+00  0.89541534812E+03  0.89541534812E+03  0.00000000000E+00 0. -1.
          1   -1    0    0  501    0 -0.00000000000E+00 -0.00000000000E+00 -0.66284922028E+03  0.66284922028E+03  0.00000000000E+00 0. -1.
         25    2    1    2    0    0 -0.12066223088E+01 -0.42013673949E+02  0.46347015115E+03  0.48186706318E+03  0.12499872333E+03 0.  0.
          2    1    1    2  501    0  0.68252213434E+02  0.96765292531E+01 -0.64853319589E+03  0.65218655769E+03  0.00000000000E+00 0. -1.
          1    1    1    2  502    0 -0.67045591125E+02  0.32337144696E+02  0.41762917258E+03  0.42421094753E+03  0.00000000000E+00 0. -1.
         22    1    3    3    0    0 -0.11985229808E+02 -0.69580426325E+02  0.13761652180E+03  0.15467187376E+03  0.00000000000E+00 0.  1.
         22    1    3    3    0    0  0.10778607499E+02  0.27566752376E+02  0.32585362935E+03  0.32719518942E+03  0.00000000000E+00 0.  1.
</event>
<event>
 7    1  0.5957303E-006  0.8575185E+02  0.7818608E-02  0.1402795E+00
          2   -1    0    0  502    0  0.00000000000E+00  0.00000000000E+00  0.73674875363E+03  0.73674875363E+03  0.00000000000E+00 0. -1.
          1   -1    0    0  501    0 -0.00000000000E+00 -0.00000000000E+00 -0.74566950081E+02  0.74566950081E+02  0.00000000000E+00 0. -1.
         25    2    1    2    0    0  0.10014684505E+03  0.25610530370E+02  0.60515032997E+03  0.62651081702E+03  0.12499436842E+03 0.  0.
          2    1    1    2  501    0 -0.39480818260E+02  0.84001723916E+01 -0.45555001409E+02  0.60865064364E+02  0.00000000000E+00 0. -1.
          1    1    1    2  502    0 -0.60666026788E+02 -0.34010702761E+02  0.10258647498E+03  0.12393982232E+03  0.00000000000E+00 0. -1.
         22    1    3    3    0    0  0.16886893242E+02  0.59142139531E+02  0.36477146795E+03  0.36992050992E+03  0.00000000000E+00 0. -1.
         22    1    3    3    0    0  0.83259951806E+02 -0.33531609162E+02  0.24037886203E+03  0.25659030710E+03  0.00000000000E+00 0. -1.
</event>
<event>
 7    1  0.5957303E-006  0.4417136E+02  0.7818608E-02  0.1494415E+00
          2   -1    0    0  502    0  0.00000000000E+00  0.00000000000E+00  0.17406819852E+04  0.17406819852E+04  0.00000000000E+00 0. -1.
          1   -1    0    0  501    0 -0.00000000000E+00 -0.00000000000E+00 -0.54793002522E+03  0.54793002522E+03  0.00000000000E+00 0. -1.
         25    2    1    2    0    0  0.27710129703E+02 -0.60456034170E+02  0.10174422741E+04  0.10272471745E+04  0.12500077238E+03 0.  0.
          2    1    1    2  501    0 -0.35237590247E+02  0.18540583142E+02 -0.54166500529E+03  0.54312652204E+03  0.00000000000E+00 0. -1.
          1    1    1    2  502    0  0.75274605437E+01  0.41915451028E+02  0.71697469119E+03  0.71823831387E+03  0.00000000000E+00 0. -1.
         22    1    3    3    0    0  0.45574924583E+02  0.16411566430E+02  0.19104216606E+03  0.19708760102E+03  0.00000000000E+00 0.  1.
         22    1    3    3    0    0 -0.17864794880E+02 -0.76867600600E+02  0.82640010804E+03  0.83015957351E+03  0.00000000000E+00 0.  1.
</event>
<event>
 7    1  0.5957303E-006  0.8828965E+02  0.7818608E-02  0.1354380E+00
          2   -1    0    0  502    0  0.00000000000E+00  0.00000000000E+00  0.29684150165E+03  0.29684150165E+03  0.00000000000E+00 0. -1.
          1   -1    0    0  501    0 -0.00000000000E+00 -0.00000000000E+00 -0.25596527048E+04  0.25596527048E+04  0.00000000000E+00 0. -1.
         25    2    1    2    0    0 -0.13185663867E+03  0.49286691411E+02 -0.36483031903E+03  0.41053893797E+03  0.12500282714E+03 0.  0.
          2    1    1    2  501    0  0.45400886184E+02 -0.36478866556E+02 -0.21645965305E+04  0.21653798946E+04  0.00000000000E+00 0. -1.
          1    1    1    2  502    0  0.86455752486E+02 -0.12807824855E+02  0.26661564638E+03  0.28057537385E+03  0.00000000000E+00 0. -1.
         22    1    3    3    0    0 -0.48522309844E+02  0.82893887578E+02 -0.15602071546E+03  0.18321646979E+03  0.00000000000E+00 0.  1.
         22    1    3    3    0    0 -0.83334328825E+02 -0.33607196166E+02 -0.20880960357E+03  0.22732246818E+03  0.00000000000E+00 0.  1.
</event>
<event>
 7    1  0.5957303E-006  0.1164647E+03  0.7818608E-02  0.1370776E+00
          2   -1    0    0  502    0  0.00000000000E+00  0.00000000000E+00  0.21351493767E+03  0.21351493767E+03  0.00000000000E+00 0. -1.
          1   -1    0    0  501    0 -0.00000000000E+00 -0.00000000000E+00 -0.81132718277E+03  0.81132718277E+03  0.00000000000E+00 0. -1.
         25    2    1    2    0    0 -0.19484056310E+01 -0.13219493922E+03 -0.36299334644E+03  0.40603978013E+03  0.12499934101E+03 0.  0.
          2    1    1    2  501    0  0.31620747472E+02  0.10768135906E+03 -0.41739189082E+03  0.43221653981E+03  0.00000000000E+00 0. -1.
          1    1    1    2  502    0 -0.29672341841E+02  0.24513580164E+02  0.18257299215E+03  0.18658580050E+03  0.00000000000E+00 0. -1.
         22    1    3    3    0    0  0.23683238516E+02 -0.35025412480E+02 -0.16699613851E+02  0.45459348969E+02  0.00000000000E+00 0. -1.
         22    1    3    3    0    0 -0.25631644147E+02 -0.97169526743E+02 -0.34629373259E+03  0.36058043116E+03  0.00000000000E+00 0. -1.
</event>
<event>
 7    1  0.5957303E-006  0.1365270E+03  0.7818608E-02  0.1323988E+00
          2   -1    0    0  502    0  0.00000000000E+00  0.00000000000E+00  0.78055238841E+03  0.78055238841E+03  0.00000000000E+00 0. -1.
          1   -1    0    0  501    0 -0.00000000000E+00 -0.00000000000E+00 -0.48316468461E+03  0.48316468461E+03  0.00000000000E+00 0. -1.
         25    2    1    2    0    0  0.33927192280E+02 -0.94591163145E+02  0.11454474204E+03  0.19711450294E+03  0.12504034077E+03 0.  0.
          2    1    1    2  501    0 -0.12571370022E+02  0.13871918858E+03 -0.42989999280E+03  0.45190160038E+03  0.00000000000E+00 0. -1.
          1    1    1    2  502    0 -0.21355822258E+02 -0.44128025434E+02  0.61274295456E+03  0.61470096969E+03  0.00000000000E+00 0. -1.
         22    1    3    3    0    0  0.93634839499E+01  0.64213087090E+01  0.89456059176E+02  0.90173691066E+02  0.00000000000E+00 0. -1.
         22    1    3    3    0    0  0.24563708330E+02 -0.10101247185E+03  0.25088682864E+02  0.10694081188E+03  0.00000000000E+00 0. -1.
</event>
<event>
 7    1  0.5957303E-006  0.7214470E+02  0.7818608E-02  0.1437251E+00
          2   -1    0    0  502    0  0.00000000000E+00  0.00000000000E+00  0.21345238378E+04  0.21345238378E+04  0.00000000000E+00 0. -1.
          1   -1    0    0  501    0 -0.00000000000E+00 -0.00000000000E+00 -0.22671332263E+03  0.22671332263E+03  0.00000000000E+00 0. -1.
         25    2    1    2    0    0 -0.10317634368E+02 -0.36144480846E+02  0.40784900352E+03  0.42822950905E+03  0.12500730251E+03 0.  0.
          2    1    1    2  501    0  0.46446426501E+01  0.72512912917E+02 -0.21022346064E+03  0.22242661408E+03  0.00000000000E+00 0. -1.
          1    1    1    2  502    0  0.56729917179E+01 -0.36368432071E+02  0.17101849723E+04  0.17105810373E+04  0.00000000000E+00 0. -1.
         22    1    3    3    0    0 -0.31470640460E+02 -0.14928550643E+02  0.21954036561E+02  0.41173323361E+02  0.00000000000E+00 0. -1.
         22    1    3    3    0    0  0.21153006092E+02 -0.21215930203E+02  0.38589496696E+03  0.38705618569E+03  0.00000000000E+00 0. -1.
</event>
<event>
 7    1  0.5957303E-006  0.3513375E+02  0.7818608E-02  0.1573962E+00
          2   -1    0    0  502    0  0.00000000000E+00  0.00000000000E+00  0.66323905862E+02  0.66323905862E+02  0.00000000000E+00 0. -1.
          1   -1    0    0  501    0 -0.00000000000E+00 -0.00000000000E+00 -0.16460753827E+04  0.16460753827E+04  0.00000000000E+00 0. -1.
         25    2    1    2    0    0  0.51870284198E+02  0.26155581680E+02 -0.40516876014E+03  0.42797395198E+03  0.12500135417E+03 0.  0.
          2    1    1    2  501    0 -0.17026310263E+02 -0.24331353032E+02 -0.12237639507E+04  0.12241242245E+04  0.00000000000E+00 0. -1.
          1    1    1    2  502    0 -0.34843973935E+02 -0.18242286487E+01  0.49181234050E+02  0.60301112033E+02  0.00000000000E+00 0. -1.
         22    1    3    3    0    0  0.83108182854E+02 -0.54489780008E+01 -0.33269540822E+03  0.34296194551E+03  0.00000000000E+00 0.  1.
         22    1    3    3    0    0 -0.31237898656E+02  0.31604559681E+02 -0.72473351922E+02  0.85012006469E+02  0.00000000000E+00 0.  1.
</event>
<event>
 7    1  0.5957303E-006  0.6986601E+02  0.7818608E-02  0.1398027E+00
          2   -1    0    0  502    0  0.00000000000E+00  0.00000000000E+00  0.16585124035E+03  0.16585124035E+03  0.00000000000E+00 0. -1.
          1   -1    0    0  501    0 -0.00000000000E+00 -0.00000000000E+00 -0.84421906321E+03  0.84421906321E+03  0.00000000000E+00 0. -1.
         25    2    1    2    0    0  0.64439590569E+02  0.30048469575E+02 -0.80091745781E+02  0.16460106049E+03  0.12499379991E+03 0.  0.
          2    1    1    2  501    0 -0.67260808643E+02  0.21321600283E+02 -0.71470526506E+03  0.71817981239E+03  0.00000000000E+00 0. -1.
          1    1    1    2  502    0  0.28212180734E+01 -0.51370069858E+02  0.11642918799E+03  0.12728943068E+03  0.00000000000E+00 0. -1.
         22    1    3    3    0    0 -0.66025589277E+01  0.53138435963E+02  0.20319421019E+01  0.53585594610E+02  0.00000000000E+00 0.  1.
         22    1    3    3    0    0  0.71042149497E+02 -0.23089966388E+02 -0.82123687883E+02  0.11101546588E+03  0.00000000000E+00 0.  1.
</event>
<event>
 7    1  0.5957303E-006  0.8876168E+02  0.7818608E-02  0.1328277E+00
          2   -1    0    0  502    0  0.00000000000E+00  0.00000000000E+00  0.90929878148E+03  0.90929878148E+03  0.00000000000E+00 0. -1.
          1   -1    0    0  501    0 -0.00000000000E+00 -0.00000000000E+00 -0.26147620964E+03  0.26147620964E+03  0.00000000000E+00 0. -1.
         25    2    1    2    0    0 -0.48502638367E+02  0.14867482608E+03  0.22071464529E+03  0.29798795466E+03  0.12500062655E+03 0.  0.
          2    1    1    2  501    0  0.26145513439E+02 -0.67725700645E+02 -0.21411529905E+03  0.22608785833E+03  0.00000000000E+00 0. -1.
          1    1    1    2  502    0  0.22357124928E+02 -0.80949125439E+02  0.64122322559E+03  0.64669917812E+03  0.00000000000E+00 0. -1.
         22    1    3    3    0    0  0.34404934944E+02  0.44314142689E+02  0.25532510305E+02  0.61638882803E+02  0.00000000000E+00 0.  1.
         22    1    3    3    0    0 -0.82907573311E+02  0.10436068339E+03  0.19518213498E+03  0.23634907186E+03  0.00000000000E+00 0.  1.
</event>
<event>
 7    1  0.5957303E-006  0.5905240E+02  0.7818608E-02  0.1489907E+00
          2   -1    0    0  502    0  0.00000000000E+00  0.00000000000E+00  0.16308865094E+04  0.16308865094E+04  0.00000000000E+00 0. -1.
          1   -1    0    0  501    0 -0.00000000000E+00 -0.00000000000E+00 -0.92472211622E+03  0.92472211622E+03  0.00000000000E+00 0. -1.
         25    2    1    2    0    0  0.34482184304E+02 -0.38183157636E+01  0.10394162561E+04  0.10474798906E+04  0.12499746886E+03 0.  0.
          2    1    1    2  501    0 -0.56335776097E+02 -0.17787580440E+02 -0.91933963223E+03  0.92123584226E+03  0.00000000000E+00 0. -1.
          1    1    1    2  502    0  0.21853591793E+02  0.21605896203E+02  0.58608776929E+03  0.58689289273E+03  0.00000000000E+00 0. -1.
         22    1    3    3    0    0  0.68076940394E+01  0.59398638378E+02  0.54533763968E+03  0.54860521706E+03  0.00000000000E+00 0.  1.
         22    1    3    3    0    0  0.27674490264E+02 -0.63216954142E+02  0.49407861644E+03  0.49887467356E+03  0.00000000000E+00 0.  1.
</event>
<event>
 7    1  0.5957303E-006  0.7582990E+02  0.7818608E-02  0.1361421E+00
          2   -1    0    0  502    0  0.00000000000E+00  0.00000000000E+00  0.76411312813E+03  0.76411312813E+03  0.00000000000E+00 0. -1.
          1   -1    0    0  501    0 -0.00000000000E+00 -0.00000000000E+00 -0.10094887712E+03  0.10094887712E+03  0.00000000000E+00 0. -1.
         25    2    1    2    0    0 -0.38580682819E+02 -0.37331882784E+02  0.42504679645E+03  0.44628601364E+03  0.12499715292E+03 0.  0.
          2    1    1    2  501    0 -0.11761474745E+02  0.76691047676E+02 -0.69759597638E+02  0.10433719636E+03  0.00000000000E+00 0. -1.
          1    1    1    2  502    0  0.50342157564E+02 -0.39359164892E+02  0.30787705220E+03  0.31443879525E+03  0.00000000000E+00 0. -1.
         22    1    3    3    0    0  0.42026174280E+02  0.82253079273E+01  0.11525379894E+03  0.12295240212E+03  0.00000000000E+00 0.  1.
         22    1    3    3    0    0 -0.80606857098E+02 -0.45557190711E+02  0.30979299750E+03  0.32333361152E+03  0.00000000000E+00 0.  1.
</event>
<event>
 7    1  0.5957303E-006  0.2360889E+03  0.7818608E-02  0.1168987E+00
          2   -1    0    0  502    0  0.00000000000E+00  0.00000000000E+00  0.14714890351E+04  0.14714890351E+04  0.00000000000E+00 0. -1.
          1   -1    0    0  501    0 -0.00000000000E+00 -0.00000000000E+00 -0.54666928083E+03  0.54666928083E+03  0.00000000000E+00 0. -1.
         25    2    1    2    0    0  0.45083782585E+02  0.13085399040E+03  0.87598173100E+02  0.20604597635E+03  0.12500476065E+03 0.  0.
          2    1    1    2  501    0 -0.15516167869E+03 -0.20967040765E+03 -0.44874104037E+03  0.51904272242E+03  0.00000000000E+00 0. -1.
          1    1    1    2  502    0  0.11007789611E+03  0.78816417251E+02  0.12859626216E+04  0.12930696172E+04  0.00000000000E+00 0. -1.
         22    1    3    3    0    0  0.53402486897E+02  0.12534850607E+03  0.19993352548E+02  0.13770914177E+03  0.00000000000E+00 0. -1.
         22    1    3    3    0    0 -0.83187043120E+01  0.55054843322E+01  0.67604820552E+02  0.68336834584E+02  0.00000000000E+00 0. -1.
</event>
<event>
 7    1  0.5957303E-006  0.1561819E+03  0.7818608E-02  0.1395011E+00
          2   -1    0    0  502    0  0.00000000000E+00  0.00000000000E+00  0.19949311664E+04  0.19949311664E+04  0.00000000000E+00 0. -1.
          1   -1    0    0  501    0 -0.00000000000E+00 -0.00000000000E+00 -0.18084385405E+03  0.18084385405E+03  0.00000000000E+00 0. -1.
         25    2    1    2    0    0 -0.89752970568E+02  0.14753031095E+03  0.34599971819E+03  0.40640229586E+03  0.12500493075E+03 0.  0.
          2    1    1    2  501    0  0.67848850546E+02 -0.13881754436E+03 -0.11091152826E+03  0.19019764521E+03  0.00000000000E+00 0. -1.
          1    1    1    2  502    0  0.21904120022E+02 -0.87127665918E+01  0.15789991224E+04  0.15791750794E+04  0.00000000000E+00 0. -1.
         22    1    3    3    0    0 -0.29289365027E+02  0.71643519998E+02  0.27629402301E+03  0.28693038879E+03  0.00000000000E+00 0. -1.
         22    1    3    3    0    0 -0.60463605541E+02  0.75886790956E+02  0.69705695184E+02  0.11947190706E+03  0.00000000000E+00 0. -1.
</event>
<event>
 7    1  0.5957303E-006  0.6395941E+02  0.7818608E-02  0.1439088E+00
          2   -1    0    0  502    0  0.00000000000E+00  0.00000000000E+00  0.27328993806E+03  0.27328993806E+03  0.00000000000E+00 0. -1.
          1   -1    0    0  501    0 -0.00000000000E+00 -0.00000000000E+00 -0.76197728784E+02  0.76197728784E+02  0.00000000000E+00 0. -1.
         25    2    1    2    0    0  0.70148435150E+01  0.32481585421E+02  0.78698457121E+02  0.15138527215E+03  0.12497916646E+03 0.  0.
          2    1    1    2  501    0 -0.20458884691E+02 -0.71163118089E+02  0.13030469429E+01  0.74057094665E+02  0.00000000000E+00 0. -1.
          1    1    1    2  502    0  0.13444041176E+02  0.38681532668E+02  0.11709070521E+03  0.12404530003E+03  0.00000000000E+00 0. -1.
         22    1    3    3    0    0 -0.34555740391E+02  0.54872764504E+02  0.65735308292E+01  0.65179220506E+02  0.00000000000E+00 0.  1.
         22    1    3    3    0    0  0.41570583906E+02 -0.22391179083E+02  0.72124926292E+02  0.86206051642E+02  0.00000000000E+00 0.  1.
</event>
<event>
 7    1  0.5957303E-006  0.1355186E+03  0.7818608E-02  0.1223652E+00
          2   -1    0    0  502    0  0.00000000000E+00  0.00000000000E+00  0.18989169381E+04  0.18989169381E+04  0.00000000000E+00 0. -1.
          1   -1    0    0  501    0 -0.00000000000E+00 -0.00000000000E+00 -0.27856581857E+03  0.27856581857E+03  0.00000000000E+00 0. -1.
         25    2    1    2    0    0  0.17498826486E+00 -0.68951722702E+02  0.52434574058E+03  0.54343295204E+03  0.12500618789E+03 0.  0.
          2    1    1    2  501    0 -0.12888775659E+03  0.52664625295E+02 -0.24767115406E+03  0.28412429869E+03  0.00000000000E+00 0. -1.
          1    1    1    2  502    0  0.12871276832E+03  0.16287097408E+02  0.13436765330E+04  0.13499255059E+04  0.00000000000E+00 0. -1.
         22    1    3    3    0    0  0.57100852181E+02 -0.33181981986E+02  0.16273155562E+03  0.17562206707E+03  0.00000000000E+00 0.  1.
         22    1    3    3    0    0 -0.56925863916E+02 -0.35769740716E+02  0.36161418496E+03  0.36781088497E+03  0.00000000000E+00 0.  1.
</event>
<event>
 7    1  0.5957303E-006  0.1192299E+03  0.7818608E-02  0.1406577E+00
          2   -1    0    0  502    0  0.00000000000E+00  0.00000000000E+00  0.19642750979E+04  0.19642750979E+04  0.00000000000E+00 0. -1.
          1   -1    0    0  501    0 -0.00000000000E+00 -0.00000000000E+00 -0.19602441997E+02  0.19602441997E+02  0.00000000000E+00 0. -1.
         25    2    1    2    0    0 -0.65696945357E+02  0.78093809764E+02  0.57961404028E+03  0.60165745432E+03  0.12499809959E+03 0.  0.
          2    1    1    2  501    0 -0.28011983072E+02  0.30737669933E+01  0.29052582490E+02  0.40474334936E+02  0.00000000000E+00 0. -1.
          1    1    1    2  502    0  0.93708928430E+02 -0.81167576757E+02  0.13360060331E+04  0.13417457506E+04  0.00000000000E+00 0. -1.
         22    1    3    3    0    0  0.37744328729E+02  0.21617460165E+02  0.16001686549E+03  0.16582323775E+03  0.00000000000E+00 0. -1.
         22    1    3    3    0    0 -0.10344127409E+03  0.56476349599E+02  0.41959717478E+03  0.43583421657E+03  0.00000000000E+00 0. -1.
</event>
<event>
 7    1  0.5957303E-006  0.7318125E+02  0.7818608E-02  0.1479629E+00
          2   -1    0    0  502    0  0.00000000000E+00  0.00000000000E+00  0.15453652992E+03  0.15453652992E+03  0.00000000000E+00 0. -1.
          1   -1    0    0  501    0 -0.00000000000E+00 -0.00000000000E+00 -0.15030256077E+04  0.15030256077E+04  0.00000000000E+00 0. -1.
         25    2    1    2    0    0 -0.62944085542E+02  0.57232680809E+02 -0.84373669511E+02  0.17315098403E+03  0.12499923802E+03 0.  0.
          2    1    1    2  501    0 -0.26187699165E+01 -0.26523403837E+02 -0.13622222161E+04  0.13624829228E+04  0.00000000000E+00 0. -1.
          1    1    1    2  502    0  0.65562855459E+02 -0.30709276972E+02  0.98106807859E+02  0.12192823076E+03  0.00000000000E+00 0. -1.
         22    1    3    3    0    0 -0.11912842699E+02 -0.49886847026E+01  0.30369813906E+02  0.33001945290E+02  0.00000000000E+00 0. -1.
         22    1    3    3    0    0 -0.51031242843E+02  0.62221365511E+02 -0.11474348342E+03  0.14014903874E+03  0.00000000000E+00 0. -1.
</event>
<event>
 7    1  0.5957303E-006  0.5895010E+02  0.7818608E-02  0.1454126E+00
          2   -1    0    0  502    0  0.00000000000E+00  0.00000000000E+00  0.27770406331E+04  0.27770406331E+04  0.00000000000E+00 0. -1.
          1   -1    0    0  501    0 -0.00000000000E+00 -0.00000000000E+00 -0.19146227736E+04  0.19146227736E+04  0.00000000000E+00 0. -1.
         25    2    1    2    0    0 -0.27998089735E+02 -0.54005188742E+02  0.13046301583E+03  0.19064492409E+03  0.12499774055E+03 0.  0.
          2    1    1    2  501    0  0.39555531742E+02 -0.39289233574E+01 -0.18839886881E+04  0.18844079849E+04  0.00000000000E+00 0. -1.
          1    1    1    2  502    0 -0.11557442007E+02  0.57934112100E+02  0.26159435318E+04  0.26166104978E+04  0.00000000000E+00 0. -1.
         22    1    3    3    0    0 -0.65336235863E+02 -0.21354345300E+01  0.30832342589E+02  0.72277362618E+02  0.00000000000E+00 0.  1.
         22    1    3    3    0    0  0.37338146128E+02 -0.51869754212E+02  0.99630673237E+02  0.11836756147E+03  0.00000000000E+00 0.  1.
</event>
<event>
 7    1  0.5957303E-006  0.1477911E+03  0.7818608E-02  0.1284452E+00
          2   -1    0    0  502    0  0.00000000000E+00  0.00000000000E+00  0.18860304411E+03  0.18860304411E+03  0.00000000000E+00 0. -1.
          1   -1    0    0  501    0 -0.00000000000E+00 -0.00000000000E+00 -0.57264741728E+03  0.57264741728E+03  0.00000000000E+00 0. -1.
         25    2    1    2    0    0  0.19374579001E+03  0.50196584375E+02 -0.27828002424E+03  0.36485931119E+03  0.12500166736E+03 0.  0.
          2    1    1    2  501    0 -0.51949971214E+02 -0.39148501707E+02 -0.21013869147E+03  0.21997653136E+03  0.00000000000E+00 0. -1.
          1    1    1    2  502    0 -0.14179581879E+03 -0.11048082668E+02  0.10437434254E+03  0.17641461884E+03  0.00000000000E+00 0. -1.
         22    1    3    3    0    0  0.17762000760E+03  0.62682402341E+02 -0.28650003699E+03  0.34287056138E+03  0.00000000000E+00 0.  1.
         22    1    3    3    0    0  0.16125782412E+02 -0.12485817966E+02  0.82200127537E+01  0.21988749813E+02  0.00000000000E+00 0.  1.
</event>
<event>
 7    1  0.5957303E-006  0.3314922E+02  0.7818608E-02  0.1594168E+00
          2   -1    0    0  502    0  0.00000000000E+00  0.00000000000E+00  0.19208748634E+04  0.19208748634E+04  0.00000000000E+00 0. -1.
          1   -1    0    0  501    0 -0.00000000000E+00 -0.00000000000E+00 -0.15043099933E+02  0.15043099933E+02  0.00000000000E+00 0. -1.
         25    2    1    2    0    0 -0.56835904400E+02  0.18484727585E+02  0.73085767750E+03  0.74387476318E+03  0.12499885337E+03 0.  0.
          2    1    1    2  501    0  0.29962943819E+02 -0.11360559216E+02  0.22314512293E+02  0.39048402873E+02  0.00000000000E+00 0. -1.
          1    1    1    2  502    0  0.26872960581E+02 -0.71241683687E+01  0.11526595736E+04  0.11529947972E+04  0.00000000000E+00 0. -1.
         22    1    3    3    0    0 -0.73155826345E+02  0.57203620673E+02  0.41689580695E+03  0.42711373544E+03  0.00000000000E+00 0.  1.
         22    1    3    3    0    0  0.16319921945E+02 -0.38718893089E+02  0.31396187055E+03  0.31676102774E+03  0.00000000000E+00 0.  1.
</event>
<event>
 7    1  0.5957303E-006  0.2358530E+03  0.7818608E-02  0.1233501E+00
          2   -1    0    0  502    0  0.00000000000E+00  0.00000000000E+00  0.13230260333E+04  0.13230260333E+04  0.00000000000E+00 0. -1.
          1   -1    0    0  501    0 -0.00000000000E+00 -0.00000000000E+00 -0.31765382072E+03  0.31765382072E+03  0.00000000000E+00 0. -1.
         25    2    1    2    0    0  0.21483012693E+03 -0.56758980693E+01 -0.63510501980E+02  0.25660047907E+03  0.12500409089E+03 0.  0.
          2    1    1    2  501    0 -0.25544916448E+03  0.59364112840E+02 -0.46772708331E+02  0.26639455658E+03  0.00000000000E+00 0. -1.
          1    1    1    2  502    0  0.40619037554E+02 -0.53688214771E+02  0.11156554229E+04  0.11176848183E+04  0.00000000000E+00 0. -1.
         22    1    3    3    0    0  0.12825962297E+00  0.30832584350E+02 -0.79075782522E+01  0.31830716329E+02  0.00000000000E+00 0.  1.
         22    1    3    3    0    0  0.21470186731E+03 -0.36508482419E+02 -0.55602923728E+02  0.22476976274E+03  0.00000000000E+00 0.  1.
</event>
<event>
 7    1  0.5957303E-006  0.1089545E+03  0.7818608E-02  0.1316266E+00
          2   -1    0    0  502    0  0.00000000000E+00  0.00000000000E+00  0.18797613823E+04  0.18797613823E+04  0.00000000000E+00 0. -1.
          1   -1    0    0  501    0 -0.00000000000E+00 -0.00000000000E+00 -0.99666031693E+02  0.99666031693E+02  0.00000000000E+00 0. -1.
         25    2    1    2    0    0 -0.34982124512E+02  0.15594308446E+03  0.13151177742E+03  0.24179198024E+03  0.12500407786E+03 0.  0.
          2    1    1    2  501    0  0.29540261612E+02 -0.90351380605E+02  0.76312368706E+01  0.95363697545E+02  0.00000000000E+00 0. -1.
          1    1    1    2  502    0  0.54418628998E+01 -0.65591703852E+02  0.16409523364E+04  0.16422717363E+04  0.00000000000E+00 0. -1.
         22    1    3    3    0    0  0.12455024424E+02  0.13021125789E+03  0.13466152855E+03  0.18773339230E+03  0.00000000000E+00 0. -1.
         22    1    3    3    0    0 -0.47437148936E+02  0.25731826566E+02 -0.31497511271E+01  0.54058587937E+02  0.00000000000E+00 0. -1.
</event>
<event>
 7    1  0.5957303E-006  0.5523778E+02  0.7818608E-02  0.1423412E+00
          2   -1    0    0  502    0  0.00000000000E+00  0.00000000000E+00  0.82827700652E+03  0.82827700652E+03  0.00000000000E+00 0. -1.
          1   -1    0    0  501    0 -0.00000000000E+00 -0.00000000000E+00 -0.32493503474E+03  0.32493503474E+03  0.00000000000E+00 0. -1.
         25    2    1    2    0    0 -0.13941761765E+01 -0.23804918893E+02  0.13805790675E+03  0.18776012481E+03  0.12500104384E+03 0.  0.
          2    1    1    2  501    0 -0.53391408837E+02  0.14162249051E+02 -0.29636487804E+03  0.30146865969E+03  0.00000000000E+00 0. -1.
          1    1    1    2  502    0  0.54785585014E+02  0.96426698422E+01  0.66164894306E+03  0.66398325677E+03  0.00000000000E+00 0. -1.
         22    1    3    3    0    0  0.12629351116E+02  0.47612573964E+02  0.82933449393E+02  0.96459394241E+02  0.00000000000E+00 0. -1.
         22    1    3    3    0    0 -0.14023527293E+02 -0.71417492857E+02  0.55124457356E+02  0.91300730569E+02  0.00000000000E+00 0. -1.
</event>
<event>
 7    1  0.5957303E-006  0.1772646E+03  0.7818608E-02  0.1292373E+00
          2   -1    0    0  502    0  0.00000000000E+00  0.00000000000E+00  0.53819622405E+03  0.53819622405E+03  0.00000000000E+00 0. -1.
          1   -1    0    0  501    0 -0.00000000000E+00 -0.00000000000E+00 -0.94607958269E+03  0.94607958269E+03  0.00000000000E+00 0. -1.
         25    2    1    2    0    0 -0.10952453586E+03 -0.19576682148E+03  0.73146485640E+01  0.25690631091E+03  0.12500830434E+03 0.  0.
          2    1    1    2  501    0  0.84681682694E+02  0.15197633348E+03 -0.81045544986E+03  0.82891846977E+03  0.00000000000E+00 0. -1.
          1    1    1    2  502    0  0.24842853169E+02  0.43790487997E+02  0.39525744266E+03  0.39845102606E+03  0.00000000000E+00 0. -1.
         22    1    3    3    0    0 -0.49272521373E+01 -0.11497858639E+03  0.38057975853E+02  0.12121370660E+03  0.00000000000E+00 0.  1.
         22    1    3    3    0    0 -0.10459728373E+03 -0.80788235088E+02 -0.30743327289E+02  0.13569260431E+03  0.00000000000E+00 0.  1.
</event>
<event>
 7    1  0.5957303E-006  0.3371438E+02  0.7818608E-02  0.1575179E+00
          2   -1    0    0  502    0  0.00000000000E+00  0.00000000000E+00  0.39439836003E+03  0.39439836003E+03  0.00000000000E+00 0. -1.
          1   -1    0    0  501    0 -0.00000000000E+00 -0.00000000000E+00 -0.77816105395E+03  0.77816105395E+03  0.00000000000E+00 0. -1.
         25    2    1    2    0    0  0.58196689827E+01 -0.65919047098E+01  0.16893833420E+03  0.21033901455E+03  0.12500007409E+03 0.  0.
          2    1    1    2  501    0  0.30005644951E+02  0.65579611598E+01 -0.75557929955E+03  0.75620329508E+03  0.00000000000E+00 0. -1.
          1    1    1    2  502    0 -0.35825313933E+02  0.33943550023E-01  0.20287827142E+03  0.20601710435E+03  0.00000000000E+00 0. -1.
         22    1    3    3    0    0  0.39095795038E+01  0.31055896815E+02  0.16977218621E+03  0.17263356785E+03  0.00000000000E+00 0. -1.
         22    1    3    3    0    0  0.19100894789E+01 -0.37647801525E+02 -0.83385200789E+00  0.37705446697E+02  0.00000000000E+00 0. -1.
</event>
<event>
 7    1  0.5957303E-006  0.8685897E+02  0.7818608E-02  0.1441307E+00
          2   -1    0    0  502    0  0.00000000000E+00  0.00000000000E+00  0.13603256856E+03  0.13603256856E+03  0.00000000000E+00 0. -1.
          1   -1    0    0  501    0 -0.00000000000E+00 -0.00000000000E+00 -0.34079427612E+03  0.34079427612E+03  0.00000000000E+00 0. -1.
         25    2    1    2    0    0  0.37800316403E+02  0.86247856471E+02 -0.14487337288E+02  0.15716932022E+03  0.12499902244E+03 0.  0.
          2    1    1    2  501    0  0.19302636090E+02 -0.22518159332E+02 -0.22526556756E+03  0.22720967231E+03  0.00000000000E+00 0. -1.
          1    1    1    2  502    0 -0.57102952493E+02 -0.63729697139E+02  0.34991197290E+02  0.92447852158E+02  0.00000000000E+00 0. -1.
         22    1    3    3    0    0  0.25360776669E+02  0.11643354423E+03  0.47804626360E+01  0.11925934781E+03  0.00000000000E+00 0. -1.
         22    1    3    3    0    0  0.12439539734E+02 -0.30185687763E+02 -0.19267799924E+02  0.37909972414E+02  0.00000000000E+00 0. -1.
</event>
<event>
 7    1  0.5957303E-006  0.7587146E+02  0.7818608E-02  0.1343310E+00
          2   -1    0    0  502    0  0.00000000000E+00  0.00000000000E+00  0.10840919505E+03  0.10840919505E+03  0.00000000000E+00 0. -1.
          1   -1    0    0  501    0 -0.00000000000E+00 -0.00000000000E+00 -0.33549213280E+03  0.33549213280E+03  0.00000000000E+00 0. -1.
         25    2    1    2    0    0  0.77941691900E+02 -0.23635986942E+02 -0.15608864697E+02  0.15000758355E+03  0.12500028500E+03 0.  0.
          2    1    1    2  501    0 -0.21488137982E+02  0.74325976231E+02 -0.20337073353E+03  0.21759077663E+03  0.00000000000E+00 0. -1.
          1    1    1    2  502    0 -0.56453553918E+02 -0.50689989289E+02 -0.81033395173E+01  0.76302967671E+02  0.00000000000E+00 0. -1.
         22    1    3    3    0    0  0.10755579024E+02 -0.36254486064E+02 -0.58242080722E+02  0.69442135672E+02  0.00000000000E+00 0.  1.
         22    1    3    3    0    0  0.67186112876E+02  0.12618499122E+02  0.42633216025E+02  0.80565447880E+02  0.00000000000E+00 0.  1.
</event>
<event>
 7    1  0.5957303E-006  0.8908969E+02  0.7818608E-02  0.1324265E+00
          2   -1    0    0  502    0  0.00000000000E+00  0.00000000000E+00  0.14978762525E+04  0.14978762525E+04  0.00000000000E+00 0. -1.
          1   -1    0    0  501    0 -0.00000000000E+00 -0.00000000000E+00 -0.20456162044E+03  0.20456162044E+03  0.00000000000E+00 0. -1.
         25    2    1    2    0    0 -0.57394027201E+02 -0.33609344218E+02  0.11153068055E+03  0.18024341721E+03  0.12499973746E+03 0.  0.
          2    1    1    2  501    0  0.48355057966E+02 -0.57256382691E+02 -0.16032835185E+03  0.17697933608E+03  0.00000000000E+00 0. -1.
          1    1    1    2  502    0  0.90389692350E+01  0.90865726910E+02  0.13421123034E+04  0.13452151197E+04  0.00000000000E+00 0. -1.
         22    1    3    3    0    0 -0.59874324519E+02 -0.87390531663E-01  0.12910473406E+03  0.14231294646E+03  0.00000000000E+00 0. -1.
         22    1    3    3    0    0  0.24802973173E+01 -0.33521953687E+02 -0.17574053518E+02  0.37930470743E+02  0.00000000000E+00 0. -1.
</event>
<event>
 7    1  0.5957303E-006  0.3524407E+03  0.7818608E-02  0.1070248E+00
          2   -1    0    0  502    0  0.00000000000E+00  0.00000000000E+00  0.21712259585E+04  0.21712259585E+04  0.00000000000E+00 0. -1.
          1   -1    0    0  501    0 -0.00000000000E+00 -0.00000000000E+00 -0.26206083625E+04  0.26206083625E+04  0.00000000000E+00 0. -1.
         25    2    1    2    0    0 -0.24257819991E+03 -0.46126969868E+03 -0.82167637332E+03  0.98101514111E+03  0.12499890649E+03 0.  0.
          2    1    1    2  501    0  0.29554135513E+03  0.15301031579E+03 -0.16912614779E+04  0.17236943569E+04  0.00000000000E+00 0. -1.
          1    1    1    2  502    0 -0.52963155217E+02  0.30825938288E+03  0.20635554472E+04  0.20871248229E+04  0.00000000000E+00 0. -1.
         22    1    3    3    0    0  0.12960862661E+02 -0.40596991048E+02 -0.49625631512E+02  0.65412559543E+02  0.00000000000E+00 0.  1.
         22    1    3    3    0    0 -0.25553906257E+03 -0.42067270763E+03 -0.77205074181E+03  0.91560258157E+03  0.00000000000E+00 0.  1.
</event>
<event>
 7    1  0.5957303E-006  0.1762623E+03  0.7818608E-02  0.1229185E+00
          2   -1    0    0  502    0  0.00000000000E+00  0.00000000000E+00  0.85066510199E+03  0.85066510199E+03  0.00000000000E+00 0. -1.
          1   -1    0    0  501    0 -0.00000000000E+00 -0.00000000000E+00 -0.23374956398E+04  0.23374956398E+04  0.00000000000E+00 0. -1.
         25    2    1    2    0    0 -0.14390449878E+03  0.37595131664E+02 -0.11775009196E+04  0.11934217274E+04  0.12500042036E+03 0.  0.
          2    1    1    2  501    0  0.17940299233E+03 -0.12482727398E+03 -0.11389803013E+04  0.11597600651E+04  0.00000000000E+00 0. -1.
          1    1    1    2  502    0 -0.35498493555E+02  0.87232142320E+02  0.82965068309E+03  0.83497894923E+03  0.00000000000E+00 0. -1.
         22    1    3    3    0    0 -0.78115265013E+02  0.58981346003E+02 -0.36225113800E+03  0.37524216286E+03  0.00000000000E+00 0. -1.
         22    1    3    3    0    0 -0.65789233765E+02 -0.21386214339E+02 -0.81524978162E+03  0.81817956456E+03  0.00000000000E+00 0. -1.
</event>
<event>
 7    1  0.5957303E-006  0.5804468E+02  0.7818608E-02  0.1515474E+00
          2   -1    0    0  502    0  0.00000000000E+00  0.00000000000E+00  0.39997756726E+04  0.39997756726E+04  0.00000000000E+00 0. -1.
          1   -1    0    0  501    0 -0.00000000000E+00 -0.00000000000E+00 -0.94446677693E+03  0.94446677693E+03  0.00000000000E+00 0. -1.
         25    2    1    2    0    0  0.33049819652E+02 -0.26932682636E+01  0.35536741867E+03  0.37816590963E+03  0.12499563465E+03 0.  0.
          2    1    1    2  501    0  0.23967997104E+02 -0.10690544788E+02 -0.93264689179E+03  0.93301606492E+03  0.00000000000E+00 0. -1.
          1    1    1    2  502    0 -0.57017816756E+02  0.13383813052E+02  0.36325883688E+04  0.36330604750E+04  0.00000000000E+00 0. -1.
         22    1    3    3    0    0 -0.13524405366E+02  0.53292281461E+02  0.18200862396E+03  0.19013183847E+03  0.00000000000E+00 0. -1.
         22    1    3    3    0    0  0.46574225018E+02 -0.55985549725E+02  0.17335879471E+03  0.18803407117E+03  0.00000000000E+00 0. -1.
</event>
<event>
 7    1  0.5957303E-006  0.6564650E+02  0.7818608E-02  0.1384117E+00
          2   -1    0    0  502    0  0.00000000000E+00  0.00000000000E+00  0.77053765331E+03  0.77053765331E+03  0.00000000000E+00 0. -1.
          1   -1    0    0  501    0 -0.00000000000E+00 -0.00000000000E+00 -0.12072588607E+04  0.12072588607E+04  0.00000000000E+00 0. -1.
         25    2    1    2    0    0 -0.38342328827E+01 -0.57828693354E+02 -0.10534715988E+03  0.17344870171E+03  0.12501027522E+03 0.  0.
          2    1    1    2  501    0  0.58959781705E+02  0.31204372292E+02 -0.10655439386E+04  0.10676300173E+04  0.00000000000E+00 0. -1.
          1    1    1    2  502    0 -0.55125548823E+02  0.26624321062E+02  0.73416989106E+03  0.73671779505E+03  0.00000000000E+00 0. -1.
         22    1    3    3    0    0  0.41443615988E+02 -0.74305594968E+02 -0.87557264808E+02  0.12208672889E+03  0.00000000000E+00 0. -1.
         22    1    3    3    0    0 -0.45277848870E+02  0.16476901614E+02 -0.17789895073E+02  0.51361972819E+02  0.00000000000E+00 0. -1.
</event>
<event>
 7    1  0.5957303E-006  0.1088506E+03  0.7818608E-02  0.1305898E+00
          2   -1    0    0  502    0  0.00000000000E+00  0.00000000000E+00  0.84544414303E+03  0.84544414303E+03  0.00000000000E+00 0. -1.
          1   -1    0    0  501    0 -0.00000000000E+00 -0.00000000000E+00 -0.14439493102E+03  0.14439493102E+03  0.00000000000E+00 0. -1.
         25    2    1    2    0    0  0.68210481526E+02 -0.11993985574E+03  0.28807561633E+02  0.18839865170E+03  0.12500375023E+03 0.  0.
          2    1    1    2  501    0 -0.89219489697E+02  0.50689393008E+02 -0.20741615695E+02  0.10468880803E+03  0.00000000000E+00 0. -1.
          1    1    1    2  502    0  0.21009008170E+02  0.69250462728E+02  0.69298326607E+03  0.69675161432E+03  0.00000000000E+00 0. -1.
         22    1    3    3    0    0  0.36768013749E+02 -0.14218696279E+03  0.29853353793E+02  0.14986741459E+03  0.00000000000E+00 0.  1.
         22    1    3    3    0    0  0.31442467778E+02  0.22247107054E+02 -0.10457921598E+01  0.38531237113E+02  0.00000000000E+00 0.  1.
</event>
<event>
 7    1  0.5957303E-006  0.1025511E+03  0.7818608E-02  0.1295196E+00
          2   -1    0    0  502    0  0.00000000000E+00  0.00000000000E+00  0.43830145812E+04  0.43830145812E+04  0.00000000000E+00 0. -1.
          1   -1    0    0  501    0 -0.00000000000E+00 -0.00000000000E+00 -0.69100241408E+02  0.69100241408E+02  0.00000000000E+00 0. -1.
         25    2    1    2    0    0 -0.10424496572E+03  0.23631085228E+01  0.24008550639E+03  0.29006444205E+03  0.12499493191E+03 0.  0.
          2    1    1    2  501    0  0.33572485754E+02 -0.77838361956E+02 -0.21140907015E+01  0.84796177810E+02  0.00000000000E+00 0. -1.
          1    1    1    2  502    0  0.70672479963E+02  0.75475253433E+02  0.40759429241E+04  0.40772542027E+04  0.00000000000E+00 0. -1.
         22    1    3    3    0    0 -0.10793801870E+03 -0.43411134636E+02  0.16143343692E+03  0.19898717810E+03  0.00000000000E+00 0. -1.
         22    1    3    3    0    0  0.36930529818E+01  0.45774243159E+02  0.78652069469E+02  0.91077263951E+02  0.00000000000E+00 0. -1.
</event>
<event>
 7    1  0.5957303E-006  0.6877310E+02  0.7818608E-02  0.1364418E+00
          2   -1    0    0  502    0  0.00000000000E+00  0.00000000000E+00  0.88771060210E+03  0.88771060210E+03  0.00000000000E+00 0. -1.
          1   -1    0    0  501    0 -0.00000000000E+00 -0.00000000000E+00 -0.52762225602E+03  0.52762225602E+03  0.00000000000E+00 0. -1.
         25    2    1    2    0    0  0.30785141305E+02  0.92695668414E+02  0.11021850982E+03  0.19316849134E+03  0.12500293705E+03 0.  0.
          2    1    1    2  501    0 -0.61302826827E+02 -0.31129938229E+02 -0.48209916572E+03  0.48697711981E+03  0.00000000000E+00 0. -1.
          1    1    1    2  502    0  0.30517685522E+02 -0.61565730185E+02  0.73196900198E+03  0.73518724698E+03  0.00000000000E+00 0. -1.
         22    1    3    3    0    0  0.26648956601E+02  0.66148858117E+02 -0.81590890764E+01  0.71780283174E+02  0.00000000000E+00 0.  1.
         22    1    3    3    0    0  0.41361847045E+01  0.26546810297E+02  0.11837759889E+03  0.12138820816E+03  0.00000000000E+00 0.  1.
</event>
<event>
 7    1  0.5957303E-006  0.3162226E+03  0.7818608E-02  0.1253834E+00
          2   -1    0    0  502    0  0.00000000000E+00  0.00000000000E+00  0.36866678089E+04  0.36866678089E+04  0.00000000000E+00 0. -1.
          1   -1    0    0  501    0 -0.00000000000E+00 -0.00000000000E+00 -0.71011801404E+02  0.71011801404E+02  0.00000000000E+00 0. -1.
         25    2    1    2    0    0 -0.29929601787E+03 -0.43656257456E+02  0.99304552676E+03  0.10455851904E+04  0.12499998814E+03 0.  0.
          2    1    1    2  501    0 -0.22450481964E+02  0.34181904625E+02 -0.23037021922E+02  0.46937523617E+02  0.00000000000E+00 0. -1.
          1    1    1    2  502    0  0.32174649983E+03  0.94743528308E+01  0.26456475027E+04  0.26651568963E+04  0.00000000000E+00 0. -1.
         22    1    3    3    0    0 -0.14961072544E+03 -0.73341628798E+01  0.29621832219E+03  0.33193742409E+03  0.00000000000E+00 0. -1.
         22    1    3    3    0    0 -0.14968529243E+03 -0.36322094576E+02  0.69682720458E+03  0.71364776631E+03  0.00000000000E+00 0. -1.
</event>
<event>
 7    1  0.5957303E-006  0.5600432E+02  0.7818608E-02  0.1513290E+00
          2   -1    0    0  502    0  0.00000000000E+00  0.00000000000E+00  0.22639350697E+03  0.22639350697E+03  0.00000000000E+00 0. -1.
          1   -1    0    0  501    0 -0.00000000000E+00 -0.00000000000E+00 -0.16842630016E+04  0.16842630016E+04  0.00000000000E+00 0. -1.
         25    2    1    2    0    0  0.15976410982E+02  0.80281367028E+02 -0.35136026548E+03  0.38181052366E+03  0.12499958487E+03 0.  0.
          2    1    1    2  501    0 -0.12438879706E+02 -0.24641916440E+02 -0.13138502718E+04  0.13141402081E+04  0.00000000000E+00 0. -1.
          1    1    1    2  502    0 -0.35375312761E+01 -0.55639450588E+02  0.20734104271E+03  0.21470577677E+03  0.00000000000E+00 0. -1.
         22    1    3    3    0    0 -0.57835450168E+01  0.89788525609E+02 -0.12394775333E+03  0.15316159532E+03  0.00000000000E+00 0.  1.
         22    1    3    3    0    0  0.21759955999E+02 -0.95071585807E+01 -0.22741251215E+03  0.22864892834E+03  0.00000000000E+00 0.  1.
</event>
<event>
 7    1  0.5957303E-006  0.1688656E+03  0.7818608E-02  0.1220487E+00
          2   -1    0    0  502    0  0.00000000000E+00  0.00000000000E+00  0.24766884224E+04  0.24766884224E+04  0.00000000000E+00 0. -1.
          1   -1    0    0  501    0 -0.00000000000E+00 -0.00000000000E+00 -0.12324276385E+03  0.12324276385E+03  0.00000000000E+00 0. -1.
         25    2    1    2    0    0  0.87781460855E+02  0.12250090817E+03  0.30007286069E+03  0.35830224925E+03  0.12499889088E+03 0.  0.
          2    1    1    2  501    0  0.79571872840E+02 -0.72465603041E+02 -0.58533335734E+02  0.12251162379E+03  0.00000000000E+00 0. -1.
          1    1    1    2  502    0 -0.16735333370E+03 -0.50035305128E+02  0.21119061336E+04  0.21191173132E+04  0.00000000000E+00 0. -1.
         22    1    3    3    0    0  0.46455439703E+02  0.50357334230E+02  0.28354024692E+02  0.74147958199E+02  0.00000000000E+00 0. -1.
         22    1    3    3    0    0  0.41326021152E+02  0.72143573938E+02  0.27171883600E+03  0.28415429105E+03  0.00000000000E+00 0. -1.
</event>
<event>
 7    1  0.5957303E-006  0.1175621E+03  0.7818608E-02  0.1452130E+00
          2   -1    0    0  502    0  0.00000000000E+00  0.00000000000E+00  0.18170567078E+04  0.18170567078E+04  0.00000000000E+00 0. -1.
          1   -1    0    0  501    0 -0.00000000000E+00 -0.00000000000E+00 -0.26428403351E+02  0.26428403351E+02  0.00000000000E+00 0. -1.
         25    2    1    2    0    0 -0.77974274259E+02  0.82866863407E+02  0.59182319509E+03  0.61548896290E+03  0.12500025884E+03 0.  0.
          2    1    1    2  501    0  0.66387330426E+02 -0.99445165775E+02  0.23217848325E+03  0.26115793444E+03  0.00000000000E+00 0. -1.
          1    1    1    2  502    0  0.11586943833E+02  0.16578302367E+02  0.96662662610E+03  0.96683821380E+03  0.00000000000E+00 0. -1.
         22    1    3    3    0    0  0.10852052587E+02  0.75614035086E+02  0.33639936920E+03  0.34496345451E+03  0.00000000000E+00 0.  1.
         22    1    3    3    0    0 -0.88826326846E+02  0.72528283214E+01  0.25542382589E+03  0.27052550839E+03  0.00000000000E+00 0.  1.
</event>
<event>
 7    1  0.5957303E-006  0.1673061E+03  0.7818608E-02  0.1309969E+00
          2   -1    0    0  502    0  0.00000000000E+00  0.00000000000E+00  0.53882546997E+03  0.53882546997E+03  0.00000000000E+00 0. -1.
          1   -1    0    0  501    0 -0.00000000000E+00 -0.00000000000E+00 -0.21825019205E+03  0.21825019205E+03  0.00000000000E+00 0. -1.
         25    2    1    2    0    0  0.50688920875E+02  0.11787955228E+03 -0.32962726850E+02  0.18214466970E+03  0.12500073517E+03 0.  0.
          2    1    1    2  501    0  0.24375333308E+02  0.38265553389E+02 -0.88885338006E+02  0.99794853387E+02  0.00000000000E+00 0. -1.
          1    1    1    2  502    0 -0.75064254183E+02 -0.15614510567E+03  0.44242334277E+03  0.47513613892E+03  0.00000000000E+00 0. -1.
         22    1    3    3    0    0 -0.18190903662E+02  0.26958511073E+02  0.36267487022E+02  0.48713457178E+02  0.00000000000E+00 0.  1.
         22    1    3    3    0    0  0.68879824536E+02  0.90921041211E+02 -0.69230213871E+02  0.13343121252E+03  0.00000000000E+00 0.  1.
</event>
<event>
 7    1  0.5957303E-006  0.6462311E+02  0.7818608E-02  0.1409342E+00
          2   -1    0    0  502    0  0.00000000000E+00  0.00000000000E+00  0.87300849847E+03  0.87300849847E+03  0.00000000000E+00 0. -1.
          1   -1    0    0  501    0 -0.00000000000E+00 -0.00000000000E+00 -0.11360884607E+04  0.11360884607E+04  0.00000000000E+00 0. -1.
         25    2    1    2    0    0 -0.63749806093E+02 -0.59687938372E+02  0.11682613867E+03  0.19213290514E+03  0.12506006076E+03 0.  0.
          2    1    1    2  501    0  0.12996172513E+02  0.63260163112E+02 -0.10965831655E+04  0.10984832213E+04  0.00000000000E+00 0. -1.
          1    1    1    2  502    0  0.50753633580E+02 -0.35722247402E+01  0.71667706456E+03  0.71848083272E+03  0.00000000000E+00 0. -1.
         22    1    3    3    0    0 -0.48373031803E+02 -0.99062756960E+02  0.85869576804E+02  0.13973891456E+03  0.00000000000E+00 0.  1.
         22    1    3    3    0    0 -0.15376774290E+02  0.39374818588E+02  0.30956561865E+02  0.52393990580E+02  0.00000000000E+00 0.  1.
</event>
<event>
 7    1  0.5957303E-006  0.1303416E+03  0.7818608E-02  0.1402882E+00
          2   -1    0    0  502    0  0.00000000000E+00  0.00000000000E+00  0.19242836477E+03  0.19242836477E+03  0.00000000000E+00 0. -1.
          1   -1    0    0  501    0 -0.00000000000E+00 -0.00000000000E+00 -0.44535947663E+03  0.44535947663E+03  0.00000000000E+00 0. -1.
         25    2    1    2    0    0 -0.78271862153E+02  0.13039722168E+03 -0.63482679508E+02  0.20687133119E+03  0.12504310155E+03 0.  0.
          2    1    1    2  501    0  0.59660503981E+02 -0.11148002315E+03 -0.29559544690E+03  0.32150247204E+03  0.00000000000E+00 0. -1.
          1    1    1    2  502    0  0.18611358172E+02 -0.18917198522E+02  0.10614701454E+03  0.10941403817E+03  0.00000000000E+00 0. -1.
         22    1    3    3    0    0 -0.75583426598E+02  0.14579912791E+03 -0.81231819848E+02  0.18321803577E+03  0.00000000000E+00 0. -1.
         22    1    3    3    0    0 -0.26884355551E+01 -0.15401906233E+02  0.17749140340E+02  0.23653295419E+02  0.00000000000E+00 0. -1.
</event>
<event>
 7    1  0.5957303E-006  0.1134622E+03  0.7818608E-02  0.1260873E+00
          2   -1    0    0  502    0  0.00000000000E+00  0.00000000000E+00  0.53422833539E+03  0.53422833539E+03  0.00000000000E+00 0. -1.
          1   -1    0    0  501    0 -0.00000000000E+00 -0.00000000000E+00 -0.42513729027E+03  0.42513729027E+03  0.00000000000E+00 0. -1.
         25    2    1    2    0    0  0.41317431014E+02 -0.17993813660E+03 -0.14023968613E+03  0.26339214360E+03  0.12499355437E+03 0.  0.
          2    1    1    2  501    0  0.36777352095E+02  0.99763566773E+02 -0.20345317654E+03  0.22956162120E+03  0.00000000000E+00 0. -1.
          1    1    1    2  502    0 -0.78094783110E+02  0.80174569827E+02  0.45278390780E+03  0.46641186086E+03  0.00000000000E+00 0. -1.
         22    1    3    3    0    0  0.15490308063E+02 -0.28393399502E+00 -0.65157674077E+02  0.66974269340E+02  0.00000000000E+00 0.  1.
         22    1    3    3    0    0  0.25827122952E+02 -0.17965420260E+03 -0.75082012054E+02  0.19641787426E+03  0.00000000000E+00 0.  1.
</event>
<event>
 7    1  0.5957303E-006  0.1087867E+03  0.7818608E-02  0.1324510E+00
          2   -1    0    0  502    0  0.00000000000E+00  0.00000000000E+00  0.30737400301E+03  0.30737400301E+03  0.00000000000E+00 0. -1.
          1   -1    0    0  501    0 -0.00000000000E+00 -0.00000000000E+00 -0.21653285910E+04  0.21653285910E+04  0.00000000000E+00 0. -1.
         25    2    1    2    0    0  0.34387105755E+02 -0.51099047465E+02 -0.37508388833E+03  0.40013317895E+03  0.12500020767E+03 0.  0.
          2    1    1    2  501    0 -0.19403765617E+02 -0.58085673346E+02 -0.17668726789E+04  0.17679336851E+04  0.00000000000E+00 0. -1.
          1    1    1    2  502    0 -0.14983340137E+02  0.10918472081E+03  0.28400197924E+03  0.30463572993E+03  0.00000000000E+00 0. -1.
         22    1    3    3    0    0  0.54353767433E+02 -0.34033153873E+01 -0.31993033599E+03  0.32453248602E+03  0.00000000000E+00 0. -1.
         22    1    3    3    0    0 -0.19966661679E+02 -0.47695732077E+02 -0.55153552337E+02  0.75600692936E+02  0.00000000000E+00 0. -1.
</event>
<event>
 7    1  0.5957303E-006  0.9342256E+02  0.7818608E-02  0.1449205E+00
          2   -1    0    0  502    0  0.00000000000E+00  0.00000000000E+00  0.97974535841E+03  0.97974535841E+03  0.00000000000E+00 0. -1.
          1   -1    0    0  501    0 -0.00000000000E+00 -0.00000000000E+00 -0.22097488137E+02  0.22097488137E+02  0.00000000000E+00 0. -1.
         25    2    1    2    0    0 -0.11443058448E+02 -0.10106726704E+03  0.63785299093E+03  0.65789517436E+03  0.12499634537E+03 0.  0.
          2    1    1    2  501    0  0.22686282628E+02  0.12714443015E+02  0.25312275002E+02  0.36290987124E+02  0.00000000000E+00 0. -1.
          1    1    1    2  502    0 -0.11243224180E+02  0.88352824026E+02  0.29448260435E+03  0.30765668506E+03  0.00000000000E+00 0. -1.
         22    1    3    3    0    0  0.19953816353E+02 -0.70906779539E+02  0.58408389639E+03  0.58871039077E+03  0.00000000000E+00 0. -1.
         22    1    3    3    0    0 -0.31396874801E+02 -0.30160487501E+02  0.53769094533E+02  0.69184783590E+02  0.00000000000E+00 0. -1.
</event>
<event>
 7    1  0.5957303E-006  0.1281354E+03  0.7818608E-02  0.1373231E+00
          2   -1    0    0  502    0  0.00000000000E+00  0.00000000000E+00  0.13432285728E+04  0.13432285728E+04  0.00000000000E+00 0. -1.
          1   -1    0    0  501    0 -0.00000000000E+00 -0.00000000000E+00 -0.20210049934E+04  0.20210049934E+04  0.00000000000E+00 0. -1.
         25    2    1    2    0    0 -0.87147761501E+02 -0.42667054284E+02  0.42426002641E+03  0.45280867819E+03  0.12499567663E+03 0.  0.
          2    1    1    2  501    0  0.10718871211E+03  0.70480319340E+02 -0.20043546295E+04  0.20084557192E+04  0.00000000000E+00 0. -1.
          1    1    1    2  502    0 -0.20040950605E+02 -0.27813265056E+02  0.90231818241E+03  0.90296916875E+03  0.00000000000E+00 0. -1.
         22    1    3    3    0    0 -0.19700522030E+02 -0.27667244693E+02  0.34897053237E+03  0.35061947958E+03  0.00000000000E+00 0.  1.
         22    1    3    3    0    0 -0.67447239471E+02 -0.14999809591E+02  0.75289494047E+02  0.10218919862E+03  0.00000000000E+00 0.  1.
</event>
<event>
 7    1  0.5957303E-006  0.9294092E+02  0.7818608E-02  0.1381756E+00
          2   -1    0    0  502    0  0.00000000000E+00  0.00000000000E+00  0.15507516709E+04  0.15507516709E+04  0.00000000000E+00 0. -1.
          1   -1    0    0  501    0 -0.00000000000E+00 -0.00000000000E+00 -0.24398156977E+04  0.24398156977E+04  0.00000000000E+00 0. -1.
         25    2    1    2    0    0 -0.77841350674E+02 -0.14891741546E+02  0.15961499148E+03  0.21768162624E+03  0.12500921989E+03 0.  0.
          2    1    1    2  501    0 -0.12271641176E+02  0.42334509279E+02 -0.24089519014E+04  0.24093551144E+04  0.00000000000E+00 0. -1.
          1    1    1    2  502    0  0.90112991850E+02 -0.27442767733E+02  0.13602728831E+04  0.13635306279E+04  0.00000000000E+00 0. -1.
         22    1    3    3    0    0  0.25952552111E+02  0.24755619949E+02  0.50615157763E+02  0.62034424923E+02  0.00000000000E+00 0. -1.
         22    1    3    3    0    0 -0.10379390278E+03 -0.39647361495E+02  0.10899983372E+03  0.15564720132E+03  0.00000000000E+00 0. -1.
</event>
<event>
 7    1  0.5957303E-006  0.2209030E+03  0.7818608E-02  0.1260977E+00
          2   -1    0    0  502    0  0.00000000000E+00  0.00000000000E+00  0.12140987387E+04  0.12140987387E+04  0.00000000000E+00 0. -1.
          1   -1    0    0  501    0 -0.00000000000E+00 -0.00000000000E+00 -0.12629763269E+04  0.12629763269E+04  0.00000000000E+00 0. -1.
         25    2    1    2    0    0  0.22295301621E+03 -0.52424070802E+02 -0.28336233510E+03  0.38519508510E+03  0.12499883996E+03 0.  0.
          2    1    1    2  501    0 -0.26187267365E+02 -0.47861187380E+02 -0.91739705084E+03  0.91901785354E+03  0.00000000000E+00 0. -1.
          1    1    1    2  502    0 -0.19676574885E+03  0.10028525818E+03  0.11518817978E+04  0.11728621270E+04  0.00000000000E+00 0. -1.
         22    1    3    3    0    0  0.17457597823E+03 -0.44038678437E+02 -0.12444747587E+03  0.21886834313E+03  0.00000000000E+00 0. -1.
         22    1    3    3    0    0  0.48377037983E+02 -0.83853923650E+01 -0.15891485923E+03  0.16632674197E+03  0.00000000000E+00 0. -1.
</event>
<event>
 7    1  0.5957303E-006  0.1090451E+03  0.7818608E-02  0.1336270E+00
          2   -1    0    0  502    0  0.00000000000E+00  0.00000000000E+00  0.20745377461E+04  0.20745377461E+04  0.00000000000E+00 0. -1.
          1   -1    0    0  501    0 -0.00000000000E+00 -0.00000000000E+00 -0.20155231331E+03  0.20155231331E+03  0.00000000000E+00 0. -1.
         25    2    1    2    0    0 -0.28772943767E+02  0.80758229397E+02  0.31312240332E+02  0.15477629898E+03  0.12500188968E+03 0.  0.
          2    1    1    2  501    0 -0.13228782782E+02 -0.11641309441E+03 -0.11482021198E+03  0.16404478145E+03  0.00000000000E+00 0. -1.
          1    1    1    2  502    0  0.42001726549E+02  0.35654865014E+02  0.19564934045E+04  0.19572689790E+04  0.00000000000E+00 0. -1.
         22    1    3    3    0    0  0.11335112401E+02  0.44072142861E+02  0.73173446157E+02  0.86169552464E+02  0.00000000000E+00 0.  1.
         22    1    3    3    0    0 -0.40108056167E+02  0.36686086536E+02 -0.41861205825E+02  0.68606746520E+02  0.00000000000E+00 0.  1.
</event>
<event>
 7    1  0.5957303E-006  0.8745272E+02  0.7818608E-02  0.1350557E+00
          2   -1    0    0  502    0  0.00000000000E+00  0.00000000000E+00  0.83692743447E+02  0.83692743447E+02  0.00000000000E+00 0. -1.
          1   -1    0    0  501    0 -0.00000000000E+00 -0.00000000000E+00 -0.10904435629E+04  0.10904435629E+04  0.00000000000E+00 0. -1.
         25    2    1    2    0    0 -0.64764675370E+02 -0.12630676976E+03 -0.45155692750E+03  0.48957081254E+03  0.12501223320E+03 0.  0.
          2    1    1    2  501    0  0.13784057712E+02  0.59154654706E+02 -0.59016975349E+03  0.59328712388E+03  0.00000000000E+00 0. -1.
          1    1    1    2  502    0  0.50980617659E+02  0.67152115055E+02  0.34975861518E+02  0.91278369958E+02  0.00000000000E+00 0. -1.
         22    1    3    3    0    0  0.36254174461E+02 -0.25088445156E+02 -0.78327257569E+02  0.89883004647E+02  0.00000000000E+00 0. -1.
         22    1    3    3    0    0 -0.10101884983E+03 -0.10121832460E+03 -0.37322966993E+03  0.39968780789E+03  0.00000000000E+00 0. -1.
</event>
<event>
 7    1  0.5957303E-006  0.5497541E+02  0.7818608E-02  0.1422165E+00
          2   -1    0    0  502    0  0.00000000000E+00  0.00000000000E+00  0.10531078798E+04  0.10531078798E+04  0.00000000000E+00 0. -1.
          1   -1    0    0  501    0 -0.00000000000E+00 -0.00000000000E+00 -0.71100944750E+03  0.71100944750E+03  0.00000000000E+00 0. -1.
         25    2    1    2    0    0 -0.62872374766E+01  0.81922466215E+01  0.11547903294E+03  0.17048914350E+03  0.12499799496E+03 0.  0.
          2    1    1    2  501    0  0.50070872560E+02  0.23685045745E+02 -0.68157417939E+03  0.68382120154E+03  0.00000000000E+00 0. -1.
          1    1    1    2  502    0 -0.43783635083E+02 -0.31877292367E+02  0.90819357875E+03  0.90980698225E+03  0.00000000000E+00 0. -1.
         22    1    3    3    0    0  0.48804033563E+02 -0.28830759920E+02  0.36937643650E+02  0.67656750794E+02  0.00000000000E+00 0. -1.
         22    1    3    3    0    0 -0.55091271040E+02  0.37023006542E+02  0.78541389294E+02  0.10283239271E+03  0.00000000000E+00 0. -1.
</event>
<event>
 7    1  0.5957303E-006  0.6578597E+02  0.7818608E-02  0.1401857E+00
          2   -1    0    0  502    0  0.00000000000E+00  0.00000000000E+00  0.68025219677E+03  0.68025219677E+03  0.00000000000E+00 0. -1.
          1   -1    0    0  501    0 -0.00000000000E+00 -0.00000000000E+00 -0.15981435387E+04  0.15981435387E+04  0.00000000000E+00 0. -1.
         25    2    1    2    0    0 -0.25151294411E+02 -0.17634533924E+02 -0.67757950284E+02  0.14546389623E+03  0.12500016353E+03 0.  0.
          2    1    1    2  501    0  0.20784637650E+02 -0.48760737083E+02 -0.14893341932E+04  0.14902771385E+04  0.00000000000E+00 0. -1.
          1    1    1    2  502    0  0.43666567612E+01  0.66395271007E+02  0.63920080152E+03  0.64265470073E+03  0.00000000000E+00 0. -1.
         22    1    3    3    0    0 -0.47305309251E+02 -0.56331940546E+02 -0.68999480734E+02  0.10085637387E+03  0.00000000000E+00 0. -1.
         22    1    3    3    0    0  0.22154014840E+02  0.38697406622E+02  0.12415304496E+01  0.44607522355E+02  0.00000000000E+00 0. -1.
</event>
<event>
 7    1  0.5957303E-006  0.3674794E+02  0.7818608E-02  0.1568304E+00
          2   -1    0    0  502    0  0.00000000000E+00  0.00000000000E+00  0.13133501389E+04  0.13133501389E+04  0.00000000000E+00 0. -1.
          1   -1    0    0  501    0 -0.00000000000E+00 -0.00000000000E+00 -0.95297816959E+03  0.95297816959E+03  0.00000000000E+00 0. -1.
         25    2    1    2    0    0 -0.51421330907E+02  0.34448965414E+02 -0.24381491619E+02  0.14157380048E+03  0.12497119412E+03 0.  0.
          2    1    1    2  501    0  0.16084344021E+02 -0.24626493792E+02 -0.86948376437E+03  0.86998114165E+03  0.00000000000E+00 0. -1.
          1    1    1    2  502    0  0.35336986886E+02 -0.98224716221E+01  0.12542372253E+04  0.12547733664E+04  0.00000000000E+00 0. -1.
         22    1    3    3    0    0 -0.12768182348E+02 -0.45362841615E+02 -0.24019843470E+02  0.52893919879E+02  0.00000000000E+00 0.  1.
         22    1    3    3    0    0 -0.38653148558E+02  0.79811807029E+02 -0.36164814906E+00  0.88679880605E+02  0.00000000000E+00 0.  1.
</event>
<event>
 7    1  0.5957303E-006  0.6679619E+02  0.7818608E-02  0.1508935E+00
          2   -1    0    0  502    0  0.00000000000E+00  0.00000000000E+00  0.80227072097E+03  0.80227072097E+03  0.00000000000E+00 0. -1.
          1   -1    0    0  501    0 -0.00000000000E+00 -0.00000000000E+00 -0.58098270328E+02  0.58098270328E+02  0.00000000000E+00 0. -1.
         25    2    1    2    0    0  0.41001577386E+02 -0.17678450668E+02  0.33120675942E+03  0.35681641901E+03  0.12500552957E+03 0.  0.
          2    1    1    2  501    0 -0.62505211915E+02  0.27962159160E+02 -0.18895590193E+02  0.71033986163E+02  0.00000000000E+00 0. -1.
          1    1    1    2  502    0  0.21503634529E+02 -0.10283708492E+02  0.43186128142E+03  0.43251858613E+03  0.00000000000E+00 0. -1.
         22    1    3    3    0    0 -0.32875843475E+02  0.19314857281E+01  0.21640589134E+03  0.21889737671E+03  0.00000000000E+00 0. -1.
         22    1    3    3    0    0  0.73877420861E+02 -0.19609936396E+02  0.11480086807E+03  0.13791904230E+03  0.00000000000E+00 0. -1.
</event>
<event>
 7    1  0.5957303E-006  0.8265191E+03  0.7818608E-02  0.1082940E+00
          2   -1    0    0  502    0  0.00000000000E+00  0.00000000000E+00  0.14489311016E+04  0.14489311016E+04  0.00000000000E+00 0. -1.
          1   -1    0    0  501    0 -0.00000000000E+00 -0.00000000000E+00 -0.87174636119E+03  0.87174636119E+03  0.00000000000E+00 0. -1.
         25    2    1    2    0    0  0.82260493229E+03 -0.25329971207E+03 -0.28208015273E+03  0.91434910901E+03  0.12500184726E+03 0.  0.
          2    1    1    2  501    0 -0.71439617065E+03  0.28329798872E+03  0.28259598045E+03  0.81882850904E+03  0.00000000000E+00 0. -1.
          1    1    1    2  502    0 -0.10820876164E+03 -0.29998276654E+02  0.57666891266E+03  0.58749984470E+03  0.00000000000E+00 0. -1.
         22    1    3    3    0    0  0.65668204927E+03 -0.15508013425E+03 -0.24598475933E+03  0.71818497874E+03  0.00000000000E+00 0.  1.
         22    1    3    3    0    0  0.16592288302E+03 -0.98219577822E+02 -0.36095393394E+02  0.19616413027E+03  0.00000000000E+00 0.  1.
</event>
<event>
 7    1  0.5957303E-006  0.1122435E+03  0.7818608E-02  0.1374184E+00
          2   -1    0    0  502    0  0.00000000000E+00  0.00000000000E+00  0.60327354144E+03  0.60327354144E+03  0.00000000000E+00 0. -1.
          1   -1    0    0  501    0 -0.00000000000E+00 -0.00000000000E+00 -0.63634914060E+03  0.63634914060E+03  0.00000000000E+00 0. -1.
         25    2    1    2    0    0  0.18680956396E+02 -0.13667938653E+03 -0.29486701022E+03  0.34871439916E+03  0.12499978251E+03 0.  0.
          2    1    1    2  501    0 -0.29432033343E+02  0.25326997605E+02 -0.30789903620E+03  0.31033774809E+03  0.00000000000E+00 0. -1.
          1    1    1    2  502    0  0.10751076947E+02  0.11135238893E+03  0.56969044726E+03  0.58057053479E+03  0.00000000000E+00 0. -1.
         22    1    3    3    0    0 -0.36073028406E+02 -0.10581565905E+03 -0.12556336759E+03  0.16812012479E+03  0.00000000000E+00 0.  1.
         22    1    3    3    0    0  0.54753984803E+02 -0.30863727481E+02 -0.16930364263E+03  0.18059427437E+03  0.00000000000E+00 0.  1.
</event>
<event>
 7    1  0.5957303E-006  0.1829727E+03  0.7818608E-02  0.1252301E+00
          2   -1    0    0  502    0  0.00000000000E+00  0.00000000000E+00  0.14269663638E+04  0.14269663638E+04  0.00000000000E+00 0. -1.
          1   -1    0    0  501    0 -0.00000000000E+00 -0.00000000000E+00 -0.49591368210E+03  0.49591368210E+03  0.00000000000E+00 0. -1.
         25    2    1    2    0    0 -0.15474402259E+03 -0.15744130654E+03  0.20946775145E+03  0.32899194625E+03  0.12500193706E+03 0.  0.
          2    1    1    2  501    0  0.83059559403E+02  0.16078007679E+03 -0.41620074608E+03  0.45384158529E+03  0.00000000000E+00 0. -1.
          1    1    1    2  502    0  0.71684463182E+02 -0.33387702506E+01  0.11377856763E+04  0.11400465143E+04  0.00000000000E+00 0. -1.
         22    1    3    3    0    0 -0.23043555832E+02 -0.90407512323E+02  0.13338962583E+03  0.16277996200E+03  0.00000000000E+00 0.  1.
         22    1    3    3    0    0 -0.13170046675E+03 -0.67033794216E+02  0.76078125624E+02  0.16621198425E+03  0.00000000000E+00 0.  1.
</event>
<event>
 7    1  0.5957303E-006  0.7389381E+02  0.7818608E-02  0.1420781E+00
          2   -1    0    0  502    0  0.00000000000E+00  0.00000000000E+00  0.17198473795E+04  0.17198473795E+04  0.00000000000E+00 0. -1.
          1   -1    0    0  501    0 -0.00000000000E+00 -0.00000000000E+00 -0.19331267101E+02  0.19331267101E+02  0.00000000000E+00 0. -1.
         25    2    1    2    0    0 -0.45142607872E+02  0.61644599443E+01  0.53769044615E+03  0.55391155953E+03  0.12502457474E+03 0.  0.
          2    1    1    2  501    0  0.75470501131E+02 -0.33341335381E+02  0.14657858512E+03  0.16820440779E+03  0.00000000000E+00 0. -1.
          1    1    1    2  502    0 -0.30327893259E+02  0.27176875437E+02  0.10162470811E+04  0.10170626793E+04  0.00000000000E+00 0. -1.
         22    1    3    3    0    0 -0.18934456456E+02 -0.11198483281E+01  0.52232673188E+03  0.52267100794E+03  0.00000000000E+00 0. -1.
         22    1    3    3    0    0 -0.26208151416E+02  0.72843082724E+01  0.15363714268E+02  0.31240551592E+02  0.00000000000E+00 0. -1.
</event>
<event>
 7    1  0.5957303E-006  0.1637948E+03  0.7818608E-02  0.1279979E+00
          2   -1    0    0  502    0  0.00000000000E+00  0.00000000000E+00  0.58726567057E+03  0.58726567057E+03  0.00000000000E+00 0. -1.
          1   -1    0    0  501    0 -0.00000000000E+00 -0.00000000000E+00 -0.53661703174E+03  0.53661703174E+03  0.00000000000E+00 0. -1.
         25    2    1    2    0    0  0.14119694378E+03 -0.15076070579E+03 -0.42401521441E+02  0.24512576738E+03  0.12499354171E+03 0.  0.
          2    1    1    2  501    0 -0.12889436067E+03  0.90772648303E+02 -0.37496209643E+03  0.40675545928E+03  0.00000000000E+00 0. -1.
          1    1    1    2  502    0 -0.12302583111E+02  0.59988057488E+02  0.46801225670E+03  0.47200147565E+03  0.00000000000E+00 0. -1.
         22    1    3    3    0    0  0.11242808433E+03 -0.12859358411E+03 -0.83627432229E+02  0.19018394107E+03  0.00000000000E+00 0.  1.
         22    1    3    3    0    0  0.28768859453E+02 -0.22167121676E+02  0.41225910788E+02  0.54941826307E+02  0.00000000000E+00 0.  1.
</event>
<event>
 7    1  0.5957303E-006  0.8886969E+02  0.7818608E-02  0.1448926E+00
          2   -1    0    0  502    0  0.00000000000E+00  0.00000000000E+00  0.61568822546E+03  0.61568822546E+03  0.00000000000E+00 0. -1.
          1   -1    0    0  501    0 -0.00000000000E+00 -0.00000000000E+00 -0.11405371078E+04  0.11405371078E+04  0.00000000000E+00 0. -1.
         25    2    1    2    0    0 -0.39588627848E+02  0.78055577499E+02  0.17680010485E+03  0.23354520627E+03  0.12500061465E+03 0.  0.
          2    1    1    2  501    0  0.13989203972E+02 -0.87810208556E+02 -0.11099275587E+04  0.11134835051E+04  0.00000000000E+00 0. -1.
          1    1    1    2  502    0  0.25599423876E+02  0.97546310573E+01  0.40827857156E+03  0.40919662184E+03  0.00000000000E+00 0. -1.
         22    1    3    3    0    0 -0.51873398590E+02 -0.18589906492E+02  0.60557054169E+02  0.81875459780E+02  0.00000000000E+00 0. -1.
         22    1    3    3    0    0  0.12284770742E+02  0.96645483990E+02  0.11624305068E+03  0.15166974649E+03  0.00000000000E+00 0. -1.
</event>
<event>
 7    1  0.5957303E-006  0.2907194E+02  0.7818608E-02  0.1626362E+00
          2   -1    0    0  502    0  0.00000000000E+00  0.00000000000E+00  0.18746751544E+03  0.18746751544E+03  0.00000000000E+00 0. -1.
          1   -1    0    0  501    0 -0.00000000000E+00 -0.00000000000E+00 -0.15942142915E+04  0.15942142915E+04  0.00000000000E+00 0. -1.
         25    2    1    2    0    0  0.13034534459E+02 -0.15839215711E+02 -0.16572538207E+03  0.20859254674E+03  0.12500067380E+03 0.  0.
          2    1    1    2  501    0 -0.28757664119E+02 -0.50985426140E+01 -0.14058703856E+04  0.14061737231E+04  0.00000000000E+00 0. -1.
          1    1    1    2  502    0  0.15723129660E+02  0.20937758325E+02  0.16484899156E+03  0.16691553717E+03  0.00000000000E+00 0. -1.
         22    1    3    3    0    0  0.26431231199E+02 -0.39785474833E+02 -0.17359577582E+03  0.18004718096E+03  0.00000000000E+00 0.  1.
         22    1    3    3    0    0 -0.13396696740E+02  0.23946259121E+02  0.78703937494E+01  0.28545365775E+02  0.00000000000E+00 0.  1.
</event>
<event>
 7    1  0.5957303E-006  0.1651226E+03  0.7818608E-02  0.1268058E+00
          2   -1    0    0  502    0  0.00000000000E+00  0.00000000000E+00  0.22651056122E+04  0.22651056122E+04  0.00000000000E+00 0. -1.
          1   -1    0    0  501    0 -0.00000000000E+00 -0.00000000000E+00 -0.49239879160E+03  0.49239879160E+03  0.00000000000E+00 0. -1.
         25    2    1    2    0    0  0.56894445056E+02  0.21218256249E+03  0.54802088587E+03  0.60350038961E+03  0.12500964446E+03 0.  0.
          2    1    1    2  501    0 -0.40293666303E+02 -0.54918892251E+02 -0.45843641332E+03  0.46346910288E+03  0.00000000000E+00 0. -1.
          1    1    1    2  502    0 -0.16600778753E+02 -0.15726367024E+03  0.16831223480E+04  0.16905349113E+04  0.00000000000E+00 0. -1.
         22    1    3    3    0    0  0.64987949821E+02  0.19370828606E+03  0.35633715355E+03  0.41075844569E+03  0.00000000000E+00 0. -1.
         22    1    3    3    0    0 -0.80935047645E+01  0.18474276436E+02  0.19168373232E+03  0.19274194392E+03  0.00000000000E+00 0. -1.
</event>
<event>
 7    1  0.5957303E-006  0.1402941E+03  0.7818608E-02  0.1215487E+00
          2   -1    0    0  502    0  0.00000000000E+00  0.00000000000E+00  0.23542879229E+04  0.23542879229E+04  0.00000000000E+00 0. -1.
          1   -1    0    0  501    0 -0.00000000000E+00 -0.00000000000E+00 -0.23257302345E+03  0.23257302345E+03  0.00000000000E+00 0. -1.
         25    2    1    2    0    0 -0.73080616824E+02 -0.20724803446E+03  0.50752634307E+03  0.56701074108E+03  0.12500266897E+03 0.  0.
          2    1    1    2  501    0  0.11500994370E+03  0.77297695419E+02 -0.17625610915E+03  0.22420623738E+03  0.00000000000E+00 0. -1.
          1    1    1    2  502    0 -0.41929326880E+02  0.12995033904E+03  0.17904446656E+04  0.17956439679E+04  0.00000000000E+00 0. -1.
         22    1    3    3    0    0 -0.88079796283E+02 -0.73995959342E+02  0.28303867571E+03  0.30552306699E+03  0.00000000000E+00 0.  1.
         22    1    3    3    0    0  0.14999179459E+02 -0.13325207512E+03  0.22448766736E+03  0.26148767410E+03  0.00000000000E+00 0.  1.
</event>
<event>
 7    1  0.5957303E-006  0.1293425E+03  0.7818608E-02  0.1266877E+00
          2   -1    0    0  502    0  0.00000000000E+00  0.00000000000E+00  0.14313153869E+04  0.14313153869E+04  0.00000000000E+00 0. -1.
          1   -1    0    0  501    0 -0.00000000000E+00 -0.00000000000E+00 -0.39939818892E+02  0.39939818892E+02  0.00000000000E+00 0. -1.
         25    2    1    2    0    0  0.89167619713E+02 -0.37853142512E+02  0.46004261152E+03  0.48646410464E+03  0.12499758352E+03 0.  0.
          2    1    1    2  501    0  0.60390858836E+02  0.63952891125E+02  0.76475012329E+02  0.11655666272E+03  0.00000000000E+00 0. -1.
          1    1    1    2  502    0 -0.14955847855E+03 -0.26099748613E+02  0.85485794417E+03  0.86823443844E+03  0.00000000000E+00 0. -1.
         22    1    3    3    0    0 -0.29884907867E+02  0.59526850030E+01  0.71035049937E+02  0.77295022456E+02  0.00000000000E+00 0.  1.
         22    1    3    3    0    0  0.11905252758E+03 -0.43805827515E+02  0.38900756158E+03  0.40916908219E+03  0.00000000000E+00 0.  1.
</event>
<event>
 7    1  0.5957303E-006  0.3324125E+02  0.7818608E-02  0.1641696E+00
          2   -1    0    0  502    0  0.00000000000E+00  0.00000000000E+00  0.48666533123E+03  0.48666533123E+03  0.00000000000E+00 0. -1.
          1   -1    0    0  501    0 -0.00000000000E+00 -0.00000000000E+00 -0.11922893159E+04  0.11922893159E+04  0.00000000000E+00 0. -1.
         25    2    1    2    0    0  0.21437745026E+02  0.46584500179E+02  0.48230645634E+02  0.14345734545E+03  0.12499648882E+03 0.  0.
          2    1    1    2  501    0 -0.57292322296E+01 -0.32702102005E+02 -0.11441538743E+04  0.11446354614E+04  0.00000000000E+00 0. -1.
          1    1    1    2  502    0 -0.15708512797E+02 -0.13882398174E+02  0.39029924394E+03  0.39086184026E+03  0.00000000000E+00 0. -1.
         22    1    3    3    0    0 -0.10554821256E+02 -0.16449949824E+02 -0.31394820833E+02  0.36981615380E+02  0.00000000000E+00 0.  1.
         22    1    3    3    0    0  0.31992566282E+02  0.63034450003E+02  0.79625466467E+02  0.10647573007E+03  0.00000000000E+00 0.  1.
</event>
<event>
 7    1  0.5957303E-006  0.8101342E+02  0.7818608E-02  0.1339809E+00
          2   -1    0    0  502    0  0.00000000000E+00  0.00000000000E+00  0.55257852799E+03  0.55257852799E+03  0.00000000000E+00 0. -1.
          1   -1    0    0  501    0 -0.00000000000E+00 -0.00000000000E+00 -0.10913035685E+03  0.10913035685E+03  0.00000000000E+00 0. -1.
         25    2    1    2    0    0  0.16853689215E+02 -0.62569641379E+01  0.16736339291E+03  0.20965782867E+03  0.12499081323E+03 0.  0.
          2    1    1    2  501    0 -0.71126936354E+02  0.53435694959E+02 -0.60684437419E+02  0.10768944013E+03  0.00000000000E+00 0. -1.
          1    1    1    2  502    0  0.54273247139E+02 -0.47178730821E+02  0.33676921565E+03  0.34436161604E+03  0.00000000000E+00 0. -1.
         22    1    3    3    0    0 -0.84531487699E+01 -0.31532525479E+02  0.17064571755E+03  0.17374037184E+03  0.00000000000E+00 0. -1.
         22    1    3    3    0    0  0.25306837984E+02  0.25275561341E+02 -0.32823246406E+01  0.35917456827E+02  0.00000000000E+00 0. -1.
</event>
<event>
 7    1  0.5957303E-006  0.8924807E+02  0.7818608E-02  0.1406986E+00
          2   -1    0    0  502    0  0.00000000000E+00  0.00000000000E+00  0.10944007083E+04  0.10944007083E+04  0.00000000000E+00 0. -1.
          1   -1    0    0  501    0 -0.00000000000E+00 -0.00000000000E+00 -0.59608303996E+03  0.59608303996E+03  0.00000000000E+00 0. -1.
         25    2    1    2    0    0  0.71876180090E+02 -0.26143507035E+02  0.12683102354E+03  0.19380591158E+03  0.12499981843E+03 0.  0.
          2    1    1    2  501    0 -0.69280198440E+01 -0.36881134942E+02 -0.55977381409E+03  0.56103024741E+03  0.00000000000E+00 0. -1.
          1    1    1    2  502    0 -0.64948160246E+02  0.63024641977E+02  0.93126045887E+03  0.93564758925E+03  0.00000000000E+00 0. -1.
         22    1    3    3    0    0  0.10613982779E+03 -0.56865388854E+01  0.97994060051E+02  0.14457121281E+03  0.00000000000E+00 0. -1.
         22    1    3    3    0    0 -0.34263647701E+02 -0.20456968150E+02  0.28836963491E+02  0.49234698771E+02  0.00000000000E+00 0. -1.
</event>
<event>
 7    1  0.5957303E-006  0.7683264E+02  0.7818608E-02  0.1390876E+00
          2   -1    0    0  502    0  0.00000000000E+00  0.00000000000E+00  0.49813967965E+03  0.49813967965E+03  0.00000000000E+00 0. -1.
          1   -1    0    0  501    0 -0.00000000000E+00 -0.00000000000E+00 -0.26818650352E+04  0.26818650352E+04  0.00000000000E+00 0. -1.
         25    2    1    2    0    0  0.34615463653E+02  0.10156362399E+02 -0.80033249887E+03  0.81083902542E+03  0.12500573738E+03 0.  0.
          2    1    1    2  501    0 -0.74404023049E+02 -0.39655047661E+02 -0.18740847400E+04  0.18759803022E+04  0.00000000000E+00 0. -1.
          1    1    1    2  502    0  0.39788559396E+02  0.29498685262E+02  0.49069188329E+03  0.49318538727E+03  0.00000000000E+00 0. -1.
         22    1    3    3    0    0  0.73058748310E+02 -0.20393281548E+01 -0.68023900756E+03  0.68415411055E+03  0.00000000000E+00 0. -1.
         22    1    3    3    0    0 -0.38443284657E+02  0.12195690554E+02 -0.12009349130E+03  0.12668491488E+03  0.00000000000E+00 0. -1.
</event>
<event>
 7    1  0.5957303E-006  0.5648406E+02  0.7818608E-02  0.1413769E+00
          2   -1    0    0  502    0  0.00000000000E+00  0.00000000000E+00  0.18201812713E+02  0.18201812713E+02  0.00000000000E+00 0. -1.
          1   -1    0    0  501    0 -0.00000000000E+00 -0.00000000000E+00 -0.16561470776E+04  0.16561470776E+04  0.00000000000E+00 0. -1.
         25    2    1    2    0    0  0.15561360811E+02  0.92511123881E+01 -0.85691455107E+03  0.86617305806E+03  0.12500191860E+03 0.  0.
          2    1    1    2  501    0 -0.71663607445E+02 -0.53341151784E+01 -0.72580978407E+03  0.72935860046E+03  0.00000000000E+00 0. -1.
          1    1    1    2  502    0  0.56102246634E+02 -0.39169972097E+01 -0.55220929755E+02  0.78817231793E+02  0.00000000000E+00 0. -1.
         22    1    3    3    0    0  0.42480312223E+02 -0.41820900527E+02 -0.27416949294E+03  0.28057525818E+03  0.00000000000E+00 0.  1.
         22    1    3    3    0    0 -0.26918951412E+02  0.51072012915E+02 -0.58274505813E+03  0.58559779988E+03  0.00000000000E+00 0.  1.
</event>
<event>
 7    1  0.5957303E-006  0.5875960E+02  0.7818608E-02  0.1417258E+00
          2   -1    0    0  502    0  0.00000000000E+00  0.00000000000E+00  0.23250844442E+04  0.23250844442E+04  0.00000000000E+00 0. -1.
          1   -1    0    0  501    0 -0.00000000000E+00 -0.00000000000E+00 -0.18739404461E+02  0.18739404461E+02  0.00000000000E+00 0. -1.
         25    2    1    2    0    0 -0.12169721207E+02  0.38763333906E+02  0.59657162469E+03  0.61087942692E+03  0.12500109071E+03 0.  0.
          2    1    1    2  501    0 -0.47403662210E+02 -0.22842579482E+02  0.51846570076E+02  0.73871222116E+02  0.00000000000E+00 0. -1.
          1    1    1    2  502    0  0.59573383417E+02 -0.15920754424E+02  0.16579268450E+04  0.16590731997E+04  0.00000000000E+00 0. -1.
         22    1    3    3    0    0  0.52152809383E+02 -0.65334152011E+01  0.22235828978E+03  0.22848590783E+03  0.00000000000E+00 0.  1.
         22    1    3    3    0    0 -0.64322530590E+02  0.45296749108E+02  0.37421333490E+03  0.38239351909E+03  0.00000000000E+00 0.  1.
</event>
<event>
 7    1  0.5957303E-006  0.1014647E+03  0.7818608E-02  0.1294734E+00
          2   -1    0    0  502    0  0.00000000000E+00  0.00000000000E+00  0.49067646106E+03  0.49067646106E+03  0.00000000000E+00 0. -1.
          1   -1    0    0  501    0 -0.00000000000E+00 -0.00000000000E+00 -0.86499017011E+03  0.86499017011E+03  0.00000000000E+00 0. -1.
         25    2    1    2    0    0  0.77638103626E+01  0.18090172378E+02 -0.57584762639E+03  0.58958720219E+03  0.12500019631E+03 0.  0.
          2    1    1    2  501    0 -0.22086994525E+02  0.83162313873E+02 -0.27010628345E+03  0.28348052867E+03  0.00000000000E+00 0. -1.
          1    1    1    2  502    0  0.14323184162E+02 -0.10125248625E+03  0.47164020079E+03  0.48259890031E+03  0.00000000000E+00 0. -1.
         22    1    3    3    0    0  0.34460960494E+02  0.22722019196E+02 -0.55185178657E+03  0.55339338837E+03  0.00000000000E+00 0. -1.
         22    1    3    3    0    0 -0.26697150131E+02 -0.46318468186E+01 -0.23995839829E+02  0.36193813825E+02  0.00000000000E+00 0. -1.
</event>
<event>
 7    1  0.5957303E-006  0.3869541E+02  0.7818608E-02  0.1554449E+00
          2   -1    0    0  502    0  0.00000000000E+00  0.00000000000E+00  0.12950318197E+04  0.12950318197E+04  0.00000000000E+00 0. -1.
          1   -1    0    0  501    0 -0.00000000000E+00 -0.00000000000E+00 -0.93898196619E+02  0.93898196619E+02  0.00000000000E+00 0. -1.
         25    2    1    2    0    0 -0.11313658297E+02 -0.78008991261E+01  0.17919928896E+03  0.21892062230E+03  0.12500000326E+03 0.  0.
          2    1    1    2  501    0  0.96457087918E+01  0.38247976802E+02 -0.68555327067E+02  0.79093490862E+02  0.00000000000E+00 0. -1.
          1    1    1    2  502    0  0.16679495050E+01 -0.30447077676E+02  0.10904896612E+04  0.10909159031E+04  0.00000000000E+00 0. -1.
         22    1    3    3    0    0  0.70661261092E+01  0.23673591688E+02 -0.96966594924E+01  0.26540427406E+02  0.00000000000E+00 0. -1.
         22    1    3    3    0    0 -0.18379784406E+02 -0.31474490814E+02  0.18889594845E+03  0.19238019490E+03  0.00000000000E+00 0. -1.
</event>
<event>
 7    1  0.5957303E-006  0.2341302E+03  0.7818608E-02  0.1277768E+00
          2   -1    0    0  502    0  0.00000000000E+00  0.00000000000E+00  0.41354346368E+03  0.41354346368E+03  0.00000000000E+00 0. -1.
          1   -1    0    0  501    0 -0.00000000000E+00 -0.00000000000E+00 -0.43452469486E+03  0.43452469486E+03  0.00000000000E+00 0. -1.
         25    2    1    2    0    0  0.44389970476E+02  0.22493962752E+03  0.19147720583E+03  0.32381808006E+03  0.12500529235E+03 0.  0.
          2    1    1    2  501    0 -0.39716491395E+02  0.18354963884E+02 -0.27055632647E+03  0.27407121371E+03  0.00000000000E+00 0. -1.
          1    1    1    2  502    0 -0.46734790804E+01 -0.24329459141E+03  0.58097889470E+02  0.25017886476E+03  0.00000000000E+00 0. -1.
         22    1    3    3    0    0  0.63525833923E+02  0.39734376728E+02  0.53101549042E+02  0.91837502037E+02  0.00000000000E+00 0. -1.
         22    1    3    3    0    0 -0.19135863448E+02  0.18520525079E+03  0.13837565678E+03  0.23198057803E+03  0.00000000000E+00 0. -1.
</event>
<event>
 7    1  0.5957303E-006  0.8747331E+02  0.7818608E-02  0.1367982E+00
          2   -1    0    0  502    0  0.00000000000E+00  0.00000000000E+00  0.11449634462E+04  0.11449634462E+04  0.00000000000E+00 0. -1.
          1   -1    0    0  501    0 -0.00000000000E+00 -0.00000000000E+00 -0.16903517556E+03  0.16903517556E+03  0.00000000000E+00 0. -1.
         25    2    1    2    0    0  0.78779221408E+02 -0.78092695612E+02  0.77241427770E+02  0.18410955244E+03  0.12500181720E+03 0.  0.
          2    1    1    2  501    0 -0.81963624938E+02  0.25744305837E+02 -0.98854792583E+02  0.13096974885E+03  0.00000000000E+00 0. -1.
          1    1    1    2  502    0  0.31844035300E+01  0.52348389775E+02  0.99754163546E+03  0.99891932047E+03  0.00000000000E+00 0. -1.
         22    1    3    3    0    0  0.22066060074E+02 -0.45688842040E+02  0.10226707959E+03  0.11416188884E+03  0.00000000000E+00 0.  1.
         22    1    3    3    0    0  0.56713161334E+02 -0.32403853572E+02 -0.25025651823E+02  0.69947663606E+02  0.00000000000E+00 0.  1.
</event>
<event>
 7    1  0.5957303E-006  0.3267862E+02  0.7818608E-02  0.1627248E+00
          2   -1    0    0  502    0  0.00000000000E+00  0.00000000000E+00  0.46918822679E+03  0.46918822679E+03  0.00000000000E+00 0. -1.
          1   -1    0    0  501    0 -0.00000000000E+00 -0.00000000000E+00 -0.84094426874E+02  0.84094426874E+02  0.00000000000E+00 0. -1.
         25    2    1    2    0    0 -0.27691485044E+02  0.38336606601E+02  0.74968649132E+02  0.15323907576E+03  0.12500160894E+03 0.  0.
          2    1    1    2  501    0  0.22302737226E+02 -0.62965887959E+01 -0.41172592308E+02  0.47246602795E+02  0.00000000000E+00 0. -1.
          1    1    1    2  502    0  0.53887478179E+01 -0.32040017805E+02  0.35129774309E+03  0.35279697511E+03  0.00000000000E+00 0. -1.
         22    1    3    3    0    0  0.44633455787E+02  0.20056611677E+02  0.21327574497E+01  0.48979196623E+02  0.00000000000E+00 0.  1.
         22    1    3    3    0    0 -0.72324940831E+02  0.18279994923E+02  0.72835891682E+02  0.10425987914E+03  0.00000000000E+00 0.  1.
</event>
<event>
 7    1  0.5957303E-006  0.2377094E+02  0.7818608E-02  0.1681640E+00
          2   -1    0    0  502    0  0.00000000000E+00  0.00000000000E+00  0.17113804634E+03  0.17113804634E+03  0.00000000000E+00 0. -1.
          1   -1    0    0  501    0 -0.00000000000E+00 -0.00000000000E+00 -0.82976581253E+03  0.82976581253E+03  0.00000000000E+00 0. -1.
         25    2    1    2    0    0 -0.14438269077E+02 -0.15151279975E+02  0.81854330841E+02  0.15087383200E+03  0.12499902722E+03 0.  0.
          2    1    1    2  501    0  0.22361469699E+02 -0.80636496450E+01 -0.79232251143E+03  0.79267901441E+03  0.00000000000E+00 0. -1.
          1    1    1    2  502    0 -0.79232006225E+01  0.23214929620E+02  0.51840414399E+02  0.57351012462E+02  0.00000000000E+00 0. -1.
         22    1    3    3    0    0  0.49122246225E+02  0.19828494884E+02  0.44964076574E+02  0.69483325091E+02  0.00000000000E+00 0. -1.
         22    1    3    3    0    0 -0.63560515301E+02 -0.34979774859E+02  0.36890254267E+02  0.81390506906E+02  0.00000000000E+00 0. -1.
</event>
<event>
 7    1  0.5957303E-006  0.1905237E+03  0.7818608E-02  0.1233625E+00
          2   -1    0    0  502    0  0.00000000000E+00  0.00000000000E+00  0.74157567289E+03  0.74157567289E+03  0.00000000000E+00 0. -1.
          1   -1    0    0  501    0 -0.00000000000E+00 -0.00000000000E+00 -0.48708414356E+03  0.48708414356E+03  0.00000000000E+00 0. -1.
         25    2    1    2    0    0  0.85956249976E+02  0.10708355065E+03  0.21443613429E+03  0.28366075734E+03  0.12500082335E+03 0.  0.
          2    1    1    2  501    0 -0.60349655787E+02 -0.18628050367E+03 -0.42743740165E+03  0.47015448454E+03  0.00000000000E+00 0. -1.
          1    1    1    2  502    0 -0.25606594189E+02  0.79196953017E+02  0.46749279670E+03  0.47484457457E+03  0.00000000000E+00 0. -1.
         22    1    3    3    0    0  0.40844562689E+02  0.12776883817E+03  0.17363683646E+03  0.21941491582E+03  0.00000000000E+00 0. -1.
         22    1    3    3    0    0  0.45111687287E+02 -0.20685287523E+02  0.40799297832E+02  0.64245841526E+02  0.00000000000E+00 0. -1.
</event>
<event>
 7    1  0.5957303E-006  0.1021530E+03  0.7818608E-02  0.1338146E+00
          2   -1    0    0  502    0  0.00000000000E+00  0.00000000000E+00  0.79741123306E+03  0.79741123306E+03  0.00000000000E+00 0. -1.
          1   -1    0    0  501    0 -0.00000000000E+00 -0.00000000000E+00 -0.43440848992E+03  0.43440848992E+03  0.00000000000E+00 0. -1.
         25    2    1    2    0    0 -0.20689478779E+00  0.14144743158E+03 -0.27107354707E+03  0.33032360386E+03  0.12500158655E+03 0.  0.
          2    1    1    2  501    0  0.78725026447E+01 -0.84097907216E+02 -0.11914941515E+03  0.14605142049E+03  0.00000000000E+00 0. -1.
          1    1    1    2  502    0 -0.76656078570E+01 -0.57349524361E+02  0.75322570536E+03  0.75544469864E+03  0.00000000000E+00 0. -1.
         22    1    3    3    0    0  0.32125530390E+02  0.13984791334E+03 -0.25838405891E+03  0.29555339698E+03  0.00000000000E+00 0. -1.
         22    1    3    3    0    0 -0.32332425178E+02  0.15995182365E+01 -0.12689488156E+02  0.34770206875E+02  0.00000000000E+00 0. -1.
</event>
<event>
 7    1  0.5957303E-006  0.3227925E+03  0.7818608E-02  0.1241809E+00
          2   -1    0    0  502    0  0.00000000000E+00  0.00000000000E+00  0.17827260182E+04  0.17827260182E+04  0.00000000000E+00 0. -1.
          1   -1    0    0  501    0 -0.00000000000E+00 -0.00000000000E+00 -0.90275576506E+03  0.90275576506E+03  0.00000000000E+00 0. -1.
         25    2    1    2    0    0 -0.29023669656E+03 -0.11925945107E+03  0.40135797489E+02  0.34014811619E+03  0.12501880662E+03 0.  0.
          2    1    1    2  501    0  0.31460781036E+03  0.81197526675E+02 -0.71734462442E+03  0.78749883992E+03  0.00000000000E+00 0. -1.
          1    1    1    2  502    0 -0.24371113800E+02  0.38061924390E+02  0.15571790800E+04  0.15578348271E+04  0.00000000000E+00 0. -1.
         22    1    3    3    0    0 -0.27252413519E+03 -0.85270843735E+02  0.12595561711E+01  0.28555578708E+03  0.00000000000E+00 0. -1.
         22    1    3    3    0    0 -0.17712561369E+02 -0.33988607331E+02  0.38876241318E+02  0.54592329109E+02  0.00000000000E+00 0. -1.
</event>
<event>
 7    1  0.5957303E-006  0.5141201E+02  0.7818608E-02  0.1453632E+00
          2   -1    0    0  502    0  0.00000000000E+00  0.00000000000E+00  0.15100775230E+03  0.15100775230E+03  0.00000000000E+00 0. -1.
          1   -1    0    0  501    0 -0.00000000000E+00 -0.00000000000E+00 -0.42135590544E+03  0.42135590544E+03  0.00000000000E+00 0. -1.
         25    2    1    2    0    0 -0.30769687452E+02 -0.21973433867E+02  0.48253875878E+02  0.13923483756E+03  0.12501319127E+03 0.  0.
          2    1    1    2  501    0  0.47840371794E+02 -0.20465686841E+02 -0.36457827210E+03  0.36827280921E+03  0.00000000000E+00 0. -1.
          1    1    1    2  502    0 -0.17070684341E+02  0.42439120708E+02  0.45976243086E+02  0.64856010968E+02  0.00000000000E+00 0. -1.
         22    1    3    3    0    0  0.67382295597E+01 -0.64133921576E+02 -0.75869940502E+00  0.64491389031E+02  0.00000000000E+00 0. -1.
         22    1    3    3    0    0 -0.37507917012E+02  0.42160487709E+02  0.49012575283E+02  0.74743448531E+02  0.00000000000E+00 0. -1.
</event>
<event>
 7    1  0.5957303E-006  0.6597074E+02  0.7818608E-02  0.1409951E+00
          2   -1    0    0  502    0  0.00000000000E+00  0.00000000000E+00  0.94068269991E+03  0.94068269991E+03  0.00000000000E+00 0. -1.
          1   -1    0    0  501    0 -0.00000000000E+00 -0.00000000000E+00 -0.33346074417E+03  0.33346074417E+03  0.00000000000E+00 0. -1.
         25    2    1    2    0    0 -0.18341027513E+02 -0.56384554320E+01  0.10469662203E+03  0.16417985590E+03  0.12500182778E+03 0.  0.
          2    1    1    2  501    0  0.67249676230E+02 -0.26350581436E+01 -0.29921485583E+03  0.30669038530E+03  0.00000000000E+00 0. -1.
          1    1    1    2  502    0 -0.48908648717E+02  0.82735135756E+01  0.80174018953E+03  0.80327320288E+03  0.00000000000E+00 0. -1.
         22    1    3    3    0    0 -0.66927893965E+02 -0.24141197157E+02  0.78558163142E+02  0.10598832665E+03  0.00000000000E+00 0. -1.
         22    1    3    3    0    0  0.48586866452E+02  0.18502741725E+02  0.26138458889E+02  0.58191529247E+02  0.00000000000E+00 0. -1.
</event>
<event>
 7    1  0.5957303E-006  0.3902345E+02  0.7818608E-02  0.1554829E+00
          2   -1    0    0  502    0  0.00000000000E+00  0.00000000000E+00  0.19368646202E+04  0.19368646202E+04  0.00000000000E+00 0. -1.
          1   -1    0    0  501    0 -0.00000000000E+00 -0.00000000000E+00 -0.25647098425E+03  0.25647098425E+03  0.00000000000E+00 0. -1.
         25    2    1    2    0    0  0.16662210242E+02 -0.66309270145E+02  0.43762707456E+03  0.46023559790E+03  0.12499920248E+03 0.  0.
          2    1    1    2  501    0 -0.96878026252E+01  0.28564909775E+02 -0.24399034815E+03  0.24584771217E+03  0.00000000000E+00 0. -1.
          1    1    1    2  502    0 -0.69744076172E+01  0.37744360370E+02  0.14867569095E+04  0.14872522944E+04  0.00000000000E+00 0. -1.
         22    1    3    3    0    0 -0.61757549835E+01 -0.10073753582E+03  0.32220772876E+03  0.33764480085E+03  0.00000000000E+00 0.  1.
         22    1    3    3    0    0  0.22837965226E+02  0.34428265674E+02  0.11541934581E+03  0.12259079704E+03  0.00000000000E+00 0.  1.
</event>
<event>
 7    1  0.5957303E-006  0.8249914E+02  0.7818608E-02  0.1502539E+00
          2   -1    0    0  502    0  0.00000000000E+00  0.00000000000E+00  0.85732397384E+03  0.85732397384E+03  0.00000000000E+00 0. -1.
          1   -1    0    0  501    0 -0.00000000000E+00 -0.00000000000E+00 -0.20621521695E+02  0.20621521695E+02  0.00000000000E+00 0. -1.
         25    2    1    2    0    0 -0.64421258552E+02  0.20767960656E+02  0.60340680509E+03  0.61992423197E+03  0.12499949683E+03 0.  0.
          2    1    1    2  501    0  0.79862480592E+02 -0.33728116647E+02  0.15968451354E+03  0.18169960243E+03  0.00000000000E+00 0. -1.
          1    1    1    2  502    0 -0.15441222040E+02  0.12960155991E+02  0.73611133514E+02  0.76321661136E+02  0.00000000000E+00 0. -1.
         22    1    3    3    0    0 -0.16454182024E+02 -0.26200342292E+02  0.31722085066E+02  0.44311270837E+02  0.00000000000E+00 0.  1.
         22    1    3    3    0    0 -0.47967076528E+02  0.46968302948E+02  0.57168472002E+03  0.57561296113E+03  0.00000000000E+00 0.  1.
</event>
<event>
 7    1  0.5957303E-006  0.5866202E+02  0.7818608E-02  0.1457500E+00
          2   -1    0    0  502    0  0.00000000000E+00  0.00000000000E+00  0.77845399828E+03  0.77845399828E+03  0.00000000000E+00 0. -1.
          1   -1    0    0  501    0 -0.00000000000E+00 -0.00000000000E+00 -0.22521697829E+04  0.22521697829E+04  0.00000000000E+00 0. -1.
         25    2    1    2    0    0 -0.32650092344E+02 -0.42263098183E+02  0.26046604506E+03  0.29380070629E+03  0.12499638550E+03 0.  0.
          2    1    1    2  501    0 -0.26286213904E+02  0.28773210150E+02 -0.22335089205E+04  0.22338489117E+04  0.00000000000E+00 0. -1.
          1    1    1    2  502    0  0.58936306248E+02  0.13489888033E+02  0.49932709076E+03  0.50297416319E+03  0.00000000000E+00 0. -1.
         22    1    3    3    0    0 -0.58560271591E+02  0.98847809005E+00  0.48866121144E+02  0.76276997145E+02  0.00000000000E+00 0. -1.
         22    1    3    3    0    0  0.25910179247E+02 -0.43251576273E+02  0.21159992391E+03  0.21752370914E+03  0.00000000000E+00 0. -1.
</event>
<event>
 7    1  0.5957303E-006  0.1732173E+03  0.7818608E-02  0.1252339E+00
          2   -1    0    0  502    0  0.00000000000E+00  0.00000000000E+00  0.92142182944E+03  0.92142182944E+03  0.00000000000E+00 0. -1.
          1   -1    0    0  501    0 -0.00000000000E+00 -0.00000000000E+00 -0.79119097798E+03  0.79119097798E+03  0.00000000000E+00 0. -1.
         25    2    1    2    0    0  0.10263534401E+03 -0.15032514291E+03  0.33109913614E+03  0.39797300552E+03  0.12499685094E+03 0.  0.
          2    1    1    2  501    0 -0.29693149097E+02  0.17085014602E+03 -0.74517373806E+03  0.76508519486E+03  0.00000000000E+00 0. -1.
          1    1    1    2  502    0 -0.72942194910E+02 -0.20525003110E+02  0.54430545337E+03  0.54955460704E+03  0.00000000000E+00 0. -1.
         22    1    3    3    0    0  0.49256951133E+02 -0.12492220368E+03  0.30519754936E+03  0.33343267438E+03  0.00000000000E+00 0.  1.
         22    1    3    3    0    0  0.53378392874E+02 -0.25402939221E+02  0.25901586784E+02  0.64540331149E+02  0.00000000000E+00 0.  1.
</event>
<event>
 7    1  0.5957303E-006  0.6728234E+02  0.7818608E-02  0.1451127E+00
          2   -1    0    0  502    0  0.00000000000E+00  0.00000000000E+00  0.17726450253E+04  0.17726450253E+04  0.00000000000E+00 0. -1.
          1   -1    0    0  501    0 -0.00000000000E+00 -0.00000000000E+00 -0.24277972589E+04  0.24277972589E+04  0.00000000000E+00 0. -1.
         25    2    1    2    0    0  0.20102088968E+02 -0.58920238358E+02 -0.46864721119E+02  0.14730164896E+03  0.12500314089E+03 0.  0.
          2    1    1    2  501    0 -0.51939512138E+02  0.42985020536E+02 -0.23300424484E+04  0.23310176397E+04  0.00000000000E+00 0. -1.
          1    1    1    2  502    0  0.31837423170E+02  0.15935217822E+02  0.17217549359E+04  0.17221229956E+04  0.00000000000E+00 0. -1.
         22    1    3    3    0    0 -0.16898188121E+02  0.10255120106E+02 -0.64017171648E+02  0.66999362057E+02  0.00000000000E+00 0. -1.
         22    1    3    3    0    0  0.37000277089E+02 -0.69175358465E+02  0.17152450529E+02  0.80302286907E+02  0.00000000000E+00 0. -1.
</event>
<event>
 7    1  0.5957303E-006  0.8983178E+02  0.7818608E-02  0.1448726E+00
          2   -1    0    0  502    0  0.00000000000E+00  0.00000000000E+00  0.35677523980E+03  0.35677523980E+03  0.00000000000E+00 0. -1.
          1   -1    0    0  501    0 -0.00000000000E+00 -0.00000000000E+00 -0.24856072130E+04  0.24856072130E+04  0.00000000000E+00 0. -1.
         25    2    1    2    0    0 -0.87397753012E+02 -0.35846046825E+02 -0.62905894587E+03  0.64828347620E+03  0.12503200323E+03 0.  0.
          2    1    1    2  501    0  0.89280932187E+02  0.87698276475E+01 -0.18453141550E+04  0.18474935251E+04  0.00000000000E+00 0. -1.
          1    1    1    2  502    0 -0.18831791754E+01  0.27076219178E+02  0.34554112773E+03  0.34660545143E+03  0.00000000000E+00 0. -1.
         22    1    3    3    0    0 -0.10221611389E+03  0.10451009674E+02 -0.49825316049E+03  0.50873723029E+03  0.00000000000E+00 0.  1.
         22    1    3    3    0    0  0.14818360883E+02 -0.46297056499E+02 -0.13080578537E+03  0.13954624591E+03  0.00000000000E+00 0.  1.
</event>
<event>
 7    1  0.5957303E-006  0.1633900E+03  0.7818608E-02  0.1368291E+00
          2   -1    0    0  502    0  0.00000000000E+00  0.00000000000E+00  0.27799805476E+04  0.27799805476E+04  0.00000000000E+00 0. -1.
          1   -1    0    0  501    0 -0.00000000000E+00 -0.00000000000E+00 -0.58245888180E+02  0.58245888180E+02  0.00000000000E+00 0. -1.
         25    2    1    2    0    0  0.15002171361E+03 -0.36087886683E+02  0.12874928469E+04  0.13027172538E+04  0.12500224911E+03 0.  0.
          2    1    1    2  501    0  0.77115880463E+01 -0.26922667128E+02 -0.41477664806E+02  0.50046930708E+02  0.00000000000E+00 0. -1.
          1    1    1    2  502    0 -0.15773330166E+03  0.63010553812E+02  0.14757194773E+04  0.14854622513E+04  0.00000000000E+00 0. -1.
         22    1    3    3    0    0  0.25813316887E+02  0.43842000050E+02  0.33031132884E+03  0.33420655628E+03  0.00000000000E+00 0.  1.
         22    1    3    3    0    0  0.12420839672E+03 -0.79929886733E+02  0.95718151809E+03  0.96851069750E+03  0.00000000000E+00 0.  1.
</event>
<event>
 7    1  0.5957303E-006  0.5347356E+02  0.7818608E-02  0.1434942E+00
          2   -1    0    0  502    0  0.00000000000E+00  0.00000000000E+00  0.73656409070E+03  0.73656409070E+03  0.00000000000E+00 0. -1.
          1   -1    0    0  501    0 -0.00000000000E+00 -0.00000000000E+00 -0.32058380580E+03  0.32058380580E+03  0.00000000000E+00 0. -1.
         25    2    1    2    0    0 -0.52722095059E+02 -0.16121097409E+01  0.52587736433E+02  0.14549919372E+03  0.12498930812E+03 0.  0.
          2    1    1    2  501    0  0.24234466233E+02 -0.44338860818E+02 -0.27063927831E+03  0.27531593288E+03  0.00000000000E+00 0. -1.
          1    1    1    2  502    0  0.28487628826E+02  0.45950970559E+02  0.63403182678E+03  0.63633276991E+03  0.00000000000E+00 0. -1.
         22    1    3    3    0    0  0.23410704290E+01  0.54103910574E+02  0.37112953366E+02  0.65651238051E+02  0.00000000000E+00 0.  1.
         22    1    3    3    0    0 -0.55063165488E+02 -0.55716020314E+02  0.15474783066E+02  0.79847955667E+02  0.00000000000E+00 0.  1.
</event>
<event>
 7    1  0.5957303E-006  0.1648638E+03  0.7818608E-02  0.1222206E+00
          2   -1    0    0  502    0  0.00000000000E+00  0.00000000000E+00  0.66185659568E+03  0.66185659568E+03  0.00000000000E+00 0. -1.
          1   -1    0    0  501    0 -0.00000000000E+00 -0.00000000000E+00 -0.78723150869E+03  0.78723150869E+03  0.00000000000E+00 0. -1.
         25    2    1    2    0    0  0.38336234166E+02 -0.84125543269E+02  0.11542018279E+03  0.19363295509E+03  0.12500051528E+03 0.  0.
          2    1    1    2  501    0 -0.14656601890E+03  0.87045559404E+02 -0.73244755851E+03  0.75202257497E+03  0.00000000000E+00 0. -1.
          1    1    1    2  502    0  0.10822978473E+03 -0.29200161351E+01  0.49165246271E+03  0.50343257432E+03  0.00000000000E+00 0. -1.
         22    1    3    3    0    0  0.41855570151E+02 -0.75160015572E+02  0.14162942016E+03  0.16571001584E+03  0.00000000000E+00 0. -1.
         22    1    3    3    0    0 -0.35193359851E+01 -0.89655276974E+01 -0.26209237371E+02  0.27922939248E+02  0.00000000000E+00 0. -1.
</event>
<event>
 7    1  0.5957303E-006  0.1405232E+03  0.7818608E-02  0.1289818E+00
          2   -1    0    0  502    0  0.00000000000E+00  0.00000000000E+00  0.17834457190E+04  0.17834457190E+04  0.00000000000E+00 0. -1.
          1   -1    0    0  501    0 -0.00000000000E+00 -0.00000000000E+00 -0.85272886472E+03  0.85272886472E+03  0.00000000000E+00 0. -1.
         25    2    1    2    0    0  0.10297790608E+03  0.54479428826E+02  0.14930179144E+03  0.22691755972E+03  0.12501238608E+03 0.  0.
          2    1    1    2  501    0 -0.19347041977E+02  0.62102066047E+02 -0.80938773241E+03  0.81199721429E+03  0.00000000000E+00 0. -1.
          1    1    1    2  502    0 -0.83630864104E+02 -0.11658149487E+03  0.15908027952E+04  0.15972598097E+04  0.00000000000E+00 0. -1.
         22    1    3    3    0    0  0.12716764258E+03  0.63255548447E+02  0.10872250939E+03  0.17886715119E+03  0.00000000000E+00 0.  1.
         22    1    3    3    0    0 -0.24189736496E+02 -0.87761196208E+01  0.40579282055E+02  0.48050408525E+02  0.00000000000E+00 0.  1.
</event>
<event>
 7    1  0.5957303E-006  0.1468416E+03  0.7818608E-02  0.1292778E+00
          2   -1    0    0  502    0  0.00000000000E+00  0.00000000000E+00  0.47973969586E+03  0.47973969586E+03  0.00000000000E+00 0. -1.
          1   -1    0    0  501    0 -0.00000000000E+00 -0.00000000000E+00 -0.48292915215E+03  0.48292915215E+03  0.00000000000E+00 0. -1.
         25    2    1    2    0    0 -0.15404097555E+03  0.59971632714E+02 -0.27845081875E+02  0.20910612940E+03  0.12499922356E+03 0.  0.
          2    1    1    2  501    0  0.10715679622E+03 -0.98285984975E+02 -0.34740518986E+03  0.37660732834E+03  0.00000000000E+00 0. -1.
          1    1    1    2  502    0  0.46884179336E+02  0.38314352261E+02  0.37206081544E+03  0.37695539026E+03  0.00000000000E+00 0. -1.
         22    1    3    3    0    0 -0.35013861187E+02  0.63638258274E+02 -0.49730801665E+02  0.88028126332E+02  0.00000000000E+00 0. -1.
         22    1    3    3    0    0 -0.11902711437E+03 -0.36666255591E+01  0.21885719789E+02  0.12107800307E+03  0.00000000000E+00 0. -1.
</event>
<event>
 7    1  0.5957303E-006  0.1410814E+03  0.7818608E-02  0.1376405E+00
          2   -1    0    0  502    0  0.00000000000E+00  0.00000000000E+00  0.36063597430E+03  0.36063597430E+03  0.00000000000E+00 0. -1.
          1   -1    0    0  501    0 -0.00000000000E+00 -0.00000000000E+00 -0.82619556295E+03  0.82619556295E+03  0.00000000000E+00 0. -1.
         25    2    1    2    0    0 -0.14360277357E+03  0.85508778015E+02 -0.60844051468E+03  0.64323896192E+03  0.12499197784E+03 0.  0.
          2    1    1    2  501    0  0.30228260432E+02 -0.25281552722E+01 -0.18468906170E+03  0.18716353493E+03  0.00000000000E+00 0. -1.
          1    1    1    2  502    0  0.11337451313E+03 -0.82980622743E+02  0.32756998773E+03  0.35642904040E+03  0.00000000000E+00 0. -1.
         22    1    3    3    0    0  0.88509719088E+01  0.43575691051E+02 -0.78563346524E+02  0.90273916340E+02  0.00000000000E+00 0.  1.
         22    1    3    3    0    0 -0.15245374547E+03  0.41933086965E+02 -0.52987716816E+03  0.55296504558E+03  0.00000000000E+00 0.  1.
</event>
<event>
 7    1  0.5957303E-006  0.8946970E+02  0.7818608E-02  0.1396113E+00
          2   -1    0    0  502    0  0.00000000000E+00  0.00000000000E+00  0.91335445591E+03  0.91335445591E+03  0.00000000000E+00 0. -1.
          1   -1    0    0  501    0 -0.00000000000E+00 -0.00000000000E+00 -0.98973990036E+02  0.98973990036E+02  0.00000000000E+00 0. -1.
         25    2    1    2    0    0 -0.39869144663E+02 -0.10707569882E+03  0.14326729456E+03  0.22182307906E+03  0.12500082695E+03 0.  0.
          2    1    1    2  501    0  0.52258952172E+02  0.68212000066E+02 -0.27867610112E+02  0.90335368093E+02  0.00000000000E+00 0. -1.
          1    1    1    2  502    0 -0.12389807510E+02  0.38863698757E+02  0.69898078143E+03  0.70016999880E+03  0.00000000000E+00 0. -1.
         22    1    3    3    0    0  0.20489271319E+02  0.19951421183E+02  0.21206830562E+02  0.35603358113E+02  0.00000000000E+00 0.  1.
         22    1    3    3    0    0 -0.60358415982E+02 -0.12702712001E+03  0.12206046400E+03  0.18621972095E+03  0.00000000000E+00 0.  1.
</event>
<event>
 7    1  0.5957303E-006  0.2971932E+03  0.7818608E-02  0.1145412E+00
          2   -1    0    0  502    0  0.00000000000E+00  0.00000000000E+00  0.40058126675E+03  0.40058126675E+03  0.00000000000E+00 0. -1.
          1   -1    0    0  501    0 -0.00000000000E+00 -0.00000000000E+00 -0.11694058144E+04  0.11694058144E+04  0.00000000000E+00 0. -1.
         25    2    1    2    0    0  0.20083904392E+02 -0.37834975883E+03 -0.28263940405E+03  0.48893988280E+03  0.12500109219E+03 0.  0.
          2    1    1    2  501    0  0.85211611215E+02  0.11322092229E+03 -0.70652106154E+03  0.72059142815E+03  0.00000000000E+00 0. -1.
          1    1    1    2  502    0 -0.10529551561E+03  0.26512883654E+03  0.22033591790E+03  0.36045577023E+03  0.00000000000E+00 0. -1.
         22    1    3    3    0    0  0.70110299081E+02 -0.15843055789E+03 -0.11547952957E+03  0.20820955180E+03  0.00000000000E+00 0.  1.
         22    1    3    3    0    0 -0.50026394689E+02 -0.21991920094E+03 -0.16715987448E+03  0.28073033100E+03  0.00000000000E+00 0.  1.
</event>
<event>
 7    1  0.5957303E-006  0.4243899E+02  0.7818608E-02  0.1553394E+00
          2   -1    0    0  502    0  0.00000000000E+00  0.00000000000E+00  0.25144381932E+04  0.25144381932E+04  0.00000000000E+00 0. -1.
          1   -1    0    0  501    0 -0.00000000000E+00 -0.00000000000E+00 -0.54978054695E+02  0.54978054695E+02  0.00000000000E+00 0. -1.
         25    2    1    2    0    0  0.39717700201E+01  0.69674105137E+02  0.49716844322E+03  0.51737215555E+03  0.12500892174E+03 0.  0.
          2    1    1    2  501    0 -0.27840399515E+00 -0.27989505779E+02 -0.40271501205E+02  0.49043692273E+02  0.00000000000E+00 0. -1.
          1    1    1    2  502    0 -0.36933660249E+01 -0.41684599359E+02  0.20025631965E+04  0.20030004000E+04  0.00000000000E+00 0. -1.
         22    1    3    3    0    0 -0.10932021529E+02 -0.26854736665E+02  0.24887709275E+03  0.25056035855E+03  0.00000000000E+00 0.  1.
         22    1    3    3    0    0  0.14903791550E+02  0.96528841803E+02  0.24829135047E+03  0.26681179700E+03  0.00000000000E+00 0.  1.
</event>
<event>
 7    1  0.5957303E-006  0.4489591E+02  0.7818608E-02  0.1476725E+00
          2   -1    0    0  502    0  0.00000000000E+00  0.00000000000E+00  0.34000802686E+02  0.34000802686E+02  0.00000000000E+00 0. -1.
          1   -1    0    0  501    0 -0.00000000000E+00 -0.00000000000E+00 -0.93880519236E+03  0.93880519236E+03  0.00000000000E+00 0. -1.
         25    2    1    2    0    0  0.32786341775E+02  0.28567863650E+02 -0.37132952570E+03  0.39420908076E+03  0.12499646258E+03 0.  0.
          2    1    1    2  501    0 -0.43718826178E+02  0.14976639266E+02 -0.53165963867E+03  0.53366432041E+03  0.00000000000E+00 0. -1.
          1    1    1    2  502    0  0.10932484403E+02 -0.43544502916E+02 -0.18152253024E+01  0.44932593874E+02  0.00000000000E+00 0. -1.
         22    1    3    3    0    0  0.66264406260E+01  0.55562517038E+02 -0.34195376276E+03  0.34650177327E+03  0.00000000000E+00 0.  1.
         22    1    3    3    0    0  0.26159901149E+02 -0.26994653388E+02 -0.29375762940E+02  0.47707307490E+02  0.00000000000E+00 0.  1.
</event>
<event>
 7    1  0.5957303E-006  0.3716902E+02  0.7818608E-02  0.1626260E+00
          2   -1    0    0  502    0  0.00000000000E+00  0.00000000000E+00  0.88997341979E+03  0.88997341979E+03  0.00000000000E+00 0. -1.
          1   -1    0    0  501    0 -0.00000000000E+00 -0.00000000000E+00 -0.12126584355E+02  0.12126584355E+02  0.00000000000E+00 0. -1.
         25    2    1    2    0    0 -0.40264729194E+02 -0.27604563565E+02  0.60617292404E+03  0.62085809945E+03  0.12504361424E+03 0.  0.
          2    1    1    2  501    0  0.20398432893E+02 -0.19575691981E+01  0.26522921835E+02  0.33517063182E+02  0.00000000000E+00 0. -1.
          1    1    1    2  502    0  0.19866296301E+02  0.29562132763E+02  0.24515098956E+03  0.24772484152E+03  0.00000000000E+00 0. -1.
         22    1    3    3    0    0 -0.22711817663E+02 -0.28792435296E+02  0.39450019094E+02  0.53862185235E+02  0.00000000000E+00 0. -1.
         22    1    3    3    0    0 -0.17552911531E+02  0.11878717304E+01  0.56672290495E+03  0.56699591421E+03  0.00000000000E+00 0. -1.
</event>
<event>
 7    1  0.5957303E-006  0.3380676E+02  0.7818608E-02  0.1578069E+00
          2   -1    0    0  502    0  0.00000000000E+00  0.00000000000E+00  0.96750331542E+03  0.96750331542E+03  0.00000000000E+00 0. -1.
          1   -1    0    0  501    0 -0.00000000000E+00 -0.00000000000E+00 -0.58572372249E+03  0.58572372249E+03  0.00000000000E+00 0. -1.
         25    2    1    2    0    0  0.37923470389E+02  0.46379276176E+02  0.37276764388E+03  0.39770661010E+03  0.12500241809E+03 0.  0.
          2    1    1    2  501    0 -0.10466998078E+02 -0.28206422419E+02 -0.57239338558E+03  0.57318352050E+03  0.00000000000E+00 0. -1.
          1    1    1    2  502    0 -0.27456472310E+02 -0.18172853757E+02  0.58140533463E+03  0.58233690732E+03  0.00000000000E+00 0. -1.
         22    1    3    3    0    0  0.45914379532E+02 -0.21632081758E+02  0.26646981263E+03  0.27126046201E+03  0.00000000000E+00 0. -1.
         22    1    3    3    0    0 -0.79909091430E+01  0.68011357934E+02  0.10629783125E+03  0.12644614808E+03  0.00000000000E+00 0. -1.
</event>
<event>
 7    1  0.5957303E-006  0.5708419E+02  0.7818608E-02  0.1479960E+00
          2   -1    0    0  502    0  0.00000000000E+00  0.00000000000E+00  0.14129013585E+04  0.14129013585E+04  0.00000000000E+00 0. -1.
          1   -1    0    0  501    0 -0.00000000000E+00 -0.00000000000E+00 -0.10263557899E+02  0.10263557899E+02  0.00000000000E+00 0. -1.
         25    2    1    2    0    0  0.95184392551E+01  0.31285343972E+02  0.55117210267E+03  0.56611299301E+03  0.12499544254E+03 0.  0.
          2    1    1    2  501    0  0.28469879851E+02  0.18747976625E+02  0.24970952804E+03  0.25202553260E+03  0.00000000000E+00 0. -1.
          1    1    1    2  502    0 -0.37988319106E+02 -0.50033320597E+02  0.60175616990E+03  0.60502639080E+03  0.00000000000E+00 0. -1.
         22    1    3    3    0    0  0.25818771176E+02 -0.41789439981E+02  0.14490788963E+03  0.15300739432E+03  0.00000000000E+00 0.  1.
         22    1    3    3    0    0 -0.16300331921E+02  0.73074783953E+02  0.40626421304E+03  0.41310559869E+03  0.00000000000E+00 0.  1.
</event>
<event>
 7    1  0.5957303E-006  0.1871659E+03  0.7818608E-02  0.1317116E+00
          2   -1    0    0  502    0  0.00000000000E+00  0.00000000000E+00  0.10483341750E+04  0.10483341750E+04  0.00000000000E+00 0. -1.
          1   -1    0    0  501    0 -0.00000000000E+00 -0.00000000000E+00 -0.84600661502E+03  0.84600661502E+03  0.00000000000E+00 0. -1.
         25    2    1    2    0    0 -0.11723195002E+03  0.12859040616E+03  0.27107155163E+03  0.34551881470E+03  0.12499857018E+03 0.  0.
          2    1    1    2  501    0 -0.35972258059E+02 -0.12317354696E+02 -0.79582513065E+03  0.79673292837E+03  0.00000000000E+00 0. -1.
          1    1    1    2  502    0  0.15320420808E+03 -0.11627305146E+03  0.72708113903E+03  0.75208904699E+03  0.00000000000E+00 0. -1.
         22    1    3    3    0    0 -0.36923541678E+02  0.12729488509E+03  0.14930159125E+03  0.19964543784E+03  0.00000000000E+00 0. -1.
         22    1    3    3    0    0 -0.80308408339E+02  0.12955210658E+01  0.12176996038E+03  0.14587337686E+03  0.00000000000E+00 0. -1.
</event>
<event>
 7    1  0.5957303E-006  0.5804975E+02  0.7818608E-02  0.1409507E+00
          2   -1    0    0  502    0  0.00000000000E+00  0.00000000000E+00  0.18537828882E+04  0.18537828882E+04  0.00000000000E+00 0. -1.
          1   -1    0    0  501    0 -0.00000000000E+00 -0.00000000000E+00 -0.35401947686E+02  0.35401947686E+02  0.00000000000E+00 0. -1.
         25    2    1    2    0    0  0.40334373553E+02  0.12088822319E+02  0.62415810938E+03  0.63794320349E+03  0.12500073623E+03 0.  0.
          2    1    1    2  501    0 -0.40369025127E+02  0.44479093843E+02  0.45656287266E+01  0.60240293363E+02  0.00000000000E+00 0. -1.
          1    1    1    2  502    0  0.34651574250E-01 -0.56567916163E+02  0.11896572024E+04  0.11910013390E+04  0.00000000000E+00 0. -1.
         22    1    3    3    0    0 -0.25673908375E+02  0.27487032046E+02  0.44176066915E+03  0.44335896891E+03  0.00000000000E+00 0.  1.
         22    1    3    3    0    0  0.66008281928E+02 -0.15398209726E+02  0.18239744023E+03  0.19458423458E+03  0.00000000000E+00 0.  1.
</event>
<event>
 7    1  0.5957303E-006  0.7264540E+02  0.7818608E-02  0.1404381E+00
          2   -1    0    0  502    0  0.00000000000E+00  0.00000000000E+00  0.75377321783E+03  0.75377321783E+03  0.00000000000E+00 0. -1.
          1   -1    0    0  501    0 -0.00000000000E+00 -0.00000000000E+00 -0.57065428406E+03  0.57065428406E+03  0.00000000000E+00 0. -1.
         25    2    1    2    0    0 -0.11563580062E+03 -0.10277013439E+02 -0.47092899289E+02  0.17697505228E+03  0.12500069030E+03 0.  0.
          2    1    1    2  501    0  0.43980155618E+02  0.16731642532E+02 -0.45552642097E+03  0.45795034900E+03  0.00000000000E+00 0. -1.
          1    1    1    2  502    0  0.71655645006E+02 -0.64546290932E+01  0.68573825404E+03  0.68950210061E+03  0.00000000000E+00 0. -1.
         22    1    3    3    0    0  0.40637919284E+01 -0.40582169623E+02  0.83359038264E+01  0.41628285922E+02  0.00000000000E+00 0. -1.
         22    1    3    3    0    0 -0.11969959255E+03  0.30305156184E+02 -0.55428803115E+02  0.13534676636E+03  0.00000000000E+00 0. -1.
</event>
<event>
 7    1  0.5957303E-006  0.6089266E+02  0.7818608E-02  0.1471309E+00
          2   -1    0    0  502    0  0.00000000000E+00  0.00000000000E+00  0.27343112935E+04  0.27343112935E+04  0.00000000000E+00 0. -1.
          1   -1    0    0  501    0 -0.00000000000E+00 -0.00000000000E+00 -0.12269059085E+02  0.12269059085E+02  0.00000000000E+00 0. -1.
         25    2    1    2    0    0 -0.25267269936E+02 -0.17910355792E+02  0.98162928196E+03  0.99004056597E+03  0.12500023717E+03 0.  0.
          2    1    1    2  501    0  0.52775254105E+02  0.37863410589E+02  0.12588418389E+03  0.14165342587E+03  0.00000000000E+00 0. -1.
          1    1    1    2  502    0 -0.27507984169E+02 -0.19953054797E+02  0.16145287686E+04  0.16148863607E+04  0.00000000000E+00 0. -1.
         22    1    3    3    0    0 -0.18070110759E+02 -0.71630826527E+02  0.51428488359E+03  0.51956370706E+03  0.00000000000E+00 0.  1.
         22    1    3    3    0    0 -0.71971591773E+01  0.53720470735E+02  0.46734439837E+03  0.47047685890E+03  0.00000000000E+00 0.  1.
</event>
<event>
 7    1  0.5957303E-006  0.7566401E+02  0.7818608E-02  0.1363855E+00
          2   -1    0    0  502    0  0.00000000000E+00  0.00000000000E+00  0.71640739625E+03  0.71640739625E+03  0.00000000000E+00 0. -1.
          1   -1    0    0  501    0 -0.00000000000E+00 -0.00000000000E+00 -0.26507238680E+03  0.26507238680E+03  0.00000000000E+00 0. -1.
         25    2    1    2    0    0 -0.20411100759E+02  0.35662133055E+02  0.41737466741E+02  0.13804170350E+03  0.12500038003E+03 0.  0.
          2    1    1    2  501    0  0.51205083661E+02  0.36272440454E+02 -0.20986881540E+03  0.21904924151E+03  0.00000000000E+00 0. -1.
          1    1    1    2  502    0 -0.30793982902E+02 -0.71934573509E+02  0.61946635811E+03  0.62438883804E+03  0.00000000000E+00 0. -1.
         22    1    3    3    0    0  0.43609069342E+02  0.49015840760E+02  0.27350212564E+02  0.71079798125E+02  0.00000000000E+00 0.  1.
         22    1    3    3    0    0 -0.64020170100E+02 -0.13353707704E+02  0.14387254177E+02  0.66961905378E+02  0.00000000000E+00 0.  1.
</event>
<event>
 7    1  0.5957303E-006  0.1046468E+03  0.7818608E-02  0.1331571E+00
          2   -1    0    0  502    0  0.00000000000E+00  0.00000000000E+00  0.18069971302E+04  0.18069971302E+04  0.00000000000E+00 0. -1.
          1   -1    0    0  501    0 -0.00000000000E+00 -0.00000000000E+00 -0.19628005819E+03  0.19628005819E+03  0.00000000000E+00 0. -1.
         25    2    1    2    0    0  0.86355076036E+02  0.13655387959E+03  0.21225639443E+03  0.29458949770E+03  0.12500413589E+03 0.  0.
          2    1    1    2  501    0 -0.26232983184E+02 -0.53759039255E+02 -0.14759174989E+03  0.15925303245E+03  0.00000000000E+00 0. -1.
          1    1    1    2  502    0 -0.60122092853E+02 -0.82794840339E+02  0.15460524275E+04  0.15494346582E+04  0.00000000000E+00 0. -1.
         22    1    3    3    0    0  0.99792472018E+02  0.57253372894E+02  0.81193819739E+02  0.14081520707E+03  0.00000000000E+00 0. -1.
         22    1    3    3    0    0 -0.13437395982E+02  0.79300506700E+02  0.13106257469E+03  0.15377429063E+03  0.00000000000E+00 0. -1.
</event>
<event>
 7    1  0.5957303E-006  0.1173809E+03  0.7818608E-02  0.1291885E+00
          2   -1    0    0  502    0  0.00000000000E+00  0.00000000000E+00  0.31816689531E+04  0.31816689531E+04  0.00000000000E+00 0. -1.
          1   -1    0    0  501    0 -0.00000000000E+00 -0.00000000000E+00 -0.51608220285E+02  0.51608220285E+02  0.00000000000E+00 0. -1.
         25    2    1    2    0    0 -0.10473211119E+03  0.50843676303E+02  0.30727122197E+03  0.35156117501E+03  0.12500304553E+03 0.  0.
          2    1    1    2  501    0  0.57373096487E+02 -0.11076757607E+03  0.10556137934E+03  0.16341460436E+03  0.00000000000E+00 0. -1.
          1    1    1    2  502    0  0.47359014705E+02  0.59923899771E+02  0.27172281315E+04  0.27183013940E+04  0.00000000000E+00 0. -1.
         22    1    3    3    0    0  0.25148092635E+02  0.15099525978E+02  0.10120841963E+03  0.10537346180E+03  0.00000000000E+00 0.  1.
         22    1    3    3    0    0 -0.12988020383E+03  0.35744150325E+02  0.20606280234E+03  0.24618771321E+03  0.00000000000E+00 0.  1.
</event>
<event>
 7    1  0.5957303E-006  0.7770981E+02  0.7818608E-02  0.1430384E+00
          2   -1    0    0  502    0  0.00000000000E+00  0.00000000000E+00  0.23460239495E+03  0.23460239495E+03  0.00000000000E+00 0. -1.
          1   -1    0    0  501    0 -0.00000000000E+00 -0.00000000000E+00 -0.62168216376E+03  0.62168216376E+03  0.00000000000E+00 0. -1.
         25    2    1    2    0    0 -0.89112832854E+02  0.21169598662E+02 -0.57761406143E+02  0.16537952184E+03  0.12499902926E+03 0.  0.
          2    1    1    2  501    0  0.26670339929E+02  0.24162304546E+02 -0.50120381595E+03  0.50249416824E+03  0.00000000000E+00 0. -1.
          1    1    1    2  502    0  0.62442492925E+02 -0.45331903207E+02  0.17188545328E+03  0.18841086864E+03  0.00000000000E+00 0. -1.
         22    1    3    3    0    0 -0.84050148271E+02  0.42218219348E+02  0.96746403648E+01  0.94553710321E+02  0.00000000000E+00 0. -1.
         22    1    3    3    0    0 -0.50626845828E+01 -0.21048620687E+02 -0.67436046508E+02  0.70825811514E+02  0.00000000000E+00 0. -1.
</event>
<event>
 7    1  0.5957303E-006  0.3811400E+02  0.7818608E-02  0.1598357E+00
          2   -1    0    0  502    0  0.00000000000E+00  0.00000000000E+00  0.10992755021E+04  0.10992755021E+04  0.00000000000E+00 0. -1.
          1   -1    0    0  501    0 -0.00000000000E+00 -0.00000000000E+00 -0.13484310883E+04  0.13484310883E+04  0.00000000000E+00 0. -1.
         25    2    1    2    0    0  0.41294209710E+02 -0.42554660762E+02  0.32849611781E+03  0.35644229914E+03  0.12500120916E+03 0.  0.
          2    1    1    2  501    0 -0.20007753100E+02  0.32421739899E+02 -0.13340023742E+04  0.13345462951E+04  0.00000000000E+00 0. -1.
          1    1    1    2  502    0 -0.21286456610E+02  0.10132920864E+02  0.75635067020E+03  0.75671799611E+03  0.00000000000E+00 0. -1.
         22    1    3    3    0    0  0.48801006346E+02 -0.58258323585E+01  0.34456898572E+02  0.60022965623E+02  0.00000000000E+00 0. -1.
         22    1    3    3    0    0 -0.75067966354E+01 -0.36728828404E+02  0.29403921924E+03  0.29641933351E+03  0.00000000000E+00 0. -1.
</event>
<event>
 7    1  0.5957303E-006  0.3800445E+03  0.7818608E-02  0.1181408E+00
          2   -1    0    0  502    0  0.00000000000E+00  0.00000000000E+00  0.23737977858E+04  0.23737977858E+04  0.00000000000E+00 0. -1.
          1   -1    0    0  501    0 -0.00000000000E+00 -0.00000000000E+00 -0.78435711628E+03  0.78435711628E+03  0.00000000000E+00 0. -1.
         25    2    1    2    0    0 -0.35957068000E+03  0.24134961458E+03  0.80736748513E+03  0.92466623699E+03  0.12499873368E+03 0.  0.
          2    1    1    2  501    0  0.64877454308E+02 -0.33594436999E+02 -0.70222956671E+03  0.70601985428E+03  0.00000000000E+00 0. -1.
          1    1    1    2  502    0  0.29469322569E+03 -0.20775517758E+03  0.14843027511E+04  0.15274688108E+04  0.00000000000E+00 0. -1.
         22    1    3    3    0    0 -0.72799989894E+02  0.75390329570E+02  0.30830501586E+03  0.32563096155E+03  0.00000000000E+00 0. -1.
         22    1    3    3    0    0 -0.28677069011E+03  0.16595928501E+03  0.49906246927E+03  0.59903527544E+03  0.00000000000E+00 0. -1.
</event>
<event>
 7    1  0.5957303E-006  0.1386356E+03  0.7818608E-02  0.1316758E+00
          2   -1    0    0  502    0  0.00000000000E+00  0.00000000000E+00  0.11704897775E+04  0.11704897775E+04  0.00000000000E+00 0. -1.
          1   -1    0    0  501    0 -0.00000000000E+00 -0.00000000000E+00 -0.29338799651E+03  0.29338799651E+03  0.00000000000E+00 0. -1.
         25    2    1    2    0    0  0.17941180762E+03 -0.49673715036E+02 -0.12254117919E+03  0.25551424547E+03  0.12496045118E+03 0.  0.
          2    1    1    2  501    0 -0.43669196978E+02  0.27294779562E+02 -0.93421638655E+02  0.10667523764E+03  0.00000000000E+00 0. -1.
          1    1    1    2  502    0 -0.13574261064E+03  0.22378935475E+02  0.10930645988E+04  0.11016882909E+04  0.00000000000E+00 0. -1.
         22    1    3    3    0    0  0.13002041192E+03  0.25968607459E+02 -0.59339955808E+02  0.14526151054E+03  0.00000000000E+00 0. -1.
         22    1    3    3    0    0  0.49391395704E+02 -0.75642322495E+02 -0.63201223386E+02  0.11025273493E+03  0.00000000000E+00 0. -1.
</event>
<event>
 7    1  0.5957303E-006  0.4535053E+02  0.7818608E-02  0.1524407E+00
          2   -1    0    0  502    0  0.00000000000E+00  0.00000000000E+00  0.12744730888E+04  0.12744730888E+04  0.00000000000E+00 0. -1.
          1   -1    0    0  501    0 -0.00000000000E+00 -0.00000000000E+00 -0.54514480942E+03  0.54514480942E+03  0.00000000000E+00 0. -1.
         25    2    1    2    0    0  0.49955845972E+02  0.24115516305E+02 -0.43529249026E+03  0.45626909099E+03  0.12499914655E+03 0.  0.
          2    1    1    2  501    0 -0.43105444575E+02  0.67764653138E+01 -0.94365161865E+02  0.10396530002E+03  0.00000000000E+00 0. -1.
          1    1    1    2  502    0 -0.68504013970E+01 -0.30891981619E+02  0.12589859315E+04  0.12593835072E+04  0.00000000000E+00 0. -1.
         22    1    3    3    0    0  0.86407757273E+02  0.42062741994E+02 -0.30213060554E+03  0.31704649120E+03  0.00000000000E+00 0. -1.
         22    1    3    3    0    0 -0.36451911301E+02 -0.17947225689E+02 -0.13316188473E+03  0.13922259979E+03  0.00000000000E+00 0. -1.
</event>
<event>
 7    1  0.5957303E-006  0.7185141E+02  0.7818608E-02  0.1367567E+00
          2   -1    0    0  502    0  0.00000000000E+00  0.00000000000E+00  0.12639822617E+04  0.12639822617E+04  0.00000000000E+00 0. -1.
          1   -1    0    0  501    0 -0.00000000000E+00 -0.00000000000E+00 -0.22476447982E+02  0.22476447982E+02  0.00000000000E+00 0. -1.
         25    2    1    2    0    0 -0.25079135977E+02 -0.26276266134E+02  0.46991998646E+03  0.48761556974E+03  0.12499897983E+03 0.  0.
          2    1    1    2  501    0  0.18861214477E+01  0.85998855553E+02  0.14211691429E+03  0.16612217774E+03  0.00000000000E+00 0. -1.
          1    1    1    2  502    0  0.23193014529E+02 -0.59722589419E+02  0.62946891293E+03  0.63272096216E+03  0.00000000000E+00 0. -1.
         22    1    3    3    0    0 -0.68669791827E+02 -0.70130456531E+01  0.37613686577E+03  0.38241818067E+03  0.00000000000E+00 0. -1.
         22    1    3    3    0    0  0.43590655850E+02 -0.19263220481E+02  0.93783120691E+02  0.10519738907E+03  0.00000000000E+00 0. -1.
</event>
<event>
 7    1  0.5957303E-006  0.2017015E+03  0.7818608E-02  0.1312129E+00
          2   -1    0    0  502    0  0.00000000000E+00  0.00000000000E+00  0.14130836168E+04  0.14130836168E+04  0.00000000000E+00 0. -1.
          1   -1    0    0  501    0 -0.00000000000E+00 -0.00000000000E+00 -0.43311237587E+03  0.43311237587E+03  0.00000000000E+00 0. -1.
         25    2    1    2    0    0 -0.14189026338E+03 -0.12560259625E+03  0.21900091085E+02  0.22806462768E+03  0.12500000552E+03 0.  0.
          2    1    1    2  501    0  0.17449732347E+03  0.10832066619E+03 -0.29777913065E+03  0.36173898500E+03  0.00000000000E+00 0. -1.
          1    1    1    2  502    0 -0.32607060088E+02  0.17281930065E+02  0.12558502805E+04  0.12563923800E+04  0.00000000000E+00 0. -1.
         22    1    3    3    0    0 -0.13945353271E+03 -0.14235385208E+03 -0.13770859607E+01  0.19928322397E+03  0.00000000000E+00 0.  1.
         22    1    3    3    0    0 -0.24367306665E+01  0.16751255831E+02  0.23277177046E+02  0.28781403710E+02  0.00000000000E+00 0.  1.
</event>
<event>
 7    1  0.5957303E-006  0.5360542E+02  0.7818608E-02  0.1427728E+00
          2   -1    0    0  502    0  0.00000000000E+00  0.00000000000E+00  0.38652213443E+02  0.38652213443E+02  0.00000000000E+00 0. -1.
          1   -1    0    0  501    0 -0.00000000000E+00 -0.00000000000E+00 -0.57747263755E+03  0.57747263755E+03  0.00000000000E+00 0. -1.
         25    2    1    2    0    0  0.40158337153E+02 -0.16450853967E+02 -0.33586329795E+03  0.36098846148E+03  0.12500076707E+03 0.  0.
          2    1    1    2  501    0  0.25330945372E+01  0.53545533380E+02 -0.18958950345E+03  0.19702213208E+03  0.00000000000E+00 0. -1.
          1    1    1    2  502    0 -0.42691431690E+02 -0.37094679413E+02 -0.13367622707E+02  0.58114257436E+02  0.00000000000E+00 0. -1.
         22    1    3    3    0    0 -0.26158333840E+02 -0.43389874027E+02 -0.21162354248E+03  0.21760391387E+03  0.00000000000E+00 0.  1.
         22    1    3    3    0    0  0.66316670992E+02  0.26939020060E+02 -0.12423975547E+03  0.14338454761E+03  0.00000000000E+00 0.  1.
</event>
<event>
 7    1  0.5957303E-006  0.1868877E+03  0.7818608E-02  0.1261568E+00
          2   -1    0    0  502    0  0.00000000000E+00  0.00000000000E+00  0.14596353935E+04  0.14596353935E+04  0.00000000000E+00 0. -1.
          1   -1    0    0  501    0 -0.00000000000E+00 -0.00000000000E+00 -0.69039785352E+03  0.69039785352E+03  0.00000000000E+00 0. -1.
         25    2    1    2    0    0 -0.18054585457E+03 -0.11586577232E+03  0.11977249274E+03  0.27567022317E+03  0.12500775626E+03 0.  0.
          2    1    1    2  501    0  0.59384978162E+02 -0.24165678056E+02 -0.60395007225E+03  0.60734359748E+03  0.00000000000E+00 0. -1.
          1    1    1    2  502    0  0.12116087641E+03  0.14003145037E+03  0.12534151195E+04  0.12670194264E+04  0.00000000000E+00 0. -1.
         22    1    3    3    0    0 -0.95129329036E+02  0.55932044550E+01  0.21741598992E+02  0.97742366994E+02  0.00000000000E+00 0.  1.
         22    1    3    3    0    0 -0.85416525533E+02 -0.12145897677E+03  0.98030893747E+02  0.17792785617E+03  0.00000000000E+00 0.  1.
</event>
<event>
 7    1  0.5957303E-006  0.1148960E+03  0.7818608E-02  0.1255793E+00
          2   -1    0    0  502    0  0.00000000000E+00  0.00000000000E+00  0.23958216500E+04  0.23958216500E+04  0.00000000000E+00 0. -1.
          1   -1    0    0  501    0 -0.00000000000E+00 -0.00000000000E+00 -0.11883111858E+04  0.11883111858E+04  0.00000000000E+00 0. -1.
         25    2    1    2    0    0 -0.69152811019E+02  0.13962226993E+03  0.13905210631E+04  0.14047953000E+04  0.12499807435E+03 0.  0.
          2    1    1    2  501    0 -0.36856291467E+02 -0.10883421639E+03 -0.11753116294E+04  0.11809151956E+04  0.00000000000E+00 0. -1.
          1    1    1    2  502    0  0.10600910249E+03 -0.30788053544E+02  0.99230103057E+03  0.99842234016E+03  0.00000000000E+00 0. -1.
         22    1    3    3    0    0 -0.68074725888E+02  0.11264179066E+02  0.38769256563E+03  0.39378493557E+03  0.00000000000E+00 0.  1.
         22    1    3    3    0    0 -0.10780851310E+01  0.12835809087E+03  0.10028284974E+04  0.10110103645E+04  0.00000000000E+00 0.  1.
</event>
<event>
 7    1  0.5957303E-006  0.7498134E+02  0.7818608E-02  0.1428365E+00
          2   -1    0    0  502    0  0.00000000000E+00  0.00000000000E+00  0.49807238800E+03  0.49807238800E+03  0.00000000000E+00 0. -1.
          1   -1    0    0  501    0 -0.00000000000E+00 -0.00000000000E+00 -0.48657836996E+03  0.48657836996E+03  0.00000000000E+00 0. -1.
         25    2    1    2    0    0  0.96613207778E+02  0.24341441447E+02 -0.63804698295E+02  0.17211261403E+03  0.12500037877E+03 0.  0.
          2    1    1    2  501    0 -0.73412696098E+02  0.55938140506E+01 -0.36412065480E+03  0.37148965794E+03  0.00000000000E+00 0. -1.
          1    1    1    2  502    0 -0.23200511680E+02 -0.29935255497E+02  0.43941937114E+03  0.44104848599E+03  0.00000000000E+00 0. -1.
         22    1    3    3    0    0  0.53693437507E+02 -0.50412168535E+02 -0.29454527269E+02  0.79321757068E+02  0.00000000000E+00 0. -1.
         22    1    3    3    0    0  0.42919770271E+02  0.74753609981E+02 -0.34350171026E+02  0.92790856957E+02  0.00000000000E+00 0. -1.
</event>
<event>
 7    1  0.5957303E-006  0.1481088E+03  0.7818608E-02  0.1238122E+00
          2   -1    0    0  502    0  0.00000000000E+00  0.00000000000E+00  0.63735647650E+03  0.63735647650E+03  0.00000000000E+00 0. -1.
          1   -1    0    0  501    0 -0.00000000000E+00 -0.00000000000E+00 -0.10583074912E+04  0.10583074912E+04  0.00000000000E+00 0. -1.
         25    2    1    2    0    0  0.15327703045E+03  0.37451025863E+02 -0.22760721249E+03  0.30385294896E+03  0.12500057603E+03 0.  0.
          2    1    1    2  501    0 -0.13784631341E+03  0.63636899535E+02 -0.78084919314E+03  0.79547264160E+03  0.00000000000E+00 0. -1.
          1    1    1    2  502    0 -0.15430717044E+02 -0.10108792540E+03  0.58750539093E+03  0.59633837715E+03  0.00000000000E+00 0. -1.
         22    1    3    3    0    0  0.15189060869E+03  0.22614632486E+02 -0.23969335049E+03  0.28466661357E+03  0.00000000000E+00 0. -1.
         22    1    3    3    0    0  0.13864217613E+01  0.14836393377E+02  0.12086138001E+02  0.19186335385E+02  0.00000000000E+00 0. -1.
</event>
<event>
 7    1  0.5957303E-006  0.2968103E+03  0.7818608E-02  0.1166195E+00
          2   -1    0    0  502    0  0.00000000000E+00  0.00000000000E+00  0.10948184832E+04  0.10948184832E+04  0.00000000000E+00 0. -1.
          1   -1    0    0  501    0 -0.00000000000E+00 -0.00000000000E+00 -0.11685600767E+04  0.11685600767E+04  0.00000000000E+00 0. -1.
         25    2    1    2    0    0 -0.12040812255E+03 -0.16220839606E+03  0.61051075562E+02  0.24527876965E+03  0.12499904513E+03 0.  0.
          2    1    1    2  501    0  0.20717497427E+03  0.23175360175E+03 -0.10505705117E+04  0.10955955467E+04  0.00000000000E+00 0. -1.
          1    1    1    2  502    0 -0.86766851716E+02 -0.69545205688E+02  0.91577784264E+03  0.92250424350E+03  0.00000000000E+00 0. -1.
         22    1    3    3    0    0 -0.74143814296E+02 -0.72689508671E+02 -0.31452212405E+02  0.10849106661E+03  0.00000000000E+00 0.  1.
         22    1    3    3    0    0 -0.46264308259E+02 -0.89518887394E+02  0.92503287967E+02  0.13678770304E+03  0.00000000000E+00 0.  1.
</event>
<event>
 7    1  0.5957303E-006  0.8719712E+02  0.7818608E-02  0.1372794E+00
          2   -1    0    0  502    0  0.00000000000E+00  0.00000000000E+00  0.58905376578E+02  0.58905376578E+02  0.00000000000E+00 0. -1.
          1   -1    0    0  501    0 -0.00000000000E+00 -0.00000000000E+00 -0.94473296672E+03  0.94473296672E+03  0.00000000000E+00 0. -1.
         25    2    1    2    0    0 -0.29748246964E+02  0.79686152738E+02 -0.17768600366E+03  0.23329356589E+03  0.12497492089E+03 0.  0.
          2    1    1    2  501    0 -0.20370104330E+02 -0.86339201705E+02 -0.71396278554E+03  0.71945274900E+03  0.00000000000E+00 0. -1.
          1    1    1    2  502    0  0.50118351295E+02  0.66530489667E+01  0.58211990670E+01  0.50892028409E+02  0.00000000000E+00 0. -1.
         22    1    3    3    0    0  0.33469504477E+02  0.19263149671E+02 -0.12583606745E+03  0.13162823609E+03  0.00000000000E+00 0.  1.
         22    1    3    3    0    0 -0.63217751441E+02  0.60423003067E+02 -0.51849936211E+02  0.10166532979E+03  0.00000000000E+00 0.  1.
</event>
<event>
 7    1  0.6074174E-006  0.4328054E+02  0.7818608E-02  0.1550182E+00
          2   -1    0    0  502    0  0.00000000000E+00  0.00000000000E+00  0.17205921157E+04  0.17205921157E+04  0.00000000000E+00 0. -1.
          1   -1    0    0  501    0 -0.00000000000E+00 -0.00000000000E+00 -0.82083304412E+03  0.82083304412E+03  0.00000000000E+00 0. -1.
         25    2    1    2    0    0 -0.13125160466E+01 -0.16026900221E+02 -0.17359278601E+02  0.12721813969E+03  0.12499810512E+03 0.  0.
          2    1    1    2  501    0  0.80545463649E+01 -0.26834730387E+02 -0.74799946677E+03  0.74852400146E+03  0.00000000000E+00 0. -1.
          1    1    1    2  502    0 -0.67420303183E+01  0.42861630608E+02  0.16651178169E+04  0.16656830186E+04  0.00000000000E+00 0. -1.
         22    1    3    3    0    0 -0.14036250970E+02 -0.69540126346E+02 -0.75205007767E+01  0.71340054986E+02  0.00000000000E+00 0. -1.
         22    1    3    3    0    0  0.12723734923E+02  0.53513226125E+02 -0.98387778244E+01  0.55878084700E+02  0.00000000000E+00 0. -1.
</event>
<event>
 7    1  0.5957303E-006  0.5375050E+02  0.7818608E-02  0.1448728E+00
          2   -1    0    0  502    0  0.00000000000E+00  0.00000000000E+00  0.30245291629E+03  0.30245291629E+03  0.00000000000E+00 0. -1.
          1   -1    0    0  501    0 -0.00000000000E+00 -0.00000000000E+00 -0.92466476050E+03  0.92466476050E+03  0.00000000000E+00 0. -1.
         25    2    1    2    0    0  0.72593747051E+02 -0.25018126508E+02 -0.67183238046E+02  0.16134960601E+03  0.12499739645E+03 0.  0.
          2    1    1    2  501    0 -0.21236010993E+02  0.40082426232E+02 -0.80695006027E+03  0.80822395958E+03  0.00000000000E+00 0. -1.
          1    1    1    2  502    0 -0.51357736058E+02 -0.15064299723E+02  0.25192145410E+03  0.25754411121E+03  0.00000000000E+00 0. -1.
         22    1    3    3    0    0  0.12564568227E+02 -0.70353798104E+02 -0.32050918316E+02  0.78324878853E+02  0.00000000000E+00 0. -1.
         22    1    3    3    0    0  0.60029178824E+02  0.45335671596E+02 -0.35132319729E+02  0.83024727153E+02  0.00000000000E+00 0. -1.
</event>
<event>
 7    1  0.5957303E-006  0.8394269E+02  0.7818608E-02  0.1343842E+00
          2   -1    0    0  502    0  0.00000000000E+00  0.00000000000E+00  0.44442321775E+04  0.44442321775E+04  0.00000000000E+00 0. -1.
          1   -1    0    0  501    0 -0.00000000000E+00 -0.00000000000E+00 -0.28467482468E+02  0.28467482468E+02  0.00000000000E+00 0. -1.
         25    2    1    2    0    0 -0.81074760417E+02 -0.11987412601E+03  0.13911330119E+04  0.14042145829E+04  0.12499846030E+03 0.  0.
          2    1    1    2  501    0  0.32084897963E+02  0.74129155063E+02  0.54147226480E+02  0.97244508550E+02  0.00000000000E+00 0. -1.
          1    1    1    2  502    0  0.48989862454E+02  0.45744970946E+02  0.29704844566E+04  0.29712405685E+04  0.00000000000E+00 0. -1.
         22    1    3    3    0    0 -0.67551820422E+02 -0.16202484243E+02  0.86558841847E+03  0.86837150986E+03  0.00000000000E+00 0.  1.
         22    1    3    3    0    0 -0.13522939995E+02 -0.10367164177E+03  0.52554459345E+03  0.53584307304E+03  0.00000000000E+00 0.  1.
</event>
<event>
 7    1  0.5957303E-006  0.1039267E+03  0.7818608E-02  0.1272918E+00
          2   -1    0    0  502    0  0.00000000000E+00  0.00000000000E+00  0.18055937749E+04  0.18055937749E+04  0.00000000000E+00 0. -1.
          1   -1    0    0  501    0 -0.00000000000E+00 -0.00000000000E+00 -0.69162636131E+03  0.69162636131E+03  0.00000000000E+00 0. -1.
         25    2    1    2    0    0  0.10843794873E+03 -0.17307452612E+03 -0.27485468868E+03  0.36453640407E+03  0.12501243813E+03 0.  0.
          2    1    1    2  501    0 -0.67690150685E+02  0.77977356294E+02 -0.36320832636E+03  0.37760126183E+03  0.00000000000E+00 0. -1.
          1    1    1    2  502    0 -0.40747798047E+02  0.95097169830E+02  0.17520304286E+04  0.17550824703E+04  0.00000000000E+00 0. -1.
         22    1    3    3    0    0  0.11748066176E+03 -0.17719924549E+03 -0.28136288932E+03  0.35265614127E+03  0.00000000000E+00 0. -1.
         22    1    3    3    0    0 -0.90427130232E+01  0.41247193640E+01  0.65082006419E+01  0.11880262802E+02  0.00000000000E+00 0. -1.
</event>
<event>
 7    1  0.5957303E-006  0.5091224E+02  0.7818608E-02  0.1515497E+00
          2   -1    0    0  502    0  0.00000000000E+00  0.00000000000E+00  0.52801559788E+02  0.52801559788E+02  0.00000000000E+00 0. -1.
          1   -1    0    0  501    0 -0.00000000000E+00 -0.00000000000E+00 -0.10785584173E+04  0.10785584173E+04  0.00000000000E+00 0. -1.
         25    2    1    2    0    0  0.35141499263E+02  0.13234166026E+02 -0.51323937532E+03  0.52957364312E+03  0.12499407578E+03 0.  0.
          2    1    1    2  501    0  0.14729057213E+02 -0.26039042732E+02 -0.54175203779E+03  0.54257741136E+03  0.00000000000E+00 0. -1.
          1    1    1    2  502    0 -0.49870556476E+02  0.12804876706E+02  0.29234555628E+02  0.59208922583E+02  0.00000000000E+00 0. -1.
         22    1    3    3    0    0  0.41459714773E+02 -0.41576414566E+02 -0.39196768996E+03  0.39634098472E+03  0.00000000000E+00 0.  1.
         22    1    3    3    0    0 -0.63182155101E+01  0.54810580592E+02 -0.12127168536E+03  0.13323265839E+03  0.00000000000E+00 0.  1.
</event>
<event>
 7    1  0.5957303E-006  0.4163566E+02  0.7818608E-02  0.1520212E+00
          2   -1    0    0  502    0  0.00000000000E+00  0.00000000000E+00  0.95840060492E+03  0.95840060492E+03  0.00000000000E+00 0. -1.
          1   -1    0    0  501    0 -0.00000000000E+00 -0.00000000000E+00 -0.11231384049E+04  0.11231384049E+04  0.00000000000E+00 0. -1.
         25    2    1    2    0    0  0.11502528388E+02 -0.36257949629E+01  0.38112829328E+03  0.40128392591E+03  0.12499823484E+03 0.  0.
          2    1    1    2  501    0  0.30435679951E+02  0.18162772458E+02 -0.11119094126E+04  0.11124741609E+04  0.00000000000E+00 0. -1.
          1    1    1    2  502    0 -0.41938208339E+02 -0.14536977495E+02  0.56604331938E+03  0.56778092293E+03  0.00000000000E+00 0. -1.
         22    1    3    3    0    0  0.41596003907E+02  0.48868429099E+02  0.17217278876E+03  0.18374389811E+03  0.00000000000E+00 0.  1.
         22    1    3    3    0    0 -0.30093475519E+02 -0.52494224062E+02  0.20895550451E+03  0.21754002780E+03  0.00000000000E+00 0.  1.
</event>
<event>
 7    1  0.6927754E-006  0.1197506E+03  0.7818608E-02  0.1316397E+00
          2   -1    0    0  502    0  0.00000000000E+00  0.00000000000E+00  0.11586781475E+04  0.11586781475E+04  0.00000000000E+00 0. -1.
          1   -1    0    0  501    0 -0.00000000000E+00 -0.00000000000E+00 -0.92112829612E+03  0.92112829612E+03  0.00000000000E+00 0. -1.
         25    2    1    2    0    0 -0.65806338216E+02 -0.22308270504E+02 -0.23814071466E+03  0.27778042806E+03  0.12499133230E+03 0.  0.
          2    1    1    2  501    0 -0.28486406780E+02 -0.52593439640E+02 -0.65862544469E+03  0.66133578586E+03  0.00000000000E+00 0. -1.
          1    1    1    2  502    0  0.94292744995E+02  0.74901710144E+02  0.11343160108E+04  0.11406902297E+04  0.00000000000E+00 0. -1.
         22    1    3    3    0    0  0.15077552451E+02  0.21959048903E+02 -0.50451262212E+01  0.27110619971E+02  0.00000000000E+00 0. -1.
         22    1    3    3    0    0 -0.80883890667E+02 -0.44267319407E+02 -0.23309558844E+03  0.25066980809E+03  0.00000000000E+00 0. -1.
</event>
<event>
 7    1  0.5957303E-006  0.1364483E+03  0.7818608E-02  0.1256441E+00
          2   -1    0    0  502    0  0.00000000000E+00  0.00000000000E+00  0.66541127349E+03  0.66541127349E+03  0.00000000000E+00 0. -1.
          1   -1    0    0  501    0 -0.00000000000E+00 -0.00000000000E+00 -0.11240705545E+04  0.11240705545E+04  0.00000000000E+00 0. -1.
         25    2    1    2    0    0  0.20019742467E+02  0.46665164317E+02  0.13108333267E+03  0.18810179444E+03  0.12498406826E+03 0.  0.
          2    1    1    2  501    0 -0.10311167505E+02 -0.13851303464E+03 -0.10868885736E+04  0.10957275904E+04  0.00000000000E+00 0. -1.
          1    1    1    2  502    0 -0.97085749616E+01  0.91847870325E+02  0.49714595996E+03  0.50565244311E+03  0.00000000000E+00 0. -1.
         22    1    3    3    0    0 -0.25790402183E+02 -0.20923506983E+02 -0.53422364676E+00  0.33214806700E+02  0.00000000000E+00 0.  1.
         22    1    3    3    0    0  0.45810144650E+02  0.67588671300E+02  0.13161755632E+03  0.15488698774E+03  0.00000000000E+00 0.  1.
</event>
<event>
 7    1  0.5957303E-006  0.6588721E+02  0.7818608E-02  0.1441268E+00
          2   -1    0    0  502    0  0.00000000000E+00  0.00000000000E+00  0.40727842236E+03  0.40727842236E+03  0.00000000000E+00 0. -1.
          1   -1    0    0  501    0 -0.00000000000E+00 -0.00000000000E+00 -0.14624077786E+04  0.14624077786E+04  0.00000000000E+00 0. -1.
         25    2    1    2    0    0 -0.10516358993E+02  0.55403563192E+02 -0.81932504756E+02  0.15973902746E+03  0.12499389160E+03 0.  0.
          2    1    1    2  501    0  0.48327633861E+02 -0.45405014687E+02 -0.13397115378E+04  0.13413516244E+04  0.00000000000E+00 0. -1.
          1    1    1    2  502    0 -0.37811274869E+02 -0.99985485051E+01  0.36651468640E+03  0.36859554911E+03  0.00000000000E+00 0. -1.
         22    1    3    3    0    0  0.44862875587E+02  0.35596221392E+02 -0.83088046683E+02  0.10091279446E+03  0.00000000000E+00 0. -1.
         22    1    3    3    0    0 -0.55379234580E+02  0.19807341800E+02  0.11555419274E+01  0.58826233000E+02  0.00000000000E+00 0. -1.
</event>
<event>
 7    1  0.5957303E-006  0.1749773E+03  0.7818608E-02  0.1356746E+00
          2   -1    0    0  502    0  0.00000000000E+00  0.00000000000E+00  0.73959498251E+03  0.73959498251E+03  0.00000000000E+00 0. -1.
          1   -1    0    0  501    0 -0.00000000000E+00 -0.00000000000E+00 -0.19275669882E+03  0.19275669882E+03  0.00000000000E+00 0. -1.
         25    2    1    2    0    0  0.24231439864E+01  0.17006579321E+03  0.10742253870E+01  0.21107944399E+03  0.12500052827E+03 0.  0.
          2    1    1    2  501    0 -0.30201302852E+02 -0.17768587825E+03  0.55798640104E+01  0.18032061697E+03  0.00000000000E+00 0. -1.
          1    1    1    2  502    0  0.27778158865E+02  0.76200850374E+01  0.54018419430E+03  0.54095162037E+03  0.00000000000E+00 0. -1.
         22    1    3    3    0    0  0.57813474753E+02  0.71292228727E+02 -0.24462230613E+02  0.94991475757E+02  0.00000000000E+00 0.  1.
         22    1    3    3    0    0 -0.55390330767E+02  0.98773564485E+02  0.25536456000E+02  0.11608796823E+03  0.00000000000E+00 0.  1.
</event>
<event>
 7    1  0.5957303E-006  0.2915344E+03  0.7818608E-02  0.1234780E+00
          2   -1    0    0  502    0  0.00000000000E+00  0.00000000000E+00  0.28938715786E+04  0.28938715786E+04  0.00000000000E+00 0. -1.
          1   -1    0    0  501    0 -0.00000000000E+00 -0.00000000000E+00 -0.32640949539E+04  0.32640949539E+04  0.00000000000E+00 0. -1.
         25    2    1    2    0    0 -0.22204400354E+03 -0.16113630980E+03 -0.61326090679E+02  0.30765307780E+03  0.12498430718E+03 0.  0.
          2    1    1    2  501    0 -0.41425879781E+02  0.34255727015E+02 -0.30716535599E+04  0.30721238827E+04  0.00000000000E+00 0. -1.
          1    1    1    2  502    0  0.26346988332E+03  0.12688058279E+03  0.27627562753E+04  0.27781895721E+04  0.00000000000E+00 0. -1.
         22    1    3    3    0    0 -0.30430313817E+02 -0.46106092466E+02  0.33797687616E+02  0.64761558426E+02  0.00000000000E+00 0.  1.
         22    1    3    3    0    0 -0.19161368972E+03 -0.11503021734E+03 -0.95123778295E+02  0.24289151938E+03  0.00000000000E+00 0.  1.
</event>
<event>
 7    1  0.5957303E-006  0.8456277E+02  0.7818608E-02  0.1389139E+00
          2   -1    0    0  502    0  0.00000000000E+00  0.00000000000E+00  0.70409045001E+03  0.70409045001E+03  0.00000000000E+00 0. -1.
          1   -1    0    0  501    0 -0.00000000000E+00 -0.00000000000E+00 -0.52835317427E+03  0.52835317427E+03  0.00000000000E+00 0. -1.
         25    2    1    2    0    0 -0.25623437520E+02  0.53518637503E+02 -0.20144133437E+03  0.24438507784E+03  0.12499859987E+03 0.  0.
          2    1    1    2  501    0  0.51260044779E+01 -0.94291851227E+02 -0.29735183363E+03  0.31198612484E+03  0.00000000000E+00 0. -1.
          1    1    1    2  502    0  0.20497433042E+02  0.40773213724E+02  0.67453044373E+03  0.67607242159E+03  0.00000000000E+00 0. -1.
         22    1    3    3    0    0 -0.34076504564E+01  0.55602076130E+02 -0.21235905850E+03  0.21954401080E+03  0.00000000000E+00 0. -1.
         22    1    3    3    0    0 -0.22215787064E+02 -0.20834386275E+01  0.10917724133E+02  0.24841067039E+02  0.00000000000E+00 0. -1.
</event>
<event>
 7    1  0.5957303E-006  0.5556906E+02  0.7818608E-02  0.1540043E+00
          2   -1    0    0  502    0  0.00000000000E+00  0.00000000000E+00  0.46344945771E+03  0.46344945771E+03  0.00000000000E+00 0. -1.
          1   -1    0    0  501    0 -0.00000000000E+00 -0.00000000000E+00 -0.93665262902E+03  0.93665262902E+03  0.00000000000E+00 0. -1.
         25    2    1    2    0    0 -0.35479787356E+02 -0.43689547125E+02  0.94435191230E+02  0.16646368032E+03  0.12499823872E+03 0.  0.
          2    1    1    2  501    0  0.14434975075E+02  0.53689628390E+02 -0.89937138269E+03  0.90108813592E+03  0.00000000000E+00 0. -1.
          1    1    1    2  502    0  0.21044812281E+02 -0.10000081265E+02  0.33173302015E+03  0.33255027049E+03  0.00000000000E+00 0. -1.
         22    1    3    3    0    0  0.10300216559E+02  0.95242833533E+01  0.95235102013E+02  0.96262822990E+02  0.00000000000E+00 0.  1.
         22    1    3    3    0    0 -0.45780003915E+02 -0.53213830478E+02 -0.79991078300E+00  0.70200857330E+02  0.00000000000E+00 0.  1.
</event>
<event>
 7    1  0.5957303E-006  0.1819827E+03  0.7818608E-02  0.1260685E+00
          2   -1    0    0  502    0  0.00000000000E+00  0.00000000000E+00  0.92265924086E+03  0.92265924086E+03  0.00000000000E+00 0. -1.
          1   -1    0    0  501    0 -0.00000000000E+00 -0.00000000000E+00 -0.26765233135E+03  0.26765233135E+03  0.00000000000E+00 0. -1.
         25    2    1    2    0    0  0.20116994828E+03  0.18568611304E+02  0.73988666398E+03  0.77709211780E+03  0.12500297039E+03 0.  0.
          2    1    1    2  501    0 -0.60709847124E+02  0.26929702828E+02 -0.20964777089E+03  0.21991608006E+03  0.00000000000E+00 0. -1.
          1    1    1    2  502    0 -0.14046010116E+03 -0.45498314131E+02  0.12476801643E+03  0.19330337434E+03  0.00000000000E+00 0. -1.
         22    1    3    3    0    0  0.17449673286E+03 -0.25099835438E+02  0.65181114987E+03  0.67523098760E+03  0.00000000000E+00 0. -1.
         22    1    3    3    0    0  0.26673215422E+02  0.43668446742E+02  0.88075514104E+02  0.10186113020E+03  0.00000000000E+00 0. -1.
</event>
<event>
 7    1  0.5957303E-006  0.3297092E+02  0.7818608E-02  0.1608259E+00
          2   -1    0    0  502    0  0.00000000000E+00  0.00000000000E+00  0.57142576149E+03  0.57142576149E+03  0.00000000000E+00 0. -1.
          1   -1    0    0  501    0 -0.00000000000E+00 -0.00000000000E+00 -0.43655280864E+03  0.43655280864E+03  0.00000000000E+00 0. -1.
         25    2    1    2    0    0  0.43739879083E+01  0.15272592050E+02  0.58532496121E+02  0.13893676369E+03  0.12499994946E+03 0.  0.
          2    1    1    2  501    0 -0.22256964046E+02  0.12815813205E+02 -0.39534707575E+03  0.39618042332E+03  0.00000000000E+00 0. -1.
          1    1    1    2  502    0  0.17882976138E+02 -0.28088405255E+02  0.47168753248E+03  0.47286138312E+03  0.00000000000E+00 0. -1.
         22    1    3    3    0    0  0.40585146830E+02  0.37636510613E+02 -0.11926916044E+02  0.56620777111E+02  0.00000000000E+00 0. -1.
         22    1    3    3    0    0 -0.36211158922E+02 -0.22363918563E+02  0.70459412165E+02  0.82315986580E+02  0.00000000000E+00 0. -1.
</event>
<event>
 7    1  0.5957303E-006  0.1071411E+03  0.7818608E-02  0.1370045E+00
          2   -1    0    0  502    0  0.00000000000E+00  0.00000000000E+00  0.12881094714E+04  0.12881094714E+04  0.00000000000E+00 0. -1.
          1   -1    0    0  501    0 -0.00000000000E+00 -0.00000000000E+00 -0.61852456001E+02  0.61852456001E+02  0.00000000000E+00 0. -1.
         25    2    1    2    0    0  0.10032221386E+03 -0.49971907385E+02  0.22457599926E+03  0.28039446475E+03  0.12499975318E+03 0.  0.
          2    1    1    2  501    0 -0.29105744144E+02 -0.30406452187E+02 -0.16887931894E+02  0.45353047532E+02  0.00000000000E+00 0. -1.
          1    1    1    2  502    0 -0.71216469720E+02  0.80378359572E+02  0.10185689481E+04  0.10242144151E+04  0.00000000000E+00 0. -1.
         22    1    3    3    0    0  0.12573846864E+03 -0.35620714306E+02  0.21102367778E+03  0.24821359827E+03  0.00000000000E+00 0. -1.
         22    1    3    3    0    0 -0.25416254776E+02 -0.14351193078E+02  0.13552321483E+02  0.32180866477E+02  0.00000000000E+00 0. -1.
</event>
<event>
 7    1  0.5957303E-006  0.1551970E+03  0.7818608E-02  0.1197323E+00
          2   -1    0    0  502    0  0.00000000000E+00  0.00000000000E+00  0.15423607933E+04  0.15423607933E+04  0.00000000000E+00 0. -1.
          1   -1    0    0  501    0 -0.00000000000E+00 -0.00000000000E+00 -0.38350346322E+04  0.38350346322E+04  0.00000000000E+00 0. -1.
         25    2    1    2    0    0  0.13400987181E+03 -0.20188218861E+03 -0.62772747328E+03  0.68438429760E+03  0.12500008907E+03 0.  0.
          2    1    1    2  501    0  0.75501770735E+01  0.15218102864E+03 -0.31734295601E+04  0.31770853378E+04  0.00000000000E+00 0. -1.
          1    1    1    2  502    0 -0.14156004889E+03  0.49701159968E+02  0.15084831946E+04  0.15159257901E+04  0.00000000000E+00 0. -1.
         22    1    3    3    0    0  0.18286748412E+02 -0.50044258921E+02 -0.40565369110E+02  0.66965529860E+02  0.00000000000E+00 0. -1.
         22    1    3    3    0    0  0.11572312340E+03 -0.15183792968E+03 -0.58716210417E+03  0.61741876774E+03  0.00000000000E+00 0. -1.
</event>
<event>
 7    1  0.5957303E-006  0.7182478E+02  0.7818608E-02  0.1486242E+00
          2   -1    0    0  502    0  0.00000000000E+00  0.00000000000E+00  0.35105828974E+03  0.35105828974E+03  0.00000000000E+00 0. -1.
          1   -1    0    0  501    0 -0.00000000000E+00 -0.00000000000E+00 -0.12064111095E+04  0.12064111095E+04  0.00000000000E+00 0. -1.
         25    2    1    2    0    0 -0.12096241221E+02  0.96582687221E+02 -0.76109622708E+03  0.77741040763E+03  0.12499976197E+03 0.  0.
          2    1    1    2  501    0  0.64593751065E+01 -0.25103782869E+02 -0.43301779702E+03  0.43379296442E+03  0.00000000000E+00 0. -1.
          1    1    1    2  502    0  0.56368661147E+01 -0.71478904352E+02  0.33876120434E+03  0.34626602720E+03  0.00000000000E+00 0. -1.
         22    1    3    3    0    0  0.40063044928E+02  0.64209076862E+02 -0.60436604590E+03  0.60908634081E+03  0.00000000000E+00 0.  1.
         22    1    3    3    0    0 -0.52159286149E+02  0.32373610359E+02 -0.15673018118E+03  0.16832406683E+03  0.00000000000E+00 0.  1.
</event>
<event>
 7    1  0.5957303E-006  0.3482066E+02  0.7818608E-02  0.1623688E+00
          2   -1    0    0  502    0  0.00000000000E+00  0.00000000000E+00  0.78359036914E+03  0.78359036914E+03  0.00000000000E+00 0. -1.
          1   -1    0    0  501    0 -0.00000000000E+00 -0.00000000000E+00 -0.11537252317E+04  0.11537252317E+04  0.00000000000E+00 0. -1.
         25    2    1    2    0    0  0.31902578702E+02 -0.36765139399E+02  0.11014657188E+03  0.17357081270E+03  0.12500043888E+03 0.  0.
          2    1    1    2  501    0 -0.43148977996E+00  0.22200361023E+02 -0.11214346453E+04  0.11216544503E+04  0.00000000000E+00 0. -1.
          1    1    1    2  502    0 -0.31471088922E+02  0.14564778377E+02  0.64115321084E+03  0.64209033786E+03  0.00000000000E+00 0. -1.
         22    1    3    3    0    0  0.25660911509E+01 -0.31751363098E+02  0.13254695559E+03  0.13632105236E+03  0.00000000000E+00 0. -1.
         22    1    3    3    0    0  0.29336487551E+02 -0.50137763008E+01 -0.22400383706E+02  0.37249760332E+02  0.00000000000E+00 0. -1.
</event>
<event>
 7    1  0.5957303E-006  0.4186283E+02  0.7818608E-02  0.1527680E+00
          2   -1    0    0  502    0  0.00000000000E+00  0.00000000000E+00  0.23178260932E+03  0.23178260932E+03  0.00000000000E+00 0. -1.
          1   -1    0    0  501    0 -0.00000000000E+00 -0.00000000000E+00 -0.74547205915E+03  0.74547205915E+03  0.00000000000E+00 0. -1.
         25    2    1    2    0    0  0.27068067735E+02  0.52185465926E+02 -0.87320156020E+02  0.16342035625E+03  0.12500160017E+03 0.  0.
          2    1    1    2  501    0  0.95454706101E+01 -0.32155628708E+02 -0.61739364335E+03  0.61830414143E+03  0.00000000000E+00 0. -1.
          1    1    1    2  502    0 -0.36613538345E+02 -0.20029837218E+02  0.19102434954E+03  0.19553017078E+03  0.00000000000E+00 0. -1.
         22    1    3    3    0    0  0.29427430550E+02  0.61003601515E+02 -0.11544745491E+03  0.13384889956E+03  0.00000000000E+00 0.  1.
         22    1    3    3    0    0 -0.23593628156E+01 -0.88181355894E+01  0.28127298892E+02  0.29571456696E+02  0.00000000000E+00 0.  1.
</event>
<event>
 7    1  0.5957303E-006  0.3316676E+03  0.7818608E-02  0.1251601E+00
          2   -1    0    0  502    0  0.00000000000E+00  0.00000000000E+00  0.11539887190E+04  0.11539887190E+04  0.00000000000E+00 0. -1.
          1   -1    0    0  501    0 -0.00000000000E+00 -0.00000000000E+00 -0.95039794548E+03  0.95039794548E+03  0.00000000000E+00 0. -1.
         25    2    1    2    0    0 -0.20721011497E+02 -0.30184398660E+03 -0.71767778293E+02  0.33513572388E+03  0.12500474733E+03 0.  0.
          2    1    1    2  501    0  0.97089001437E+01  0.34015915301E+03 -0.70776258265E+03  0.78532183563E+03  0.00000000000E+00 0. -1.
          1    1    1    2  502    0  0.11012111354E+02 -0.38315166409E+02  0.98312113444E+03  0.98392910494E+03  0.00000000000E+00 0. -1.
         22    1    3    3    0    0 -0.23353273971E+02 -0.31195737737E+02  0.26569146790E+02  0.47164276940E+02  0.00000000000E+00 0.  1.
         22    1    3    3    0    0  0.26322624742E+01 -0.27064824886E+03 -0.98336925083E+02  0.28797144694E+03  0.00000000000E+00 0.  1.
</event>
<event>
 7    1  0.5957303E-006  0.9464593E+02  0.7818608E-02  0.1339123E+00
          2   -1    0    0  502    0  0.00000000000E+00  0.00000000000E+00  0.44459356933E+03  0.44459356933E+03  0.00000000000E+00 0. -1.
          1   -1    0    0  501    0 -0.00000000000E+00 -0.00000000000E+00 -0.15080551725E+04  0.15080551725E+04  0.00000000000E+00 0. -1.
         25    2    1    2    0    0  0.54934120336E+02 -0.11957135122E+03 -0.38881678376E+03  0.42908730186E+03  0.12498942225E+03 0.  0.
          2    1    1    2  501    0  0.58147283720E+00  0.92143773522E+02 -0.10948991649E+04  0.10987697640E+04  0.00000000000E+00 0. -1.
          1    1    1    2  502    0 -0.55515593173E+02  0.27427577695E+02  0.42025434544E+03  0.42479167596E+03  0.00000000000E+00 0. -1.
         22    1    3    3    0    0 -0.41105467584E+01  0.19107788309E+02 -0.11388487296E+03  0.11554985269E+03  0.00000000000E+00 0.  1.
         22    1    3    3    0    0  0.59044667094E+02 -0.13867913953E+03 -0.27493191081E+03  0.31353744917E+03  0.00000000000E+00 0.  1.
</event>
<event>
 7    1  0.5957303E-006  0.2272407E+03  0.7818608E-02  0.1296720E+00
          2   -1    0    0  502    0  0.00000000000E+00  0.00000000000E+00  0.24164930884E+03  0.24164930884E+03  0.00000000000E+00 0. -1.
          1   -1    0    0  501    0 -0.00000000000E+00 -0.00000000000E+00 -0.25147536791E+04  0.25147536791E+04  0.00000000000E+00 0. -1.
         25    2    1    2    0    0  0.12974294948E+03  0.14787448708E+03 -0.97272021523E+02  0.25256162281E+03  0.12500172110E+03 0.  0.
          2    1    1    2  501    0 -0.16591082246E+03 -0.15857763833E+03 -0.23319577842E+04  0.23432243546E+04  0.00000000000E+00 0. -1.
          1    1    1    2  502    0  0.36167872977E+02  0.10703151248E+02  0.15612543548E+03  0.16061701058E+03  0.00000000000E+00 0. -1.
         22    1    3    3    0    0  0.11863723910E+03  0.52697758731E+02 -0.86818263984E+02  0.15617060939E+03  0.00000000000E+00 0.  1.
         22    1    3    3    0    0  0.11105710380E+02  0.95176728347E+02 -0.10453757540E+02  0.96391013422E+02  0.00000000000E+00 0.  1.
</event>
<event>
 7    1  0.5957303E-006  0.6557089E+02  0.7818608E-02  0.1391961E+00
          2   -1    0    0  502    0  0.00000000000E+00  0.00000000000E+00  0.15810985521E+04  0.15810985521E+04  0.00000000000E+00 0. -1.
          1   -1    0    0  501    0 -0.00000000000E+00 -0.00000000000E+00 -0.26132267354E+02  0.26132267354E+02  0.00000000000E+00 0. -1.
         25    2    1    2    0    0 -0.29631363039E+01 -0.12904940212E+02  0.26303626009E+03  0.29152528990E+03  0.12499441134E+03 0.  0.
          2    1    1    2  501    0 -0.39766166298E+02 -0.41580283397E+02  0.64930726193E+02  0.86754061307E+02  0.00000000000E+00 0. -1.
          1    1    1    2  502    0  0.42729302602E+02  0.54485223608E+02  0.12269992984E+04  0.12289514682E+04  0.00000000000E+00 0. -1.
         22    1    3    3    0    0 -0.14306235112E+02 -0.65368610112E+02  0.10393005074E+03  0.12360897621E+03  0.00000000000E+00 0.  1.
         22    1    3    3    0    0  0.11343098809E+02  0.52463669900E+02  0.15910620935E+03  0.16791631369E+03  0.00000000000E+00 0.  1.
</event>
<event>
 7    1  0.5957303E-006  0.1497363E+03  0.7818608E-02  0.1347187E+00
          2   -1    0    0  502    0  0.00000000000E+00  0.00000000000E+00  0.23229130389E+04  0.23229130389E+04  0.00000000000E+00 0. -1.
          1   -1    0    0  501    0 -0.00000000000E+00 -0.00000000000E+00 -0.13472654235E+03  0.13472654235E+03  0.00000000000E+00 0. -1.
         25    2    1    2    0    0  0.13824305742E+03  0.58157118293E+02  0.31367175165E+03  0.36947028323E+03  0.12499971630E+03 0.  0.
          2    1    1    2  501    0 -0.18021771167E+02  0.31753401936E+02 -0.10077388341E+03  0.10718413291E+03  0.00000000000E+00 0. -1.
          1    1    1    2  502    0 -0.12022128625E+03 -0.89910520229E+02  0.19752886283E+04  0.19809851651E+04  0.00000000000E+00 0. -1.
         22    1    3    3    0    0  0.13003514813E+03  0.88944281152E+02  0.22048494642E+03  0.27098678288E+03  0.00000000000E+00 0. -1.
         22    1    3    3    0    0  0.82079092840E+01 -0.30787162859E+02  0.93186805232E+02  0.98483500349E+02  0.00000000000E+00 0. -1.
</event>
<event>
 7    1  0.5957303E-006  0.1634100E+03  0.7818608E-02  0.1209052E+00
          2   -1    0    0  502    0  0.00000000000E+00  0.00000000000E+00  0.24718820832E+03  0.24718820832E+03  0.00000000000E+00 0. -1.
          1   -1    0    0  501    0 -0.00000000000E+00 -0.00000000000E+00 -0.37871220574E+03  0.37871220574E+03  0.00000000000E+00 0. -1.
         25    2    1    2    0    0 -0.15153548385E+03 -0.72648978160E+02 -0.49029852926E+02  0.21510508654E+03  0.12500157952E+03 0.  0.
          2    1    1    2  501    0  0.16758483090E+03 -0.51856508498E+02 -0.18037328484E+03  0.25161139661E+03  0.00000000000E+00 0. -1.
          1    1    1    2  502    0 -0.16049347046E+02  0.12450548666E+03  0.97879140348E+02  0.15918393092E+03  0.00000000000E+00 0. -1.
         22    1    3    3    0    0 -0.92779592541E+02 -0.10107370490E+03 -0.58499437553E+02  0.14915136878E+03  0.00000000000E+00 0. -1.
         22    1    3    3    0    0 -0.58755891308E+02  0.28424726737E+02  0.94695846266E+01  0.65953717761E+02  0.00000000000E+00 0. -1.
</event>
<event>
 7    1  0.5957303E-006  0.1027473E+03  0.7818608E-02  0.1284509E+00
          2   -1    0    0  502    0  0.00000000000E+00  0.00000000000E+00  0.14274680267E+04  0.14274680267E+04  0.00000000000E+00 0. -1.
          1   -1    0    0  501    0 -0.00000000000E+00 -0.00000000000E+00 -0.34767432306E+03  0.34767432306E+03  0.00000000000E+00 0. -1.
         25    2    1    2    0    0 -0.72518692429E+02 -0.15320981776E+03  0.95915311122E+03  0.98200298763E+03  0.12499187152E+03 0.  0.
          2    1    1    2  501    0 -0.58611423726E+01  0.10220211156E+03 -0.32347390511E+03  0.33928600308E+03  0.00000000000E+00 0. -1.
          1    1    1    2  502    0  0.78379834801E+02  0.51007706193E+02  0.44411449758E+03  0.45385335908E+03  0.00000000000E+00 0. -1.
         22    1    3    3    0    0 -0.77090226880E+02 -0.17287536689E+03  0.89286077781E+03  0.91270431362E+03  0.00000000000E+00 0.  1.
         22    1    3    3    0    0  0.45715344517E+01  0.19665549137E+02  0.66292333413E+02  0.69298674009E+02  0.00000000000E+00 0.  1.
</event>
<event>
 7    1  0.5957303E-006  0.1399980E+03  0.7818608E-02  0.1272377E+00
          2   -1    0    0  502    0  0.00000000000E+00  0.00000000000E+00  0.87975220283E+03  0.87975220283E+03  0.00000000000E+00 0. -1.
          1   -1    0    0  501    0 -0.00000000000E+00 -0.00000000000E+00 -0.15509658837E+04  0.15509658837E+04  0.00000000000E+00 0. -1.
         25    2    1    2    0    0  0.58141274360E+02 -0.10325031409E+03  0.62630354037E+02  0.18327260233E+03  0.12500100149E+03 0.  0.
          2    1    1    2  501    0  0.68857409565E+02  0.34583542585E+02 -0.14827497522E+04  0.14847505487E+04  0.00000000000E+00 0. -1.
          1    1    1    2  502    0 -0.12699868392E+03  0.68666771510E+02  0.74890571729E+03  0.76269493548E+03  0.00000000000E+00 0. -1.
         22    1    3    3    0    0 -0.38572603999E+02 -0.37636096509E+02  0.31106457211E+02  0.62224860144E+02  0.00000000000E+00 0.  1.
         22    1    3    3    0    0  0.96713878359E+02 -0.65614217586E+02  0.31523896826E+02  0.12104774218E+03  0.00000000000E+00 0.  1.
</event>
<event>
 7    1  0.5957303E-006  0.5677447E+02  0.7818608E-02  0.1457720E+00
          2   -1    0    0  502    0  0.00000000000E+00  0.00000000000E+00  0.56014432723E+03  0.56014432723E+03  0.00000000000E+00 0. -1.
          1   -1    0    0  501    0 -0.00000000000E+00 -0.00000000000E+00 -0.64223342357E+03  0.64223342357E+03  0.00000000000E+00 0. -1.
         25    2    1    2    0    0 -0.17984695895E+02 -0.35593300614E+02 -0.18556287822E+02  0.13251450465E+03  0.12500170315E+03 0.  0.
          2    1    1    2  501    0  0.54410025135E+02  0.18577754044E+02 -0.56443226632E+03  0.56735294750E+03  0.00000000000E+00 0. -1.
          1    1    1    2  502    0 -0.36425329240E+02  0.17015546570E+02  0.50089945779E+03  0.50251029866E+03  0.00000000000E+00 0. -1.
         22    1    3    3    0    0  0.29193645011E+02  0.34018827419E+02  0.52043281266E+01  0.45129087729E+02  0.00000000000E+00 0. -1.
         22    1    3    3    0    0 -0.47178340906E+02 -0.69612128034E+02 -0.23760615948E+02  0.87385416920E+02  0.00000000000E+00 0. -1.
</event>
<event>
 7    1  0.5957303E-006  0.6890810E+02  0.7818608E-02  0.1370898E+00
          2   -1    0    0  502    0  0.00000000000E+00  0.00000000000E+00  0.32962742163E+03  0.32962742163E+03  0.00000000000E+00 0. -1.
          1   -1    0    0  501    0 -0.00000000000E+00 -0.00000000000E+00 -0.42796820850E+03  0.42796820850E+03  0.00000000000E+00 0. -1.
         25    2    1    2    0    0  0.34830016597E+01  0.25621863374E+02  0.98554541166E+02  0.16126715373E+03  0.12500194440E+03 0.  0.
          2    1    1    2  501    0  0.60755097036E+02 -0.35451004148E+02 -0.38807873338E+03  0.39440215366E+03  0.00000000000E+00 0. -1.
          1    1    1    2  502    0 -0.64238098696E+02  0.98291407730E+01  0.19118340535E+03  0.20192632273E+03  0.00000000000E+00 0. -1.
         22    1    3    3    0    0 -0.22192111960E+02  0.50774448749E+02  0.11031450778E+03  0.12344968653E+03  0.00000000000E+00 0.  1.
         22    1    3    3    0    0  0.25675113620E+02 -0.25152585374E+02 -0.11759966613E+02  0.37817467196E+02  0.00000000000E+00 0.  1.
</event>
<event>
 7    1  0.5957303E-006  0.2020310E+03  0.7818608E-02  0.1261956E+00
          2   -1    0    0  502    0  0.00000000000E+00  0.00000000000E+00  0.23021629931E+04  0.23021629931E+04  0.00000000000E+00 0. -1.
          1   -1    0    0  501    0 -0.00000000000E+00 -0.00000000000E+00 -0.98187558218E+02  0.98187558218E+02  0.00000000000E+00 0. -1.
         25    2    1    2    0    0 -0.17555336913E+03 -0.29519735801E+02  0.27581783160E+03  0.35127797142E+03  0.12502134521E+03 0.  0.
          2    1    1    2  501    0  0.20329310150E+03  0.81686069207E+02  0.14013496880E+03  0.26007404427E+03  0.00000000000E+00 0. -1.
          1    1    1    2  502    0 -0.27739732374E+02 -0.52166333406E+02  0.17880226344E+04  0.17889985356E+04  0.00000000000E+00 0. -1.
         22    1    3    3    0    0 -0.57594937828E+02  0.47570147897E+02  0.11847029666E+03  0.14005465728E+03  0.00000000000E+00 0. -1.
         22    1    3    3    0    0 -0.11795843130E+03 -0.77089883698E+02  0.15734753494E+03  0.21122331414E+03  0.00000000000E+00 0. -1.
</event>
<event>
 7    1  0.5957303E-006  0.3337093E+03  0.7818608E-02  0.1179910E+00
          2   -1    0    0  502    0  0.00000000000E+00  0.00000000000E+00  0.18984991038E+03  0.18984991038E+03  0.00000000000E+00 0. -1.
          1   -1    0    0  501    0 -0.00000000000E+00 -0.00000000000E+00 -0.12177891361E+04  0.12177891361E+04  0.00000000000E+00 0. -1.
         25    2    1    2    0    0 -0.19955509199E+03 -0.32128987246E+03 -0.35419960258E+03  0.53304075395E+03  0.12500268003E+03 0.  0.
          2    1    1    2  501    0  0.76265495865E+02  0.36650300928E+02 -0.52284972784E+03  0.52965225226E+03  0.00000000000E+00 0. -1.
          1    1    1    2  502    0  0.12328959612E+03  0.28463957154E+03 -0.15088989528E+03  0.34494604026E+03  0.00000000000E+00 0. -1.
         22    1    3    3    0    0 -0.14179171538E+03 -0.11545869642E+03 -0.18795621053E+03  0.26222726442E+03  0.00000000000E+00 0.  1.
         22    1    3    3    0    0 -0.57763376611E+02 -0.20583117604E+03 -0.16624339205E+03  0.27081348952E+03  0.00000000000E+00 0.  1.
</event>
<event>
 7    1  0.5957303E-006  0.5698729E+02  0.7818608E-02  0.1421814E+00
          2   -1    0    0  502    0  0.00000000000E+00  0.00000000000E+00  0.66656278482E+03  0.66656278482E+03  0.00000000000E+00 0. -1.
          1   -1    0    0  501    0 -0.00000000000E+00 -0.00000000000E+00 -0.29324514726E+03  0.29324514726E+03  0.00000000000E+00 0. -1.
         25    2    1    2    0    0 -0.16683277455E+02  0.55480267181E+02 -0.30637551670E+02  0.14113883343E+03  0.12500047575E+03 0.  0.
          2    1    1    2  501    0  0.55106428533E+02 -0.19869649659E+02 -0.20206701687E+03  0.21038678844E+03  0.00000000000E+00 0. -1.
          1    1    1    2  502    0 -0.38423151078E+02 -0.35610617522E+02  0.60602220611E+03  0.60828231021E+03  0.00000000000E+00 0. -1.
         22    1    3    3    0    0  0.44380161701E+02  0.54114258190E+02  0.54474395133E+01  0.70197053281E+02  0.00000000000E+00 0. -1.
         22    1    3    3    0    0 -0.61063439156E+02  0.13660089907E+01 -0.36084991184E+02  0.70941780150E+02  0.00000000000E+00 0. -1.
</event>
<event>
 7    1  0.5957303E-006  0.9531746E+02  0.7818608E-02  0.1376387E+00
          2   -1    0    0  502    0  0.00000000000E+00  0.00000000000E+00  0.19879761620E+04  0.19879761620E+04  0.00000000000E+00 0. -1.
          1   -1    0    0  501    0 -0.00000000000E+00 -0.00000000000E+00 -0.36894938532E+02  0.36894938532E+02  0.00000000000E+00 0. -1.
         25    2    1    2    0    0 -0.87306338054E+02 -0.98030407780E+02  0.63491455375E+03  0.66028293348E+03  0.12499881666E+03 0.  0.
          2    1    1    2  501    0  0.71369767638E+02  0.56048840381E+02  0.62662921664E+02  0.11028036086E+03  0.00000000000E+00 0. -1.
          1    1    1    2  502    0  0.15936570416E+02  0.41981567399E+02  0.12535037481E+04  0.12543078062E+04  0.00000000000E+00 0. -1.
         22    1    3    3    0    0  0.22386263922E+02 -0.61672879796E+02  0.21979838705E+03  0.22938182113E+03  0.00000000000E+00 0.  1.
         22    1    3    3    0    0 -0.10969260198E+03 -0.36357527984E+02  0.41511616670E+03  0.43090111235E+03  0.00000000000E+00 0.  1.
</event>
<event>
 7    1  0.5957303E-006  0.9707721E+02  0.7818608E-02  0.1308041E+00
          2   -1    0    0  502    0  0.00000000000E+00  0.00000000000E+00  0.11733409414E+04  0.11733409414E+04  0.00000000000E+00 0. -1.
          1   -1    0    0  501    0 -0.00000000000E+00 -0.00000000000E+00 -0.22226187804E+03  0.22226187804E+03  0.00000000000E+00 0. -1.
         25    2    1    2    0    0 -0.11447871337E+02 -0.75931089840E+00 -0.70699332310E+01  0.12572410247E+03  0.12499974270E+03 0.  0.
          2    1    1    2  501    0  0.28374108674E+02  0.96349519520E+02 -0.13731122809E+03  0.17012552223E+03  0.00000000000E+00 0. -1.
          1    1    1    2  502    0 -0.16926237337E+02 -0.95590208622E+02  0.10954602246E+04  0.10997531947E+04  0.00000000000E+00 0. -1.
         22    1    3    3    0    0 -0.56606900032E+01  0.30641269407E+02 -0.57868424868E+02  0.65724313605E+02  0.00000000000E+00 0.  1.
         22    1    3    3    0    0 -0.57871813339E+01 -0.31400580306E+02  0.50798491637E+02  0.59999788865E+02  0.00000000000E+00 0.  1.
</event>
<event>
 7    1  0.5957303E-006  0.2116535E+03  0.7818608E-02  0.1231073E+00
          2   -1    0    0  502    0  0.00000000000E+00  0.00000000000E+00  0.17843482382E+03  0.17843482382E+03  0.00000000000E+00 0. -1.
          1   -1    0    0  501    0 -0.00000000000E+00 -0.00000000000E+00 -0.34819682756E+04  0.34819682756E+04  0.00000000000E+00 0. -1.
         25    2    1    2    0    0 -0.15962065336E+03  0.27655275945E+02 -0.22969771468E+03  0.30761378059E+03  0.12498652174E+03 0.  0.
          2    1    1    2  501    0  0.19439718153E+03 -0.96261203929E+02 -0.31987479351E+04  0.32060949512E+04  0.00000000000E+00 0. -1.
          1    1    1    2  502    0 -0.34776528169E+02  0.68605927984E+02  0.12491219805E+03  0.14669436761E+03  0.00000000000E+00 0. -1.
         22    1    3    3    0    0 -0.41437078129E+02 -0.41454478733E+01  0.59622431737E+01  0.42068569332E+02  0.00000000000E+00 0.  1.
         22    1    3    3    0    0 -0.11818357524E+03  0.31800723819E+02 -0.23565995785E+03  0.26554521126E+03  0.00000000000E+00 0.  1.
</event>
<event>
 7    1  0.5957303E-006  0.6153105E+02  0.7818608E-02  0.1455130E+00
          2   -1    0    0  502    0  0.00000000000E+00  0.00000000000E+00  0.10849474559E+04  0.10849474559E+04  0.00000000000E+00 0. -1.
          1   -1    0    0  501    0 -0.00000000000E+00 -0.00000000000E+00 -0.40789353497E+02  0.40789353497E+02  0.00000000000E+00 0. -1.
         25    2    1    2    0    0 -0.14057361033E+02 -0.62197585699E+02  0.45466699140E+03  0.47582778904E+03  0.12499545067E+03 0.  0.
          2    1    1    2  501    0 -0.23457525620E+02  0.57530649212E+02  0.30007913608E+01  0.62201574383E+02  0.00000000000E+00 0. -1.
          1    1    1    2  502    0  0.37514886653E+02  0.46669364862E+01  0.58649031966E+03  0.58770744599E+03  0.00000000000E+00 0. -1.
         22    1    3    3    0    0  0.46934599731E+02  0.76251638715E+01  0.14757934497E+03  0.15505051705E+03  0.00000000000E+00 0.  1.
         22    1    3    3    0    0 -0.60991960764E+02 -0.69822749570E+02  0.30708764643E+03  0.32077727199E+03  0.00000000000E+00 0.  1.
</event>
<event>
 7    1  0.5957303E-006  0.5777928E+02  0.7818608E-02  0.1463695E+00
          2   -1    0    0  502    0  0.00000000000E+00  0.00000000000E+00  0.22521111353E+03  0.22521111353E+03  0.00000000000E+00 0. -1.
          1   -1    0    0  501    0 -0.00000000000E+00 -0.00000000000E+00 -0.40028544562E+03  0.40028544562E+03  0.00000000000E+00 0. -1.
         25    2    1    2    0    0 -0.56676236547E+02  0.63850091774E+02  0.11817325185E+03  0.19203813068E+03  0.12499878469E+03 0.  0.
          2    1    1    2  501    0  0.51000983021E+02 -0.26449936823E+02 -0.35577214088E+03  0.36038107005E+03  0.00000000000E+00 0. -1.
          1    1    1    2  502    0  0.56752535259E+01 -0.37400154951E+02  0.62524556937E+02  0.73077358416E+02  0.00000000000E+00 0. -1.
         22    1    3    3    0    0 -0.65039862711E+01  0.92725740634E+02  0.64909550646E+02  0.11337378259E+03  0.00000000000E+00 0. -1.
         22    1    3    3    0    0 -0.50172250276E+02 -0.28875648860E+02  0.53263701204E+02  0.78664348092E+02  0.00000000000E+00 0. -1.
</event>
<event>
 7    1  0.5957303E-006  0.5669783E+02  0.7818608E-02  0.1534076E+00
          2   -1    0    0  502    0  0.00000000000E+00  0.00000000000E+00  0.49726940402E+03  0.49726940402E+03  0.00000000000E+00 0. -1.
          1   -1    0    0  501    0 -0.00000000000E+00 -0.00000000000E+00 -0.32414935339E+02  0.32414935339E+02  0.00000000000E+00 0. -1.
         25    2    1    2    0    0  0.34272389079E+02 -0.44169328023E+02  0.18102577442E+03  0.22698156462E+03  0.12499909393E+03 0.  0.
          2    1    1    2  501    0 -0.51592214473E+02  0.27927230398E+02  0.90045727792E+02  0.10747055357E+03  0.00000000000E+00 0. -1.
          1    1    1    2  502    0  0.17319825394E+02  0.16242097624E+02  0.19378296647E+03  0.19523222116E+03  0.00000000000E+00 0. -1.
         22    1    3    3    0    0 -0.46693697317E+02 -0.83753796446E+01  0.50698823502E+02  0.69432118345E+02  0.00000000000E+00 0. -1.
         22    1    3    3    0    0  0.80966086396E+02 -0.35793948378E+02  0.13032695092E+03  0.15754944628E+03  0.00000000000E+00 0. -1.
</event>
<event>
 7    1  0.5957303E-006  0.9733628E+02  0.7818608E-02  0.1376701E+00
          2   -1    0    0  502    0  0.00000000000E+00  0.00000000000E+00  0.18825693233E+04  0.18825693233E+04  0.00000000000E+00 0. -1.
          1   -1    0    0  501    0 -0.00000000000E+00 -0.00000000000E+00 -0.26518092678E+04  0.26518092678E+04  0.00000000000E+00 0. -1.
         25    2    1    2    0    0 -0.66170152427E+02  0.10705475017E+03  0.14360917918E+03  0.22822627729E+03  0.12499771476E+03 0.  0.
          2    1    1    2  501    0  0.73372235098E+02 -0.63790165825E+02 -0.26083114130E+04  0.26101228127E+04  0.00000000000E+00 0. -1.
          1    1    1    2  502    0 -0.72020826708E+01 -0.43264584340E+02  0.16954622893E+04  0.16960295012E+04  0.00000000000E+00 0. -1.
         22    1    3    3    0    0 -0.67782586370E+02  0.96712130271E+01  0.20952673724E+02  0.71603253506E+02  0.00000000000E+00 0. -1.
         22    1    3    3    0    0  0.16124339429E+01  0.97383537138E+02  0.12265650546E+03  0.15662302379E+03  0.00000000000E+00 0. -1.
</event>
<event>
 7    1  0.5957303E-006  0.5689752E+02  0.7818608E-02  0.1465119E+00
          2   -1    0    0  502    0  0.00000000000E+00  0.00000000000E+00  0.76669440421E+03  0.76669440421E+03  0.00000000000E+00 0. -1.
          1   -1    0    0  501    0 -0.00000000000E+00 -0.00000000000E+00 -0.51913656570E+03  0.51913656570E+03  0.00000000000E+00 0. -1.
         25    2    1    2    0    0 -0.44667160099E+02 -0.22466711105E+02  0.18436740024E+03  0.22829012301E+03  0.12500053478E+03 0.  0.
          2    1    1    2  501    0  0.21693749698E+02  0.52763208761E+02 -0.49488968677E+03  0.49816701722E+03  0.00000000000E+00 0. -1.
          1    1    1    2  502    0  0.22973410401E+02 -0.30296497656E+02  0.55808012505E+03  0.55937382968E+03  0.00000000000E+00 0. -1.
         22    1    3    3    0    0 -0.68685586830E+02 -0.59069500318E+02  0.11755728908E+03  0.14841371878E+03  0.00000000000E+00 0. -1.
         22    1    3    3    0    0  0.24018426731E+02  0.36602789212E+02  0.66810111152E+02  0.79876404231E+02  0.00000000000E+00 0. -1.
</event>
<event>
 7    1  0.5957303E-006  0.7626406E+02  0.7818608E-02  0.1365966E+00
          2   -1    0    0  502    0  0.00000000000E+00  0.00000000000E+00  0.75382149036E+02  0.75382149036E+02  0.00000000000E+00 0. -1.
          1   -1    0    0  501    0 -0.00000000000E+00 -0.00000000000E+00 -0.50699912318E+03  0.50699912318E+03  0.00000000000E+00 0. -1.
         25    2    1    2    0    0 -0.11307603527E+03  0.57333934679E+02 -0.26340920378E+03  0.31793394875E+03  0.12499686921E+03 0.  0.
          2    1    1    2  501    0  0.56594259668E+02 -0.33846928937E+02 -0.18873573691E+03  0.19992424369E+03  0.00000000000E+00 0. -1.
          1    1    1    2  502    0  0.56481775600E+02 -0.23487005741E+02  0.20527966553E+02  0.64523079781E+02  0.00000000000E+00 0. -1.
         22    1    3    3    0    0  0.26808249072E+02  0.14073088169E+01 -0.31482709137E+02  0.41374191363E+02  0.00000000000E+00 0. -1.
         22    1    3    3    0    0 -0.13988428434E+03  0.55926625862E+02 -0.23192649465E+03  0.27655975738E+03  0.00000000000E+00 0. -1.
</event>
<event>
 7    1  0.5957303E-006  0.3185764E+02  0.7818608E-02  0.1580666E+00
          2   -1    0    0  502    0  0.00000000000E+00  0.00000000000E+00  0.63157924748E+01  0.63157924748E+01  0.00000000000E+00 0. -1.
          1   -1    0    0  501    0 -0.00000000000E+00 -0.00000000000E+00 -0.21825704177E+04  0.21825704177E+04  0.00000000000E+00 0. -1.
         25    2    1    2    0    0 -0.13657958105E+02  0.35618245832E+02 -0.11107180691E+04  0.11183802262E+04  0.12499800884E+03 0.  0.
          2    1    1    2  501    0  0.30733949477E+02 -0.87236394862E+01 -0.95331379696E+03  0.95384897809E+03  0.00000000000E+00 0. -1.
          1    1    1    2  502    0 -0.17075991372E+02 -0.26894606346E+02 -0.11222275918E+03  0.11665700583E+03  0.00000000000E+00 0. -1.
         22    1    3    3    0    0  0.13245731054E+02 -0.36763778203E+02 -0.16712510111E+03  0.17163281796E+03  0.00000000000E+00 0. -1.
         22    1    3    3    0    0 -0.26903689159E+02  0.72382024035E+02 -0.94359296797E+03  0.94674740829E+03  0.00000000000E+00 0. -1.
</event>
<event>
 7    1  0.5957303E-006  0.4801727E+02  0.7818608E-02  0.1508921E+00
          2   -1    0    0  502    0  0.00000000000E+00  0.00000000000E+00  0.13818842218E+03  0.13818842218E+03  0.00000000000E+00 0. -1.
          1   -1    0    0  501    0 -0.00000000000E+00 -0.00000000000E+00 -0.12680626616E+03  0.12680626616E+03  0.00000000000E+00 0. -1.
         25    2    1    2    0    0 -0.22994866601E+02  0.55399370377E+01 -0.10202122690E+02  0.12767491754E+03  0.12504937613E+03 0.  0.
          2    1    1    2  501    0  0.44169223809E+02 -0.31060763620E+02 -0.40119185024E+02  0.67269906909E+02  0.00000000000E+00 0. -1.
          1    1    1    2  502    0 -0.21174357208E+02  0.25520826583E+02  0.61703463742E+02  0.70049863886E+02  0.00000000000E+00 0. -1.
         22    1    3    3    0    0 -0.13381856260E+01 -0.27726138895E+02 -0.58742446427E+02  0.64970797525E+02  0.00000000000E+00 0.  1.
         22    1    3    3    0    0 -0.21656680975E+02  0.33266075932E+02  0.48540323738E+02  0.62704120019E+02  0.00000000000E+00 0.  1.
</event>
<event>
 7    1  0.5957303E-006  0.6446701E+02  0.7818608E-02  0.1511771E+00
          2   -1    0    0  502    0  0.00000000000E+00  0.00000000000E+00  0.16658882276E+04  0.16658882276E+04  0.00000000000E+00 0. -1.
          1   -1    0    0  501    0 -0.00000000000E+00 -0.00000000000E+00 -0.34387617596E+03  0.34387617596E+03  0.00000000000E+00 0. -1.
         25    2    1    2    0    0 -0.44970631712E+02  0.27057929388E+02  0.27023538677E+03  0.30233970482E+03  0.12501057390E+03 0.  0.
          2    1    1    2  501    0  0.42481178653E+01  0.23851975616E+02 -0.32660491521E+03  0.32750226547E+03  0.00000000000E+00 0. -1.
          1    1    1    2  502    0  0.40722513847E+02 -0.50909905005E+02  0.13783815801E+04  0.13799224333E+04  0.00000000000E+00 0. -1.
         22    1    3    3    0    0 -0.29537323131E+02  0.76926304096E+02  0.18265510191E+03  0.20038212489E+03  0.00000000000E+00 0.  1.
         22    1    3    3    0    0 -0.15433308581E+02 -0.49868374707E+02  0.87580284855E+02  0.10195757993E+03  0.00000000000E+00 0.  1.
</event>
<event>
 7    1  0.5957303E-006  0.7406535E+02  0.7818608E-02  0.1494138E+00
          2   -1    0    0  502    0  0.00000000000E+00  0.00000000000E+00  0.79615402824E+03  0.79615402824E+03  0.00000000000E+00 0. -1.
          1   -1    0    0  501    0 -0.00000000000E+00 -0.00000000000E+00 -0.18422735709E+03  0.18422735709E+03  0.00000000000E+00 0. -1.
         25    2    1    2    0    0  0.68297476132E+02 -0.57284138962E+02  0.47210612228E+03  0.49644324191E+03  0.12500273564E+03 0.  0.
          2    1    1    2  501    0 -0.44559992942E+02  0.58896932191E+02 -0.16364641305E+03  0.17953994011E+03  0.00000000000E+00 0. -1.
          1    1    1    2  502    0 -0.23737483190E+02 -0.16127932293E+01  0.30346696192E+03  0.30439820332E+03  0.00000000000E+00 0. -1.
         22    1    3    3    0    0  0.66480006630E+02 -0.85267145189E+02  0.44309155661E+03  0.45609232056E+03  0.00000000000E+00 0. -1.
         22    1    3    3    0    0  0.18174695014E+01  0.27983006227E+02  0.29014565668E+02  0.40350921350E+02  0.00000000000E+00 0. -1.
</event>
<event>
 7    1  0.5957303E-006  0.8765518E+02  0.7818608E-02  0.1320069E+00
          2   -1    0    0  502    0  0.00000000000E+00  0.00000000000E+00  0.33571609170E+03  0.33571609170E+03  0.00000000000E+00 0. -1.
          1   -1    0    0  501    0 -0.00000000000E+00 -0.00000000000E+00 -0.46840846160E+03  0.46840846160E+03  0.00000000000E+00 0. -1.
         25    2    1    2    0    0  0.53997255766E+02  0.87129670600E+02  0.14347670675E+03  0.21614249188E+03  0.12499891314E+03 0.  0.
          2    1    1    2  501    0 -0.79066976062E+02  0.63071873191E+00 -0.41465392282E+03  0.42212540817E+03  0.00000000000E+00 0. -1.
          1    1    1    2  502    0  0.25069720295E+02 -0.87760389332E+02  0.13848484617E+03  0.16585665326E+03  0.00000000000E+00 0. -1.
         22    1    3    3    0    0 -0.29250352834E+02 -0.11091984274E+02  0.41079028245E+02  0.51634308532E+02  0.00000000000E+00 0.  1.
         22    1    3    3    0    0  0.83247608600E+02  0.98221654874E+02  0.10239767850E+03  0.16450818334E+03  0.00000000000E+00 0.  1.
</event>
<event>
 7    1  0.5957303E-006  0.9466140E+02  0.7818608E-02  0.1412059E+00
          2   -1    0    0  502    0  0.00000000000E+00  0.00000000000E+00  0.18892962431E+04  0.18892962431E+04  0.00000000000E+00 0. -1.
          1   -1    0    0  501    0 -0.00000000000E+00 -0.00000000000E+00 -0.56955506038E+03  0.56955506038E+03  0.00000000000E+00 0. -1.
         25    2    1    2    0    0  0.10383185616E+03 -0.27421479271E+01  0.96295369608E+03  0.97657324025E+03  0.12500759596E+03 0.  0.
          2    1    1    2  501    0 -0.16757960272E+02 -0.29590400143E+02 -0.55988252476E+03  0.56091430944E+03  0.00000000000E+00 0. -1.
          1    1    1    2  502    0 -0.87073895889E+02  0.32332548071E+02  0.91667001138E+03  0.92136375378E+03  0.00000000000E+00 0. -1.
         22    1    3    3    0    0 -0.19432807529E+02  0.41191536396E+01  0.38830439808E+03  0.38881217445E+03  0.00000000000E+00 0.  1.
         22    1    3    3    0    0  0.12326466369E+03 -0.68613015666E+01  0.57464929800E+03  0.58776106580E+03  0.00000000000E+00 0.  1.
</event>
<event>
 7    1  0.5957303E-006  0.2827996E+02  0.7818608E-02  0.1664485E+00
          2   -1    0    0  502    0  0.00000000000E+00  0.00000000000E+00  0.85440930117E+03  0.85440930117E+03  0.00000000000E+00 0. -1.
          1   -1    0    0  501    0 -0.00000000000E+00 -0.00000000000E+00 -0.23225578922E+02  0.23225578922E+02  0.00000000000E+00 0. -1.
         25    2    1    2    0    0 -0.53957534139E+01  0.22650489365E+02  0.42796302967E+03  0.44645119948E+03  0.12499663967E+03 0.  0.
          2    1    1    2  501    0  0.21635915667E+02  0.13294941893E+01 -0.47460641123E+01  0.22190212395E+02  0.00000000000E+00 0. -1.
          1    1    1    2  502    0 -0.16240162253E+02 -0.23979983554E+02  0.40796675669E+03  0.40899346822E+03  0.00000000000E+00 0. -1.
         22    1    3    3    0    0 -0.69023631242E+01  0.74718370730E+02  0.24863594886E+03  0.25971198010E+03  0.00000000000E+00 0.  1.
         22    1    3    3    0    0  0.15066097103E+01 -0.52067881365E+02  0.17932708081E+03  0.18673921938E+03  0.00000000000E+00 0.  1.
</event>
<event>
 7    1  0.5957303E-006  0.1253838E+03  0.7818608E-02  0.1294941E+00
          2   -1    0    0  502    0  0.00000000000E+00  0.00000000000E+00  0.10603665639E+04  0.10603665639E+04  0.00000000000E+00 0. -1.
          1   -1    0    0  501    0 -0.00000000000E+00 -0.00000000000E+00 -0.87925577895E+02  0.87925577895E+02  0.00000000000E+00 0. -1.
         25    2    1    2    0    0  0.41266527536E+02  0.12915618235E+03  0.90720078783E+02  0.20552327975E+03  0.12500176035E+03 0.  0.
          2    1    1    2  501    0  0.27835735483E+02 -0.12175997551E+03  0.10564783829E+03  0.16359029782E+03  0.00000000000E+00 0. -1.
          1    1    1    2  502    0 -0.69102263019E+02 -0.73962068451E+01  0.77607306892E+03  0.77917856422E+03  0.00000000000E+00 0. -1.
         22    1    3    3    0    0 -0.43031662041E+02  0.34220623628E+02  0.43347580313E+02  0.70012768397E+02  0.00000000000E+00 0.  1.
         22    1    3    3    0    0  0.84298189577E+02  0.94935558723E+02  0.47372498470E+02  0.13551051135E+03  0.00000000000E+00 0.  1.
</event>
<event>
 7    1  0.5957303E-006  0.6233567E+02  0.7818608E-02  0.1444919E+00
          2   -1    0    0  502    0  0.00000000000E+00  0.00000000000E+00  0.60059521600E+03  0.60059521600E+03  0.00000000000E+00 0. -1.
          1   -1    0    0  501    0 -0.00000000000E+00 -0.00000000000E+00 -0.51622907520E+02  0.51622907520E+02  0.00000000000E+00 0. -1.
         25    2    1    2    0    0  0.34409588001E+02 -0.78951746698E+01  0.25562574023E+03  0.28673184323E+03  0.12499710927E+03 0.  0.
          2    1    1    2  501    0 -0.47386076338E+02  0.45976251404E+02 -0.33163041362E+01  0.66107895119E+02  0.00000000000E+00 0. -1.
          1    1    1    2  502    0  0.12976488337E+02 -0.38081076734E+02  0.29666287239E+03  0.29937838517E+03  0.00000000000E+00 0. -1.
         22    1    3    3    0    0  0.58332356844E+02 -0.43322790156E+02  0.89955689101E+02  0.11563543576E+03  0.00000000000E+00 0.  1.
         22    1    3    3    0    0 -0.23922768843E+02  0.35427615486E+02  0.16567005113E+03  0.17109640747E+03  0.00000000000E+00 0.  1.
</event>
<event>
 7    1  0.5957303E-006  0.4630866E+02  0.7818608E-02  0.1474008E+00
          2   -1    0    0  502    0  0.00000000000E+00  0.00000000000E+00  0.15282488107E+04  0.15282488107E+04  0.00000000000E+00 0. -1.
          1   -1    0    0  501    0 -0.00000000000E+00 -0.00000000000E+00 -0.24603649547E+03  0.24603649547E+03  0.00000000000E+00 0. -1.
         25    2    1    2    0    0  0.32536548501E+02  0.11952697205E+02  0.24639843036E+03  0.27845773469E+03  0.12500011826E+03 0.  0.
          2    1    1    2  501    0 -0.33990313475E+02  0.31855666731E+02 -0.22726401273E+03  0.23198934544E+03  0.00000000000E+00 0. -1.
          1    1    1    2  502    0  0.14537649737E+01 -0.43808363936E+02  0.12630778976E+04  0.12638382260E+04  0.00000000000E+00 0. -1.
         22    1    3    3    0    0 -0.47125870029E+02 -0.19169594284E+01  0.69972310413E+02  0.84383923729E+02  0.00000000000E+00 0.  1.
         22    1    3    3    0    0  0.79662418531E+02  0.13869656633E+02  0.17642611995E+03  0.19407381097E+03  0.00000000000E+00 0.  1.
</event>
<event>
 7    1  0.5957303E-006  0.2078367E+03  0.7818608E-02  0.1181437E+00
          2   -1    0    0  502    0  0.00000000000E+00  0.00000000000E+00  0.75876239748E+03  0.75876239748E+03  0.00000000000E+00 0. -1.
          1   -1    0    0  501    0 -0.00000000000E+00 -0.00000000000E+00 -0.67506018871E+03  0.67506018871E+03  0.00000000000E+00 0. -1.
         25    2    1    2    0    0 -0.17853581737E+03  0.19654988406E+03  0.60976722049E+03  0.67671829291E+03  0.12499875906E+03 0.  0.
          2    1    1    2  501    0  0.71969214162E+02 -0.11250013411E+03 -0.59152928120E+03  0.60641795693E+03  0.00000000000E+00 0. -1.
          1    1    1    2  502    0  0.10656660320E+03 -0.84049749949E+02  0.65464269487E+02  0.15068633636E+03  0.00000000000E+00 0. -1.
         22    1    3    3    0    0 -0.75766881488E+02  0.21354795060E+02  0.26627715287E+03  0.27766917319E+03  0.00000000000E+00 0. -1.
         22    1    3    3    0    0 -0.10276893588E+03  0.17519508900E+03  0.34349006762E+03  0.39904911972E+03  0.00000000000E+00 0. -1.
</event>
<event>
 7    1  0.5957303E-006  0.1080063E+03  0.7818608E-02  0.1302632E+00
          2   -1    0    0  502    0  0.00000000000E+00  0.00000000000E+00  0.31965255426E+04  0.31965255426E+04  0.00000000000E+00 0. -1.
          1   -1    0    0  501    0 -0.00000000000E+00 -0.00000000000E+00 -0.16094053399E+04  0.16094053399E+04  0.00000000000E+00 0. -1.
         25    2    1    2    0    0 -0.81944335343E+02 -0.36101717129E+02 -0.95388583785E+01  0.15406016745E+03  0.12500134920E+03 0.  0.
          2    1    1    2  501    0  0.39671626191E+02 -0.63821756646E+02 -0.15257388540E+04  0.15275883297E+04  0.00000000000E+00 0. -1.
          1    1    1    2  502    0  0.42272709152E+02  0.99923473775E+02  0.31223979151E+04  0.31242823853E+04  0.00000000000E+00 0. -1.
         22    1    3    3    0    0 -0.75606187519E+02 -0.85329424340E+00 -0.56938327072E+02  0.94651977222E+02  0.00000000000E+00 0. -1.
         22    1    3    3    0    0 -0.63381478242E+01 -0.35248422885E+02  0.47399468694E+02  0.59408190228E+02  0.00000000000E+00 0. -1.
</event>
<event>
 7    1  0.5957303E-006  0.6231625E+02  0.7818608E-02  0.1436416E+00
          2   -1    0    0  502    0  0.00000000000E+00  0.00000000000E+00  0.14234697617E+03  0.14234697617E+03  0.00000000000E+00 0. -1.
          1   -1    0    0  501    0 -0.00000000000E+00 -0.00000000000E+00 -0.59197187542E+03  0.59197187542E+03  0.00000000000E+00 0. -1.
         25    2    1    2    0    0  0.22956706522E+02 -0.11535086478E+02 -0.11149762736E+03  0.16945762352E+03  0.12499638663E+03 0.  0.
          2    1    1    2  501    0 -0.65319467240E+02  0.48864158440E+01 -0.44495391441E+03  0.44974936999E+03  0.00000000000E+00 0. -1.
          1    1    1    2  502    0  0.42362760717E+02  0.66486706345E+01  0.10682664252E+03  0.11511185807E+03  0.00000000000E+00 0. -1.
         22    1    3    3    0    0 -0.36221864504E+02 -0.36965966843E+02 -0.15818842651E+02  0.54117852467E+02  0.00000000000E+00 0. -1.
         22    1    3    3    0    0  0.59178571027E+02  0.25430880365E+02 -0.95678784706E+02  0.11533977106E+03  0.00000000000E+00 0. -1.
</event>
<event>
 7    1  0.5957303E-006  0.6546769E+02  0.7818608E-02  0.1382420E+00
          2   -1    0    0  502    0  0.00000000000E+00  0.00000000000E+00  0.11687155732E+03  0.11687155732E+03  0.00000000000E+00 0. -1.
          1   -1    0    0  501    0 -0.00000000000E+00 -0.00000000000E+00 -0.19932833034E+04  0.19932833034E+04  0.00000000000E+00 0. -1.
         25    2    1    2    0    0 -0.11306241734E+03 -0.38373639420E+02 -0.85422433631E+03  0.87153941832E+03  0.12500437799E+03 0.  0.
          2    1    1    2  501    0  0.62205055676E+02 -0.19956924675E+01 -0.11197185425E+04  0.11214468628E+04  0.00000000000E+00 0. -1.
          1    1    1    2  502    0  0.50857361669E+02  0.40369331887E+02  0.97531132716E+02  0.11716857958E+03  0.00000000000E+00 0. -1.
         22    1    3    3    0    0 -0.12150912761E+03 -0.47959981655E+02 -0.84668719966E+03  0.85670522469E+03  0.00000000000E+00 0. -1.
         22    1    3    3    0    0  0.84467102650E+01  0.95863422359E+01 -0.75371366445E+01  0.14834193627E+02  0.00000000000E+00 0. -1.
</event>
<event>
 7    1  0.5957303E-006  0.1955307E+03  0.7818608E-02  0.1172827E+00
          2   -1    0    0  502    0  0.00000000000E+00  0.00000000000E+00  0.21615489052E+04  0.21615489052E+04  0.00000000000E+00 0. -1.
          1   -1    0    0  501    0 -0.00000000000E+00 -0.00000000000E+00 -0.73613602254E+02  0.73613602254E+02  0.00000000000E+00 0. -1.
         25    2    1    2    0    0 -0.12108750586E+03 -0.22171781534E+03  0.30228110414E+03  0.41330394966E+03  0.12500126069E+03 0.  0.
          2    1    1    2  501    0  0.15347558530E+03  0.30388252417E+02  0.58201179473E+03  0.60267398349E+03  0.00000000000E+00 0. -1.
          1    1    1    2  502    0 -0.32388079443E+02  0.19132956292E+03  0.12036424041E+04  0.12191845743E+04  0.00000000000E+00 0. -1.
         22    1    3    3    0    0 -0.30925472940E+02 -0.37278598990E+02  0.15018925498E+03  0.15780649902E+03  0.00000000000E+00 0.  1.
         22    1    3    3    0    0 -0.90162032918E+02 -0.18443921635E+03  0.15209184916E+03  0.25549745065E+03  0.00000000000E+00 0.  1.
</event>
<event>
 7    1  0.5957303E-006  0.1131676E+03  0.7818608E-02  0.1323664E+00
          2   -1    0    0  502    0  0.00000000000E+00  0.00000000000E+00  0.57244880502E+03  0.57244880502E+03  0.00000000000E+00 0. -1.
          1   -1    0    0  501    0 -0.00000000000E+00 -0.00000000000E+00 -0.44601231090E+03  0.44601231090E+03  0.00000000000E+00 0. -1.
         25    2    1    2    0    0 -0.46685817069E+02  0.66811998364E+02 -0.32401991731E+03  0.35673287187E+03  0.12500410561E+03 0.  0.
          2    1    1    2  501    0  0.36633095462E+02  0.46648940840E+02 -0.90888104951E+02  0.10852997275E+03  0.00000000000E+00 0. -1.
          1    1    1    2  502    0  0.10052721606E+02 -0.11346093920E+03  0.54134451639E+03  0.55319827129E+03  0.00000000000E+00 0. -1.
         22    1    3    3    0    0  0.15125644561E+02 -0.24811581133E+02 -0.26425129462E+02  0.39277056264E+02  0.00000000000E+00 0.  1.
         22    1    3    3    0    0 -0.61811461630E+02  0.91623579496E+02 -0.29759478785E+03  0.31745581561E+03  0.00000000000E+00 0.  1.
</event>
<event>
 7    1  0.5957303E-006  0.9652562E+02  0.7818608E-02  0.1381239E+00
          2   -1    0    0  502    0  0.00000000000E+00  0.00000000000E+00  0.19512568835E+04  0.19512568835E+04  0.00000000000E+00 0. -1.
          1   -1    0    0  501    0 -0.00000000000E+00 -0.00000000000E+00 -0.13925722767E+04  0.13925722767E+04  0.00000000000E+00 0. -1.
         25    2    1    2    0    0  0.51355041603E+02  0.35031861936E+02  0.26415730299E+02  0.14208168721E+03  0.12499937353E+03 0.  0.
          2    1    1    2  501    0  0.84524386983E+01  0.41772541750E+02 -0.13331296737E+04  0.13338107496E+04  0.00000000000E+00 0. -1.
          1    1    1    2  502    0 -0.59807480301E+02 -0.76804403685E+02  0.18653985502E+04  0.18679367233E+04  0.00000000000E+00 0. -1.
         22    1    3    3    0    0 -0.33182115206E+01  0.72348120939E+02  0.53724932501E+01  0.72623169958E+02  0.00000000000E+00 0. -1.
         22    1    3    3    0    0  0.54673253123E+02 -0.37316259003E+02  0.21043237049E+02  0.69458517250E+02  0.00000000000E+00 0. -1.
</event>
<event>
 7    1  0.5957303E-006  0.1482059E+03  0.7818608E-02  0.1303756E+00
          2   -1    0    0  502    0  0.00000000000E+00  0.00000000000E+00  0.19038806252E+04  0.19038806252E+04  0.00000000000E+00 0. -1.
          1   -1    0    0  501    0 -0.00000000000E+00 -0.00000000000E+00 -0.33924133705E+03  0.33924133705E+03  0.00000000000E+00 0. -1.
         25    2    1    2    0    0 -0.10659392421E+03  0.12335412248E+03  0.76483505371E+03  0.79194494341E+03  0.12500251919E+03 0.  0.
          2    1    1    2  501    0 -0.19255127155E+02 -0.50666675101E+02 -0.31869705779E+03  0.32327339286E+03  0.00000000000E+00 0. -1.
          1    1    1    2  502    0  0.12584905137E+03 -0.72687447374E+02  0.11185012923E+04  0.11279036260E+04  0.00000000000E+00 0. -1.
         22    1    3    3    0    0 -0.10254537827E+02  0.61456581749E+02  0.10379281969E+03  0.12105790518E+03  0.00000000000E+00 0.  1.
         22    1    3    3    0    0 -0.96339386384E+02  0.61897540726E+02  0.66104223402E+03  0.67088703824E+03  0.00000000000E+00 0.  1.
</event>
<event>
 7    1  0.5957303E-006  0.5733716E+02  0.7818608E-02  0.1417202E+00
          2   -1    0    0  502    0  0.00000000000E+00  0.00000000000E+00  0.67658237332E+03  0.67658237332E+03  0.00000000000E+00 0. -1.
          1   -1    0    0  501    0 -0.00000000000E+00 -0.00000000000E+00 -0.96207651606E+02  0.96207651606E+02  0.00000000000E+00 0. -1.
         25    2    1    2    0    0  0.89229279076E+01 -0.53773086901E+02  0.22881298638E+03  0.26636806567E+03  0.12500160061E+03 0.  0.
          2    1    1    2  501    0  0.43133584532E+02  0.39608701575E+02 -0.64360699215E+02  0.87015257045E+02  0.00000000000E+00 0. -1.
          1    1    1    2  502    0 -0.52056512440E+02  0.14164385326E+02  0.41592243455E+03  0.41940670221E+03  0.00000000000E+00 0. -1.
         22    1    3    3    0    0  0.20963162427E+02 -0.92766288756E+02  0.16976729589E+03  0.19459181191E+03  0.00000000000E+00 0. -1.
         22    1    3    3    0    0 -0.12040234519E+02  0.38993201856E+02  0.59045690487E+02  0.71776253757E+02  0.00000000000E+00 0. -1.
</event>
<event>
 7    1  0.5957303E-006  0.3589180E+02  0.7818608E-02  0.1584532E+00
          2   -1    0    0  502    0  0.00000000000E+00  0.00000000000E+00  0.10064557081E+04  0.10064557081E+04  0.00000000000E+00 0. -1.
          1   -1    0    0  501    0 -0.00000000000E+00 -0.00000000000E+00 -0.10430023827E+03  0.10430023827E+03  0.00000000000E+00 0. -1.
         25    2    1    2    0    0  0.10225946970E-01  0.22654612472E+02  0.79551563050E+02  0.14988838685E+03  0.12499938304E+03 0.  0.
          2    1    1    2  501    0 -0.27209153916E+02  0.10976796531E+01 -0.66069226138E+02  0.71461077518E+02  0.00000000000E+00 0. -1.
          1    1    1    2  502    0  0.27198927969E+02 -0.23752292125E+02  0.88867313289E+03  0.88940648198E+03  0.00000000000E+00 0. -1.
         22    1    3    3    0    0  0.70327785715E+01  0.27332640390E+02  0.11244351383E+03  0.11593134610E+03  0.00000000000E+00 0.  1.
         22    1    3    3    0    0 -0.70225526245E+01 -0.46780279188E+01 -0.32891950783E+02  0.33957040755E+02  0.00000000000E+00 0.  1.
</event>
<event>
 7    1  0.5957303E-006  0.2957257E+03  0.7818608E-02  0.1242003E+00
          2   -1    0    0  502    0  0.00000000000E+00  0.00000000000E+00  0.89810809580E+03  0.89810809580E+03  0.00000000000E+00 0. -1.
          1   -1    0    0  501    0 -0.00000000000E+00 -0.00000000000E+00 -0.43680348935E+04  0.43680348935E+04  0.00000000000E+00 0. -1.
         25    2    1    2    0    0 -0.86299847206E+02 -0.33318636986E+03 -0.16655560658E+04  0.17053331296E+04  0.12499301585E+03 0.  0.
          2    1    1    2  501    0  0.10019801112E+02  0.48205175479E+02 -0.26575804519E+04  0.26580364922E+04  0.00000000000E+00 0. -1.
          1    1    1    2  502    0  0.76280046093E+02  0.28498119438E+03  0.85320972006E+03  0.90277336745E+03  0.00000000000E+00 0. -1.
         22    1    3    3    0    0  0.12897605293E+02 -0.17877754874E+03 -0.93913568937E+03  0.95608765456E+03  0.00000000000E+00 0.  1.
         22    1    3    3    0    0 -0.99197452498E+02 -0.15440882113E+03 -0.72642037643E+03  0.74924547507E+03  0.00000000000E+00 0.  1.
</event>
<event>
 7    1  0.5957303E-006  0.1024636E+03  0.7818608E-02  0.1352220E+00
          2   -1    0    0  502    0  0.00000000000E+00  0.00000000000E+00  0.52240722358E+03  0.52240722358E+03  0.00000000000E+00 0. -1.
          1   -1    0    0  501    0 -0.00000000000E+00 -0.00000000000E+00 -0.27393800375E+04  0.27393800375E+04  0.00000000000E+00 0. -1.
         25    2    1    2    0    0  0.55863259077E+02  0.17666695252E+01 -0.34149992056E+03  0.36792862977E+03  0.12500182410E+03 0.  0.
          2    1    1    2  501    0  0.44721659981E+02 -0.24748178225E+02 -0.23791618139E+04  0.23797107883E+04  0.00000000000E+00 0. -1.
          1    1    1    2  502    0 -0.10058491906E+03  0.22981508700E+02  0.50368892059E+03  0.51414784295E+03  0.00000000000E+00 0. -1.
         22    1    3    3    0    0  0.51128125802E+02 -0.57463102250E+02 -0.17551077685E+03  0.19162496225E+03  0.00000000000E+00 0. -1.
         22    1    3    3    0    0  0.47351332749E+01  0.59229771775E+02 -0.16598914371E+03  0.17630366752E+03  0.00000000000E+00 0. -1.
</event>
<event>
 7    1  0.5957303E-006  0.9624899E+02  0.7818608E-02  0.1395332E+00
          2   -1    0    0  502    0  0.00000000000E+00  0.00000000000E+00  0.12205928978E+03  0.12205928978E+03  0.00000000000E+00 0. -1.
          1   -1    0    0  501    0 -0.00000000000E+00 -0.00000000000E+00 -0.20856341435E+04  0.20856341435E+04  0.00000000000E+00 0. -1.
         25    2    1    2    0    0  0.11908188464E+03  0.11969945549E+02 -0.10934249709E+04  0.11070347239E+04  0.12499575214E+03 0.  0.
          2    1    1    2  501    0 -0.24713245931E+02 -0.29069221366E+02 -0.96501069909E+03  0.96576467812E+03  0.00000000000E+00 0. -1.
          1    1    1    2  502    0 -0.94368638708E+02  0.17099275817E+02  0.94860816283E+02  0.13489403127E+03  0.00000000000E+00 0. -1.
         22    1    3    3    0    0  0.12328879943E+03 -0.22616029870E+02 -0.98989545315E+03  0.99779989028E+03  0.00000000000E+00 0. -1.
         22    1    3    3    0    0 -0.42069147903E+01  0.34585975420E+02 -0.10352951779E+03  0.10923483364E+03  0.00000000000E+00 0. -1.
</event>
<event>
 7    1  0.6048946E-006  0.7672851E+02  0.7818608E-02  0.1349510E+00
          2   -1    0    0  502    0  0.00000000000E+00  0.00000000000E+00  0.15151659334E+04  0.15151659334E+04  0.00000000000E+00 0. -1.
          1   -1    0    0  501    0 -0.00000000000E+00 -0.00000000000E+00 -0.52912839524E+03  0.52912839524E+03  0.00000000000E+00 0. -1.
         25    2    1    2    0    0  0.80251295604E+02  0.34015460135E+02 -0.15679800167E+03  0.21864968750E+03  0.12499900217E+03 0.  0.
          2    1    1    2  501    0 -0.23997860990E+02 -0.75423233256E+02 -0.33598173851E+03  0.34517863500E+03  0.00000000000E+00 0. -1.
          1    1    1    2  502    0 -0.56253434614E+02  0.41407773122E+02  0.14788172783E+04  0.14804660061E+04  0.00000000000E+00 0. -1.
         22    1    3    3    0    0  0.56021267888E+02  0.53017911428E+02 -0.21755570926E+02  0.80141039763E+02  0.00000000000E+00 0.  1.
         22    1    3    3    0    0  0.24230027716E+02 -0.19002451294E+02 -0.13504243074E+03  0.13850864774E+03  0.00000000000E+00 0.  1.
</event>
<event>
 7    1  0.5957303E-006  0.2914891E+03  0.7818608E-02  0.1265044E+00
          2   -1    0    0  502    0  0.00000000000E+00  0.00000000000E+00  0.49914282158E+03  0.49914282158E+03  0.00000000000E+00 0. -1.
          1   -1    0    0  501    0 -0.00000000000E+00 -0.00000000000E+00 -0.22345054665E+04  0.22345054665E+04  0.00000000000E+00 0. -1.
         25    2    1    2    0    0  0.11663267374E+03 -0.30276938453E+03 -0.61113530975E+02  0.35303369379E+03  0.12500177795E+03 0.  0.
          2    1    1    2  501    0 -0.11989895359E+03  0.26317063032E+03 -0.20159619942E+04  0.20365994456E+04  0.00000000000E+00 0. -1.
          1    1    1    2  502    0  0.32662798513E+01  0.39598754209E+02  0.34171288031E+03  0.34401514864E+03  0.00000000000E+00 0. -1.
         22    1    3    3    0    0  0.10999587973E+03 -0.18595600404E+03  0.97017659793E+01  0.21627032451E+03  0.00000000000E+00 0.  1.
         22    1    3    3    0    0  0.66367940072E+01 -0.11681338049E+03 -0.70815296955E+02  0.13676336929E+03  0.00000000000E+00 0.  1.
</event>
<event>
 7    1  0.5957303E-006  0.7005606E+02  0.7818608E-02  0.1454622E+00
          2   -1    0    0  502    0  0.00000000000E+00  0.00000000000E+00  0.26462792359E+04  0.26462792359E+04  0.00000000000E+00 0. -1.
          1   -1    0    0  501    0 -0.00000000000E+00 -0.00000000000E+00 -0.48908191904E+03  0.48908191904E+03  0.00000000000E+00 0. -1.
         25    2    1    2    0    0  0.69847145647E+02 -0.72527964592E+02  0.44228113575E+03  0.47050652738E+03  0.12499943948E+03 0.  0.
          2    1    1    2  501    0 -0.28352344648E+02  0.17517429809E+02 -0.47384175014E+03  0.47501233665E+03  0.00000000000E+00 0. -1.
          1    1    1    2  502    0 -0.41494800999E+02  0.55010534784E+02  0.21887579313E+04  0.21898422909E+04  0.00000000000E+00 0. -1.
         22    1    3    3    0    0 -0.12458548888E+02 -0.62052623770E+02  0.10026033438E+03  0.11856592346E+03  0.00000000000E+00 0.  1.
         22    1    3    3    0    0  0.82305694535E+02 -0.10475340822E+02  0.34202080137E+03  0.35194060392E+03  0.00000000000E+00 0.  1.
</event>
<event>
 7    1  0.5957303E-006  0.1485019E+03  0.7818608E-02  0.1262057E+00
          2   -1    0    0  502    0  0.00000000000E+00  0.00000000000E+00  0.16112713547E+04  0.16112713547E+04  0.00000000000E+00 0. -1.
          1   -1    0    0  501    0 -0.00000000000E+00 -0.00000000000E+00 -0.13569325128E+03  0.13569325128E+03  0.00000000000E+00 0. -1.
         25    2    1    2    0    0  0.11575344628E+03  0.15971607501E+02  0.99982520021E+02  0.19816559894E+03  0.12497658870E+03 0.  0.
          2    1    1    2  501    0  0.24370562815E+01  0.80263542086E+02 -0.63054268839E+02  0.10209807173E+03  0.00000000000E+00 0. -1.
          1    1    1    2  502    0 -0.11819050256E+03 -0.96235149587E+02  0.14386498522E+04  0.14467009353E+04  0.00000000000E+00 0. -1.
         22    1    3    3    0    0  0.52153199837E+01  0.45031712131E+02 -0.14456853211E+01  0.45355756703E+02  0.00000000000E+00 0. -1.
         22    1    3    3    0    0  0.11053812629E+03 -0.29060104630E+02  0.10142820534E+03  0.15280984224E+03  0.00000000000E+00 0. -1.
</event>
<event>
 7    1  0.7743196E-006  0.6010500E+02  0.7818608E-02  0.1418637E+00
          2   -1    0    0  502    0  0.00000000000E+00  0.00000000000E+00  0.79530570837E+03  0.79530570837E+03  0.00000000000E+00 0. -1.
          1   -1    0    0  501    0 -0.00000000000E+00 -0.00000000000E+00 -0.12559360054E+04  0.12559360054E+04  0.00000000000E+00 0. -1.
         25    2    1    2    0    0  0.30580017940E+02 -0.17509185113E+02 -0.66933875654E+03  0.68182146829E+03  0.12499773823E+03 0.  0.
          2    1    1    2  501    0 -0.27848685801E+02 -0.42603883133E+02 -0.57808882301E+03  0.58032519112E+03  0.00000000000E+00 0. -1.
          1    1    1    2  502    0 -0.27313321397E+01  0.60113068245E+02  0.78679728248E+03  0.78909505439E+03  0.00000000000E+00 0. -1.
         22    1    3    3    0    0 -0.17290965136E+02 -0.59688890998E+02 -0.24735661191E+03  0.25504320151E+03  0.00000000000E+00 0. -1.
         22    1    3    3    0    0  0.47870983076E+02  0.42179705886E+02 -0.42198214463E+03  0.42677826678E+03  0.00000000000E+00 0. -1.
</event>
<event>
 7    1  0.5957303E-006  0.8334066E+02  0.7818608E-02  0.1423744E+00
          2   -1    0    0  502    0  0.00000000000E+00  0.00000000000E+00  0.13710476867E+04  0.13710476867E+04  0.00000000000E+00 0. -1.
          1   -1    0    0  501    0 -0.00000000000E+00 -0.00000000000E+00 -0.17761482022E+03  0.17761482022E+03  0.00000000000E+00 0. -1.
         25    2    1    2    0    0  0.70824200402E+02 -0.46084771873E+02  0.29775107543E+03  0.33379662564E+03  0.12499844322E+03 0.  0.
          2    1    1    2  501    0 -0.45147081392E+02  0.70302504525E+02 -0.14833810856E+03  0.17024950969E+03  0.00000000000E+00 0. -1.
          1    1    1    2  502    0 -0.25677119010E+02 -0.24217732652E+02  0.10440198996E+04  0.10446163716E+04  0.00000000000E+00 0. -1.
         22    1    3    3    0    0  0.28306859977E+02  0.42771610422E+02  0.12159072813E+03  0.13196588251E+03  0.00000000000E+00 0. -1.
         22    1    3    3    0    0  0.42517340425E+02 -0.88856382294E+02  0.17616034730E+03  0.20183074313E+03  0.00000000000E+00 0. -1.
</event>
<event>
 7    1  0.5957303E-006  0.8399416E+02  0.7818608E-02  0.1392526E+00
          2   -1    0    0  502    0  0.00000000000E+00  0.00000000000E+00  0.11671959182E+04  0.11671959182E+04  0.00000000000E+00 0. -1.
          1   -1    0    0  501    0 -0.00000000000E+00 -0.00000000000E+00 -0.47779036193E+03  0.47779036193E+03  0.00000000000E+00 0. -1.
         25    2    1    2    0    0 -0.42131995705E+02 -0.10697996084E+02 -0.82410092272E+01  0.13260002845E+03  0.12500120451E+03 0.  0.
          2    1    1    2  501    0 -0.42812204111E+02  0.12895909871E+02 -0.40450264793E+03  0.40696631493E+03  0.00000000000E+00 0. -1.
          1    1    1    2  502    0  0.84944199816E+02 -0.21979137876E+01  0.11021492134E+04  0.11054199367E+04  0.00000000000E+00 0. -1.
         22    1    3    3    0    0  0.92374430332E+01  0.24976647308E+02 -0.50519488682E+02  0.57108510760E+02  0.00000000000E+00 0. -1.
         22    1    3    3    0    0 -0.51369438738E+02 -0.35674643392E+02  0.42278479455E+02  0.75491517685E+02  0.00000000000E+00 0. -1.
</event>
<event>
 7    1  0.5957303E-006  0.1376163E+03  0.7818608E-02  0.1310113E+00
          2   -1    0    0  502    0  0.00000000000E+00  0.00000000000E+00  0.15053800489E+03  0.15053800489E+03  0.00000000000E+00 0. -1.
          1   -1    0    0  501    0 -0.00000000000E+00 -0.00000000000E+00 -0.11049327750E+04  0.11049327750E+04  0.00000000000E+00 0. -1.
         25    2    1    2    0    0  0.74845514151E+02  0.10342037059E+03 -0.69325593917E+02  0.19164141399E+03  0.12499107785E+03 0.  0.
          2    1    1    2  501    0  0.48320774399E+02 -0.26449719331E+02 -0.91406559203E+03  0.91572397120E+03  0.00000000000E+00 0. -1.
          1    1    1    2  502    0 -0.12316628855E+03 -0.76970651256E+02  0.28996415888E+02  0.14810539465E+03  0.00000000000E+00 0. -1.
         22    1    3    3    0    0 -0.45131851481E+01  0.74548417559E+02 -0.76472564433E+02  0.10689194783E+03  0.00000000000E+00 0.  1.
         22    1    3    3    0    0  0.79358699299E+02  0.28871953029E+02  0.71469705163E+01  0.84749466156E+02  0.00000000000E+00 0.  1.
</event>
<event>
 7    1  0.5957303E-006  0.4865968E+02  0.7818608E-02  0.1469287E+00
          2   -1    0    0  502    0  0.00000000000E+00  0.00000000000E+00  0.55217288767E+03  0.55217288767E+03  0.00000000000E+00 0. -1.
          1   -1    0    0  501    0 -0.00000000000E+00 -0.00000000000E+00 -0.21481254266E+03  0.21481254266E+03  0.00000000000E+00 0. -1.
         25    2    1    2    0    0 -0.83381305319E+02 -0.72281113973E+01  0.31875153592E+02  0.15377104397E+03  0.12499928350E+03 0.  0.
          2    1    1    2  501    0  0.37463452050E+02  0.21402504831E+02 -0.14954955213E+03  0.15564911177E+03  0.00000000000E+00 0. -1.
          1    1    1    2  502    0  0.45917853269E+02 -0.14174393434E+02  0.45503474355E+03  0.45756527459E+03  0.00000000000E+00 0. -1.
         22    1    3    3    0    0 -0.21075484265E+02 -0.33389153468E+02 -0.39242381722E+02  0.55668448240E+02  0.00000000000E+00 0. -1.
         22    1    3    3    0    0 -0.62305821055E+02  0.26161042071E+02  0.71117535314E+02  0.98102595728E+02  0.00000000000E+00 0. -1.
</event>
<event>
 7    1  0.5957303E-006  0.1312361E+03  0.7818608E-02  0.1428216E+00
          2   -1    0    0  502    0  0.00000000000E+00  0.00000000000E+00  0.48340866200E+03  0.48340866200E+03  0.00000000000E+00 0. -1.
          1   -1    0    0  501    0 -0.00000000000E+00 -0.00000000000E+00 -0.25166872132E+03  0.25166872132E+03  0.00000000000E+00 0. -1.
         25    2    1    2    0    0 -0.20153059053E+02  0.12140128296E+03  0.30269439869E+03  0.34984722106E+03  0.12499904716E+03 0.  0.
          2    1    1    2  501    0  0.65635936974E+01  0.20645055685E+02 -0.19497339964E+03  0.19617320320E+03  0.00000000000E+00 0. -1.
          1    1    1    2  502    0  0.13589465356E+02 -0.14204633864E+03  0.12401894163E+03  0.18905695907E+03  0.00000000000E+00 0. -1.
         22    1    3    3    0    0  0.49967295621E+02  0.39335391748E+02  0.78545510309E+02  0.10106137178E+03  0.00000000000E+00 0. -1.
         22    1    3    3    0    0 -0.70120354674E+02  0.82065891209E+02  0.22414888838E+03  0.24878584928E+03  0.00000000000E+00 0. -1.
</event>
<event>
 7    1  0.5957303E-006  0.1782201E+03  0.7818608E-02  0.1315013E+00
          2   -1    0    0  502    0  0.00000000000E+00  0.00000000000E+00  0.22756618151E+04  0.22756618151E+04  0.00000000000E+00 0. -1.
          1   -1    0    0  501    0 -0.00000000000E+00 -0.00000000000E+00 -0.23365272907E+03  0.23365272907E+03  0.00000000000E+00 0. -1.
         25    2    1    2    0    0 -0.11980534559E+03 -0.17310318083E+03  0.58376922046E+03  0.63303078685E+03  0.12499376904E+03 0.  0.
          2    1    1    2  501    0  0.83114739930E+02  0.15550403879E+03 -0.17153816612E+03  0.24599778151E+03  0.00000000000E+00 0. -1.
          1    1    1    2  502    0  0.36690605664E+02  0.17599142033E+02  0.16297780317E+04  0.16302859758E+04  0.00000000000E+00 0. -1.
         22    1    3    3    0    0 -0.13691384512E+03 -0.17688213760E+03  0.50473844961E+03  0.55208114811E+03  0.00000000000E+00 0. -1.
         22    1    3    3    0    0  0.17108499529E+02  0.37789567734E+01  0.79030770850E+02  0.80949638736E+02  0.00000000000E+00 0. -1.
</event>
<event>
 7    1  0.5957303E-006  0.9079697E+02  0.7818608E-02  0.1459808E+00
          2   -1    0    0  502    0  0.00000000000E+00  0.00000000000E+00  0.64066512406E+03  0.64066512406E+03  0.00000000000E+00 0. -1.
          1   -1    0    0  501    0 -0.00000000000E+00 -0.00000000000E+00 -0.11145374757E+04  0.11145374757E+04  0.00000000000E+00 0. -1.
         25    2    1    2    0    0 -0.80008614569E+02 -0.14455477887E+02 -0.15718321459E+03  0.21666011339E+03  0.12499881015E+03 0.  0.
          2    1    1    2  501    0  0.91408421611E+02 -0.75239820180E+01 -0.92509625967E+03  0.92963175479E+03  0.00000000000E+00 0. -1.
          1    1    1    2  502    0 -0.11399807042E+02  0.21979459905E+02  0.60840712260E+03  0.60891073162E+03  0.00000000000E+00 0. -1.
         22    1    3    3    0    0 -0.41748110754E+01  0.26778124109E+02  0.96913215141E+01  0.28782263479E+02  0.00000000000E+00 0.  1.
         22    1    3    3    0    0 -0.75833803494E+02 -0.41233601996E+02 -0.16687453611E+03  0.18787784991E+03  0.00000000000E+00 0.  1.
</event>
<event>
 7    1  0.5957303E-006  0.1004892E+03  0.7818608E-02  0.1389936E+00
          2   -1    0    0  502    0  0.00000000000E+00  0.00000000000E+00  0.77999130127E+03  0.77999130127E+03  0.00000000000E+00 0. -1.
          1   -1    0    0  501    0 -0.00000000000E+00 -0.00000000000E+00 -0.91585722740E+02  0.91585722740E+02  0.00000000000E+00 0. -1.
         25    2    1    2    0    0  0.32767022748E+02 -0.63797045320E+02  0.33788400822E+03  0.36733419839E+03  0.12500027809E+03 0.  0.
          2    1    1    2  501    0 -0.68206605314E+02  0.77940425709E+02 -0.40615015007E+02  0.11124940635E+03  0.00000000000E+00 0. -1.
          1    1    1    2  502    0  0.35439582566E+02 -0.14143380389E+02  0.39113658532E+03  0.39299341928E+03  0.00000000000E+00 0. -1.
         22    1    3    3    0    0  0.78402465247E+01 -0.93002551973E+02  0.29667368513E+03  0.31100839151E+03  0.00000000000E+00 0. -1.
         22    1    3    3    0    0  0.24926776223E+02  0.29205506652E+02  0.41210323089E+02  0.56325806881E+02  0.00000000000E+00 0. -1.
</event>
<event>
 7    1  0.5957303E-006  0.2027685E+03  0.7818608E-02  0.1189403E+00
          2   -1    0    0  502    0  0.00000000000E+00  0.00000000000E+00  0.37334669848E+04  0.37334669848E+04  0.00000000000E+00 0. -1.
          1   -1    0    0  501    0 -0.00000000000E+00 -0.00000000000E+00 -0.34916800984E+03  0.34916800984E+03  0.00000000000E+00 0. -1.
         25    2    1    2    0    0 -0.53190416108E+02  0.97784792727E+02  0.31647924326E+03  0.35801251835E+03  0.12499106298E+03 0.  0.
          2    1    1    2  501    0 -0.11907303271E+03  0.38908907001E+02 -0.31275148616E+03  0.33690619207E+03  0.00000000000E+00 0. -1.
          1    1    1    2  502    0  0.17226344882E+03 -0.13669369973E+03  0.33805712178E+04  0.33877162842E+04  0.00000000000E+00 0. -1.
         22    1    3    3    0    0 -0.77557011700E+02  0.76806255535E+02  0.13451729014E+03  0.17323161461E+03  0.00000000000E+00 0.  1.
         22    1    3    3    0    0  0.24366595591E+02  0.20978537192E+02  0.18196195313E+03  0.18478090375E+03  0.00000000000E+00 0.  1.
</event>
<event>
 7    1  0.5957303E-006  0.8839368E+02  0.7818608E-02  0.1426823E+00
          2   -1    0    0  502    0  0.00000000000E+00  0.00000000000E+00  0.70452382798E+03  0.70452382798E+03  0.00000000000E+00 0. -1.
          1   -1    0    0  501    0 -0.00000000000E+00 -0.00000000000E+00 -0.19911461121E+03  0.19911461121E+03  0.00000000000E+00 0. -1.
         25    2    1    2    0    0  0.11571669372E+02 -0.95388568702E+02  0.53111223980E+02  0.16637244433E+03  0.12500442212E+03 0.  0.
          2    1    1    2  501    0  0.19508178074E+02  0.85867425602E+02 -0.12838125785E+03  0.15567765144E+03  0.00000000000E+00 0. -1.
          1    1    1    2  502    0 -0.31079847447E+02  0.95211431003E+01  0.58067925064E+03  0.58158834342E+03  0.00000000000E+00 0. -1.
         22    1    3    3    0    0  0.68023209550E+02 -0.62073567302E+02  0.32622041118E+02  0.97695866656E+02  0.00000000000E+00 0. -1.
         22    1    3    3    0    0 -0.56451540178E+02 -0.33315001400E+02  0.20489182863E+02  0.68676577675E+02  0.00000000000E+00 0. -1.
</event>
<event>
 7    1  0.5957303E-006  0.4072226E+02  0.7818608E-02  0.1531871E+00
          2   -1    0    0  502    0  0.00000000000E+00  0.00000000000E+00  0.17911540173E+04  0.17911540173E+04  0.00000000000E+00 0. -1.
          1   -1    0    0  501    0 -0.00000000000E+00 -0.00000000000E+00 -0.12095158165E+04  0.12095158165E+04  0.00000000000E+00 0. -1.
         25    2    1    2    0    0  0.42492411140E+02  0.48970312514E+02  0.28038970685E+03  0.31376322936E+03  0.12500111951E+03 0.  0.
          2    1    1    2  501    0 -0.10356576919E+02 -0.39362186886E+02 -0.11922935005E+04  0.11929880267E+04  0.00000000000E+00 0. -1.
          1    1    1    2  502    0 -0.32135834220E+02 -0.96081256272E+01  0.14935419944E+04  0.14939185778E+04  0.00000000000E+00 0. -1.
         22    1    3    3    0    0  0.41664117865E+02 -0.34926890836E+02  0.14036504603E+03  0.15052618566E+03  0.00000000000E+00 0. -1.
         22    1    3    3    0    0  0.82829327471E+00  0.83897203349E+02  0.14002466082E+03  0.16323704370E+03  0.00000000000E+00 0. -1.
</event>
<event>
 7    1  0.5957303E-006  0.1189487E+03  0.7818608E-02  0.1384604E+00
          2   -1    0    0  502    0  0.00000000000E+00  0.00000000000E+00  0.21014059940E+04  0.21014059940E+04  0.00000000000E+00 0. -1.
          1   -1    0    0  501    0 -0.00000000000E+00 -0.00000000000E+00 -0.96699915861E+03  0.96699915861E+03  0.00000000000E+00 0. -1.
         25    2    1    2    0    0  0.13425379273E+03 -0.52782856556E+02  0.90262706974E+03  0.92258884112E+03  0.12499772768E+03 0.  0.
          2    1    1    2  501    0 -0.10173634892E+03  0.61450243386E+02 -0.95308823121E+03  0.96047050636E+03  0.00000000000E+00 0. -1.
          1    1    1    2  502    0 -0.32517443802E+02 -0.86673868300E+01  0.11848679969E+04  0.11853458051E+04  0.00000000000E+00 0. -1.
         22    1    3    3    0    0  0.27418586535E+02 -0.73679298618E+02  0.46670118813E+03  0.47327625858E+03  0.00000000000E+00 0. -1.
         22    1    3    3    0    0  0.10683520619E+03  0.20896442062E+02  0.43592588161E+03  0.44931258254E+03  0.00000000000E+00 0. -1.
</event>
<event>
 7    1  0.5957303E-006  0.6791394E+02  0.7818608E-02  0.1430345E+00
          2   -1    0    0  502    0  0.00000000000E+00  0.00000000000E+00  0.50410396704E+03  0.50410396704E+03  0.00000000000E+00 0. -1.
          1   -1    0    0  501    0 -0.00000000000E+00 -0.00000000000E+00 -0.88471377138E+02  0.88471377138E+02  0.00000000000E+00 0. -1.
         25    2    1    2    0    0  0.14705249365E+02  0.32213298131E+02  0.23519089072E+03  0.26868706871E+03  0.12499617945E+03 0.  0.
          2    1    1    2  501    0 -0.53650530645E+02 -0.45628498299E+02 -0.52176558933E+02  0.87651198495E+02  0.00000000000E+00 0. -1.
          1    1    1    2  502    0  0.38945281280E+02  0.13415200169E+02  0.23261825811E+03  0.23623707698E+03  0.00000000000E+00 0. -1.
         22    1    3    3    0    0  0.33163711071E+02  0.44777451031E+02  0.31966024203E+02  0.64239229106E+02  0.00000000000E+00 0.  1.
         22    1    3    3    0    0 -0.18458461706E+02 -0.12564152900E+02  0.20322486652E+03  0.20444783960E+03  0.00000000000E+00 0.  1.
</event>
<event>
 7    1  0.5957303E-006  0.8130841E+02  0.7818608E-02  0.1361925E+00
          2   -1    0    0  502    0  0.00000000000E+00  0.00000000000E+00  0.10488003023E+04  0.10488003023E+04  0.00000000000E+00 0. -1.
          1   -1    0    0  501    0 -0.00000000000E+00 -0.00000000000E+00 -0.35633206381E+02  0.35633206381E+02  0.00000000000E+00 0. -1.
         25    2    1    2    0    0  0.22445186730E+02  0.29340306930E+02  0.64503154716E+03  0.65807019186E+03  0.12500416223E+03 0.  0.
          2    1    1    2  501    0 -0.66222957863E+01 -0.86537057703E+02  0.44883643128E+02  0.97709050644E+02  0.00000000000E+00 0. -1.
          1    1    1    2  502    0 -0.15822890943E+02  0.57196750773E+02  0.32325190561E+03  0.32865426614E+03  0.00000000000E+00 0. -1.
         22    1    3    3    0    0  0.66261100877E+02 -0.92433239159E+01  0.25215896484E+03  0.26088333806E+03  0.00000000000E+00 0.  1.
         22    1    3    3    0    0 -0.43815914148E+02  0.38583630846E+02  0.39287258231E+03  0.39718685380E+03  0.00000000000E+00 0.  1.
</event>
<event>
 7    1  0.5957303E-006  0.8288146E+02  0.7818608E-02  0.1379515E+00
          2   -1    0    0  502    0  0.00000000000E+00  0.00000000000E+00  0.80748637561E+03  0.80748637561E+03  0.00000000000E+00 0. -1.
          1   -1    0    0  501    0 -0.00000000000E+00 -0.00000000000E+00 -0.64802167832E+02  0.64802167832E+02  0.00000000000E+00 0. -1.
         25    2    1    2    0    0 -0.67438000922E+02 -0.65949607927E+01  0.12616265663E+03  0.19009004546E+03  0.12500332787E+03 0.  0.
          2    1    1    2  501    0  0.73527270711E+02  0.56563067713E+02  0.36013205651E+02  0.99511763870E+02  0.00000000000E+00 0. -1.
          1    1    1    2  502    0 -0.60892697886E+01 -0.49968106920E+02  0.58050834550E+03  0.58268673411E+03  0.00000000000E+00 0. -1.
         22    1    3    3    0    0 -0.83209562396E+02 -0.23086327518E+02  0.13920005462E+03  0.16380923356E+03  0.00000000000E+00 0.  1.
         22    1    3    3    0    0  0.15771561474E+02  0.16491366726E+02 -0.13037397992E+02  0.26280811902E+02  0.00000000000E+00 0.  1.
</event>
<event>
 7    1  0.5957303E-006  0.8492325E+02  0.7818608E-02  0.1319565E+00
          2   -1    0    0  502    0  0.00000000000E+00  0.00000000000E+00  0.20269642818E+03  0.20269642818E+03  0.00000000000E+00 0. -1.
          1   -1    0    0  501    0 -0.00000000000E+00 -0.00000000000E+00 -0.32457401209E+03  0.32457401209E+03  0.00000000000E+00 0. -1.
         25    2    1    2    0    0 -0.43805535974E+02 -0.12619413819E+02  0.44886113382E+02  0.14041999521E+03  0.12499934918E+03 0.  0.
          2    1    1    2  501    0 -0.31062883590E+02 -0.75868244597E+02 -0.23736977802E+03  0.25112806452E+03  0.00000000000E+00 0. -1.
          1    1    1    2  502    0  0.74868419564E+02  0.88487658416E+02  0.70606080731E+02  0.13572238053E+03  0.00000000000E+00 0. -1.
         22    1    3    3    0    0 -0.16888899846E+02  0.56022603544E+02  0.12212341053E+02  0.59773809648E+02  0.00000000000E+00 0. -1.
         22    1    3    3    0    0 -0.26916636127E+02 -0.68642017363E+02  0.32673772329E+02  0.80646185566E+02  0.00000000000E+00 0. -1.
</event>
<event>
 7    1  0.5957303E-006  0.6076150E+02  0.7818608E-02  0.1486240E+00
          2   -1    0    0  502    0  0.00000000000E+00  0.00000000000E+00  0.17251753163E+04  0.17251753163E+04  0.00000000000E+00 0. -1.
          1   -1    0    0  501    0 -0.00000000000E+00 -0.00000000000E+00 -0.43654714698E+03  0.43654714698E+03  0.00000000000E+00 0. -1.
         25    2    1    2    0    0 -0.17254335703E+02  0.33076030556E+02  0.80260155683E+02  0.15316225241E+03  0.12500098829E+03 0.  0.
          2    1    1    2  501    0  0.48609183624E+01 -0.61099355656E+02 -0.39760168489E+03  0.40229822224E+03  0.00000000000E+00 0. -1.
          1    1    1    2  502    0  0.12393417341E+02  0.28023325100E+02  0.16059696985E+04  0.16062619887E+04  0.00000000000E+00 0. -1.
         22    1    3    3    0    0 -0.55596034124E+02 -0.24912873459E+02  0.38340959618E+02  0.71983327645E+02  0.00000000000E+00 0. -1.
         22    1    3    3    0    0  0.38341698421E+02  0.57988904015E+02  0.41919196065E+02  0.81178924761E+02  0.00000000000E+00 0. -1.
</event>
<event>
 7    1  0.5957303E-006  0.4535928E+02  0.7818608E-02  0.1485492E+00
          2   -1    0    0  502    0  0.00000000000E+00  0.00000000000E+00  0.79115563207E+03  0.79115563207E+03  0.00000000000E+00 0. -1.
          1   -1    0    0  501    0 -0.00000000000E+00 -0.00000000000E+00 -0.18184828691E+02  0.18184828691E+02  0.00000000000E+00 0. -1.
         25    2    1    2    0    0  0.55377757253E+02  0.14015226288E+02  0.57049763601E+03  0.58681693977E+03  0.12499378201E+03 0.  0.
          2    1    1    2  501    0 -0.32679647803E+02  0.25190980757E+02  0.58475138058E+02  0.71567357524E+02  0.00000000000E+00 0. -1.
          1    1    1    2  502    0 -0.22698109450E+02 -0.39206207045E+02  0.14399802931E+03  0.15095616347E+03  0.00000000000E+00 0. -1.
         22    1    3    3    0    0  0.38452365465E+02  0.85253087732E+01  0.40403864996E+02  0.56424618795E+02  0.00000000000E+00 0. -1.
         22    1    3    3    0    0  0.16925391788E+02  0.54899175148E+01  0.53009377101E+03  0.53039232097E+03  0.00000000000E+00 0. -1.
</event>
<event>
 7    1  0.5957303E-006  0.1055060E+03  0.7818608E-02  0.1327481E+00
          2   -1    0    0  502    0  0.00000000000E+00  0.00000000000E+00  0.14925349344E+04  0.14925349344E+04  0.00000000000E+00 0. -1.
          1   -1    0    0  501    0 -0.00000000000E+00 -0.00000000000E+00 -0.36885596343E+03  0.36885596343E+03  0.00000000000E+00 0. -1.
         25    2    1    2    0    0 -0.15728972699E+03  0.22169219909E+02  0.30625028017E+03  0.36694231981E+03  0.12500359771E+03 0.  0.
          2    1    1    2  501    0  0.60717251559E+02  0.98179885271E+01 -0.33345368069E+03  0.33907865563E+03  0.00000000000E+00 0. -1.
          1    1    1    2  502    0  0.96572475432E+02 -0.31987208436E+02  0.11508823715E+04  0.11553699224E+04  0.00000000000E+00 0. -1.
         22    1    3    3    0    0 -0.42706664919E+02 -0.83165370366E+01  0.57392897879E+01  0.43885800255E+02  0.00000000000E+00 0.  1.
         22    1    3    3    0    0 -0.11458306207E+03  0.30485756945E+02  0.30051099038E+03  0.32305651956E+03  0.00000000000E+00 0.  1.
</event>
<event>
 7    1  0.5957303E-006  0.7838526E+02  0.7818608E-02  0.1468681E+00
          2   -1    0    0  502    0  0.00000000000E+00  0.00000000000E+00  0.31472181777E+02  0.31472181777E+02  0.00000000000E+00 0. -1.
          1   -1    0    0  501    0 -0.00000000000E+00 -0.00000000000E+00 -0.13713893538E+04  0.13713893538E+04  0.00000000000E+00 0. -1.
         25    2    1    2    0    0  0.74858567518E+02  0.17335928857E+01 -0.33616569114E+03  0.36638693027E+03  0.12500080118E+03 0.  0.
          2    1    1    2  501    0 -0.75057954255E+02  0.25166249250E+02 -0.10063407285E+04  0.10094497007E+04  0.00000000000E+00 0. -1.
          1    1    1    2  502    0  0.19938673701E+00 -0.26899842136E+02  0.25892475962E+01  0.27024904535E+02  0.00000000000E+00 0. -1.
         22    1    3    3    0    0  0.69939290222E+02 -0.54181384510E+02 -0.18309706479E+03  0.20335108035E+03  0.00000000000E+00 0.  1.
         22    1    3    3    0    0  0.49192772958E+01  0.55914977396E+02 -0.15306862635E+03  0.16303584992E+03  0.00000000000E+00 0.  1.
</event>
<event>
 7    1  0.5957303E-006  0.1025192E+03  0.7818608E-02  0.1464050E+00
          2   -1    0    0  502    0  0.00000000000E+00  0.00000000000E+00  0.15632521461E+02  0.15632521461E+02  0.00000000000E+00 0. -1.
          1   -1    0    0  501    0 -0.00000000000E+00 -0.00000000000E+00 -0.35595926446E+04  0.35595926446E+04  0.00000000000E+00 0. -1.
         25    2    1    2    0    0 -0.78408287858E+02  0.90678312672E+02 -0.98834614080E+03  0.10034061327E+04  0.12500142868E+03 0.  0.
          2    1    1    2  501    0  0.59692452522E+02 -0.80582323492E+02 -0.25468419857E+04  0.25488155680E+04  0.00000000000E+00 0. -1.
          1    1    1    2  502    0  0.18715835336E+02 -0.10095989180E+02 -0.87719966158E+01  0.23003465271E+02  0.00000000000E+00 0. -1.
         22    1    3    3    0    0 -0.39257621599E+02  0.10084992307E+03 -0.89699544942E+03  0.90350025131E+03  0.00000000000E+00 0.  1.
         22    1    3    3    0    0 -0.39150666259E+02 -0.10171610399E+02 -0.91350691377E+02  0.99905881417E+02  0.00000000000E+00 0.  1.
</event>
<event>
 7    1  0.5957303E-006  0.1498489E+03  0.7818608E-02  0.1304190E+00
          2   -1    0    0  502    0  0.00000000000E+00  0.00000000000E+00  0.86559398770E+03  0.86559398770E+03  0.00000000000E+00 0. -1.
          1   -1    0    0  501    0 -0.00000000000E+00 -0.00000000000E+00 -0.73258922120E+03  0.73258922120E+03  0.00000000000E+00 0. -1.
         25    2    1    2    0    0 -0.89881273523E+02  0.37242868038E+02  0.52195605996E+03  0.54546133408E+03  0.12499705556E+03 0.  0.
          2    1    1    2  501    0  0.13791365778E+03 -0.60565224319E+02 -0.71074381921E+03  0.72652949007E+03  0.00000000000E+00 0. -1.
          1    1    1    2  502    0 -0.48032384254E+02  0.23322356280E+02  0.32179252575E+03  0.32619238475E+03  0.00000000000E+00 0. -1.
         22    1    3    3    0    0 -0.82155137174E+02 -0.18969272406E+02  0.42361882769E+03  0.43192847907E+03  0.00000000000E+00 0. -1.
         22    1    3    3    0    0 -0.77261363486E+01  0.56212140444E+02  0.98337232271E+02  0.11353285501E+03  0.00000000000E+00 0. -1.
</event>
<event>
 7    1  0.5957303E-006  0.8331241E+02  0.7818608E-02  0.1323950E+00
          2   -1    0    0  502    0  0.00000000000E+00  0.00000000000E+00  0.36715010378E+03  0.36715010378E+03  0.00000000000E+00 0. -1.
          1   -1    0    0  501    0 -0.00000000000E+00 -0.00000000000E+00 -0.14792374277E+04  0.14792374277E+04  0.00000000000E+00 0. -1.
         25    2    1    2    0    0  0.58437377056E+02  0.86536821019E+02  0.10943971431E+03  0.19622867507E+03  0.12500037369E+03 0.  0.
          2    1    1    2  501    0 -0.82832098855E+02 -0.99644624210E+01 -0.14270477642E+04  0.14294844415E+04  0.00000000000E+00 0. -1.
          1    1    1    2  502    0  0.24394721800E+02 -0.76572358598E+02  0.20552072602E+03  0.22067441487E+03  0.00000000000E+00 0. -1.
         22    1    3    3    0    0  0.14928988628E+02  0.71582712021E+01 -0.27485641506E+02  0.32087007294E+02  0.00000000000E+00 0. -1.
         22    1    3    3    0    0  0.43508388428E+02  0.79378549817E+02  0.13692535582E+03  0.16414166778E+03  0.00000000000E+00 0. -1.
</event>
<event>
 7    1  0.5957303E-006  0.7548690E+02  0.7818608E-02  0.1387509E+00
          2   -1    0    0  502    0  0.00000000000E+00  0.00000000000E+00  0.76329701981E+03  0.76329701981E+03  0.00000000000E+00 0. -1.
          1   -1    0    0  501    0 -0.00000000000E+00 -0.00000000000E+00 -0.30580207887E+03  0.30580207887E+03  0.00000000000E+00 0. -1.
         25    2    1    2    0    0 -0.59347823550E+02  0.64630238673E+02 -0.93006439529E+02  0.17881302157E+03  0.12499866790E+03 0.  0.
          2    1    1    2  501    0  0.74292889009E+02 -0.15035378247E+02 -0.16044837624E+03  0.17745190164E+03  0.00000000000E+00 0. -1.
          1    1    1    2  502    0 -0.14945065459E+02 -0.49594860426E+02  0.71094975671E+03  0.71283417548E+03  0.00000000000E+00 0. -1.
         22    1    3    3    0    0 -0.16795395153E+02 -0.37555396638E+02 -0.34030053120E+02  0.53390426392E+02  0.00000000000E+00 0.  1.
         22    1    3    3    0    0 -0.42552428397E+02  0.10218563531E+03 -0.58976386409E+02  0.12542259517E+03  0.00000000000E+00 0.  1.
</event>
<event>
 7    1  0.5957303E-006  0.5997960E+02  0.7818608E-02  0.1545593E+00
          2   -1    0    0  502    0  0.00000000000E+00  0.00000000000E+00  0.24647305276E+03  0.24647305276E+03  0.00000000000E+00 0. -1.
          1   -1    0    0  501    0 -0.00000000000E+00 -0.00000000000E+00 -0.18491198718E+03  0.18491198718E+03  0.00000000000E+00 0. -1.
         25    2    1    2    0    0 -0.13007973626E+02  0.45495726245E+02  0.12968818852E+03  0.18625621399E+03  0.12503312570E+03 0.  0.
          2    1    1    2  501    0 -0.15771506836E+02  0.13596934903E+02 -0.14356852882E+03  0.14507080869E+03  0.00000000000E+00 0. -1.
          1    1    1    2  502    0  0.28779480462E+02 -0.59092661147E+02  0.75441405879E+02  0.10005801726E+03  0.00000000000E+00 0. -1.
         22    1    3    3    0    0  0.32242219650E+02 -0.25801843312E+02  0.75097034732E+02  0.85702161418E+02  0.00000000000E+00 0. -1.
         22    1    3    3    0    0 -0.45250193276E+02  0.71297569557E+02  0.54591153792E+02  0.10055405257E+03  0.00000000000E+00 0. -1.
</event>
<event>
 7    1  0.5957303E-006  0.5929140E+02  0.7818608E-02  0.1526849E+00
          2   -1    0    0  502    0  0.00000000000E+00  0.00000000000E+00  0.50590790033E+03  0.50590790033E+03  0.00000000000E+00 0. -1.
          1   -1    0    0  501    0 -0.00000000000E+00 -0.00000000000E+00 -0.19912687538E+03  0.19912687538E+03  0.00000000000E+00 0. -1.
         25    2    1    2    0    0 -0.30990650041E+01  0.69348859226E+02  0.30216524950E+02  0.14614007174E+03  0.12500005483E+03 0.  0.
          2    1    1    2  501    0  0.21824937324E+02 -0.54637453221E+02 -0.13467528160E+03  0.14696601872E+03  0.00000000000E+00 0. -1.
          1    1    1    2  502    0 -0.18725872320E+02 -0.14711406005E+02  0.41123978160E+03  0.41192868525E+03  0.00000000000E+00 0. -1.
         22    1    3    3    0    0  0.34521369408E+02 -0.88525994392E+01 -0.24774553263E+02  0.43403593768E+02  0.00000000000E+00 0. -1.
         22    1    3    3    0    0 -0.37620434412E+02  0.78201458666E+02  0.54991078212E+02  0.10273647797E+03  0.00000000000E+00 0. -1.
</event>
<event>
 7    1  0.5957303E-006  0.6424968E+02  0.7818608E-02  0.1533221E+00
          2   -1    0    0  502    0  0.00000000000E+00  0.00000000000E+00  0.34336259388E+03  0.34336259388E+03  0.00000000000E+00 0. -1.
          1   -1    0    0  501    0 -0.00000000000E+00 -0.00000000000E+00 -0.18759745672E+03  0.18759745672E+03  0.00000000000E+00 0. -1.
         25    2    1    2    0    0  0.32377753621E+02 -0.31453687367E+02  0.40369465990E+02  0.13889666265E+03  0.12499974293E+03 0.  0.
          2    1    1    2  501    0 -0.44352984994E+02  0.48791097885E+02 -0.12999927133E+03  0.14576545906E+03  0.00000000000E+00 0. -1.
          1    1    1    2  502    0  0.11975231373E+02 -0.17337410518E+02  0.24539494250E+03  0.24629792888E+03  0.00000000000E+00 0. -1.
         22    1    3    3    0    0 -0.26964732024E+01 -0.31518324628E+02  0.79968450983E+02  0.85997842460E+02  0.00000000000E+00 0.  1.
         22    1    3    3    0    0  0.35074226823E+02  0.64637261431E-01 -0.39598984993E+02  0.52898820192E+02  0.00000000000E+00 0.  1.
</event>
<event>
 7    1  0.5957303E-006  0.3492101E+02  0.7818608E-02  0.1577235E+00
          2   -1    0    0  502    0  0.00000000000E+00  0.00000000000E+00  0.18602646884E+03  0.18602646884E+03  0.00000000000E+00 0. -1.
          1   -1    0    0  501    0 -0.00000000000E+00 -0.00000000000E+00 -0.33170518770E+03  0.33170518770E+03  0.00000000000E+00 0. -1.
         25    2    1    2    0    0  0.27684821482E+02  0.11712789723E+01  0.47760868755E+02  0.13665313027E+03  0.12500062477E+03 0.  0.
          2    1    1    2  501    0 -0.67354320452E+01  0.28491378931E+02 -0.28296121003E+03  0.28447174043E+03  0.00000000000E+00 0. -1.
          1    1    1    2  502    0 -0.20949389436E+02 -0.29662657903E+02  0.89521622415E+02  0.96606785846E+02  0.00000000000E+00 0. -1.
         22    1    3    3    0    0  0.89462666162E+01  0.15380674362E+02  0.88143774687E+02  0.89921776263E+02  0.00000000000E+00 0.  1.
         22    1    3    3    0    0  0.18738554865E+02 -0.14209395389E+02 -0.40382905932E+02  0.46731354007E+02  0.00000000000E+00 0.  1.
</event>
<event>
 7    1  0.5957303E-006  0.7123179E+02  0.7818608E-02  0.1370421E+00
          2   -1    0    0  502    0  0.00000000000E+00  0.00000000000E+00  0.19395753013E+04  0.19395753013E+04  0.00000000000E+00 0. -1.
          1   -1    0    0  501    0 -0.00000000000E+00 -0.00000000000E+00 -0.70563229607E+02  0.70563229607E+02  0.00000000000E+00 0. -1.
         25    2    1    2    0    0 -0.25862317006E+02 -0.36774179271E+02  0.84335427829E+03  0.85375083750E+03  0.12499141622E+03 0.  0.
          2    1    1    2  501    0  0.72127945661E+02 -0.61551230073E+01 -0.44102961031E+02  0.84766722576E+02  0.00000000000E+00 0. -1.
          1    1    1    2  502    0 -0.46265628655E+02  0.42929302278E+02  0.10697607544E+04  0.10716209708E+04  0.00000000000E+00 0. -1.
         22    1    3    3    0    0  0.19565306709E+01  0.44640053766E+02  0.22043356048E+03  0.22491668902E+03  0.00000000000E+00 0.  1.
         22    1    3    3    0    0 -0.27818847677E+02 -0.81414233037E+02  0.62292071781E+03  0.62883414848E+03  0.00000000000E+00 0.  1.
</event>
<event>
 7    1  0.5957303E-006  0.1311864E+03  0.7818608E-02  0.1392975E+00
          2   -1    0    0  502    0  0.00000000000E+00  0.00000000000E+00  0.32585237976E+03  0.32585237976E+03  0.00000000000E+00 0. -1.
          1   -1    0    0  501    0 -0.00000000000E+00 -0.00000000000E+00 -0.12034188981E+04  0.12034188981E+04  0.00000000000E+00 0. -1.
         25    2    1    2    0    0 -0.27944014442E+01 -0.12678968493E+03 -0.73799989152E+02  0.19275658944E+03  0.12500092595E+03 0.  0.
          2    1    1    2  501    0  0.31297764043E+02  0.12790230126E+03 -0.10653116782E+04  0.10734186137E+04  0.00000000000E+00 0. -1.
          1    1    1    2  502    0 -0.28503362599E+02 -0.11126163289E+01  0.26154514894E+03  0.26309607471E+03  0.00000000000E+00 0. -1.
         22    1    3    3    0    0  0.53513752504E+02 -0.20211301328E+02 -0.29258777058E+02  0.64251804981E+02  0.00000000000E+00 0. -1.
         22    1    3    3    0    0 -0.56308153949E+02 -0.10657838361E+03 -0.44541212094E+02  0.12850478446E+03  0.00000000000E+00 0. -1.
</event>
<event>
 7    1  0.5957303E-006  0.5008238E+02  0.7818608E-02  0.1461172E+00
          2   -1    0    0  502    0  0.00000000000E+00  0.00000000000E+00  0.14793621220E+04  0.14793621220E+04  0.00000000000E+00 0. -1.
          1   -1    0    0  501    0 -0.00000000000E+00 -0.00000000000E+00 -0.75162504959E+02  0.75162504959E+02  0.00000000000E+00 0. -1.
         25    2    1    2    0    0 -0.22532338534E+02 -0.87513179570E+02  0.57572137133E+03  0.59602649260E+03  0.12500487832E+03 0.  0.
          2    1    1    2  501    0  0.24295992926E+02  0.43101657539E+02 -0.54955524794E+02  0.73946993585E+02  0.00000000000E+00 0. -1.
          1    1    1    2  502    0 -0.17636543914E+01  0.44411522031E+02  0.88343377049E+03  0.88455114075E+03  0.00000000000E+00 0. -1.
         22    1    3    3    0    0  0.19697098592E+02  0.48588521960E+01  0.12738718104E+02  0.23955355905E+02  0.00000000000E+00 0.  1.
         22    1    3    3    0    0 -0.42229437126E+02 -0.92372031766E+02  0.56298265322E+03  0.57207113670E+03  0.00000000000E+00 0.  1.
</event>
<event>
 7    1  0.5957303E-006  0.1758520E+03  0.7818608E-02  0.1263741E+00
          2   -1    0    0  502    0  0.00000000000E+00  0.00000000000E+00  0.81540846868E+03  0.81540846868E+03  0.00000000000E+00 0. -1.
          1   -1    0    0  501    0 -0.00000000000E+00 -0.00000000000E+00 -0.77112031631E+03  0.77112031631E+03  0.00000000000E+00 0. -1.
         25    2    1    2    0    0 -0.10022381246E+03 -0.19001862861E+03  0.46722819524E+03  0.52922492111E+03  0.12499975558E+03 0.  0.
          2    1    1    2  501    0  0.10501833447E+02  0.65871688221E+02 -0.71999707305E+03  0.72308032266E+03  0.00000000000E+00 0. -1.
          1    1    1    2  502    0  0.89721979013E+02  0.12414694039E+03  0.29705703017E+03  0.33422354121E+03  0.00000000000E+00 0. -1.
         22    1    3    3    0    0 -0.10427475108E+03 -0.20631657866E+03  0.42545098068E+03  0.48419860730E+03  0.00000000000E+00 0.  1.
         22    1    3    3    0    0  0.40509386194E+01  0.16297950051E+02  0.41777214559E+02  0.45026313816E+02  0.00000000000E+00 0.  1.
</event>
<event>
 7    1  0.5957303E-006  0.5447568E+02  0.7818608E-02  0.1438357E+00
          2   -1    0    0  502    0  0.00000000000E+00  0.00000000000E+00  0.23938897245E+03  0.23938897245E+03  0.00000000000E+00 0. -1.
          1   -1    0    0  501    0 -0.00000000000E+00 -0.00000000000E+00 -0.71811204722E+03  0.71811204722E+03  0.00000000000E+00 0. -1.
         25    2    1    2    0    0  0.75363620572E+01 -0.27380748613E+02 -0.18856498689E+03  0.22800685042E+03  0.12499546955E+03 0.  0.
          2    1    1    2  501    0  0.38115264638E+02  0.43289325956E+02 -0.50550632096E+03  0.50878618266E+03  0.00000000000E+00 0. -1.
          1    1    1    2  502    0 -0.45651626695E+02 -0.15908577343E+02  0.21534823308E+03  0.22070798659E+03  0.00000000000E+00 0. -1.
         22    1    3    3    0    0 -0.47380823558E+02  0.17019340424E+02 -0.42972966482E+02  0.66191209671E+02  0.00000000000E+00 0. -1.
         22    1    3    3    0    0  0.54917185615E+02 -0.44400089036E+02 -0.14559202041E+03  0.16181564075E+03  0.00000000000E+00 0. -1.
</event>
<event>
 7    1  0.6334616E-006  0.7939812E+02  0.7818608E-02  0.1370145E+00
          2   -1    0    0  502    0  0.00000000000E+00  0.00000000000E+00  0.24113682211E+04  0.24113682211E+04  0.00000000000E+00 0. -1.
          1   -1    0    0  501    0 -0.00000000000E+00 -0.00000000000E+00 -0.58796640968E+03  0.58796640968E+03  0.00000000000E+00 0. -1.
         25    2    1    2    0    0 -0.28443532565E+02  0.13116661386E+03 -0.56561062750E+02  0.19193531146E+03  0.12500517922E+03 0.  0.
          2    1    1    2  501    0  0.16627816093E+01 -0.56727932331E+02 -0.46131123549E+03  0.46478906951E+03  0.00000000000E+00 0. -1.
          1    1    1    2  502    0  0.26780750956E+02 -0.74438681528E+02  0.23412741097E+04  0.23426102498E+04  0.00000000000E+00 0. -1.
         22    1    3    3    0    0 -0.15047198438E+02  0.54199778944E+01 -0.63308248945E+02  0.65297233676E+02  0.00000000000E+00 0. -1.
         22    1    3    3    0    0 -0.13396334128E+02  0.12574663596E+03  0.67471861953E+01  0.12663807779E+03  0.00000000000E+00 0. -1.
</event>
<event>
 7    1  0.5957303E-006  0.1367650E+03  0.7818608E-02  0.1383027E+00
          2   -1    0    0  502    0  0.00000000000E+00  0.00000000000E+00  0.15005592547E+04  0.15005592547E+04  0.00000000000E+00 0. -1.
          1   -1    0    0  501    0 -0.00000000000E+00 -0.00000000000E+00 -0.15018627545E+04  0.15018627545E+04  0.00000000000E+00 0. -1.
         25    2    1    2    0    0 -0.14499532953E+03  0.37047566132E+02  0.92625841328E+03  0.94656000966E+03  0.12500014389E+03 0.  0.
          2    1    1    2  501    0  0.17512698391E+02 -0.23920054076E+02 -0.14842837595E+04  0.14845797864E+04  0.00000000000E+00 0. -1.
          1    1    1    2  502    0  0.12748263114E+03 -0.13127512056E+02  0.55672184634E+03  0.57128221311E+03  0.00000000000E+00 0. -1.
         22    1    3    3    0    0 -0.13489299820E+03  0.75857415699E+02  0.72142099909E+03  0.73783380676E+03  0.00000000000E+00 0. -1.
         22    1    3    3    0    0 -0.10102331331E+02 -0.38809849567E+02  0.20483741419E+03  0.20872620289E+03  0.00000000000E+00 0. -1.
</event>
<event>
 7    1  0.5957303E-006  0.6860672E+02  0.7818608E-02  0.1473623E+00
          2   -1    0    0  502    0  0.00000000000E+00  0.00000000000E+00  0.20709989199E+04  0.20709989199E+04  0.00000000000E+00 0. -1.
          1   -1    0    0  501    0 -0.00000000000E+00 -0.00000000000E+00 -0.15701898223E+02  0.15701898223E+02  0.00000000000E+00 0. -1.
         25    2    1    2    0    0 -0.14517081870E+02  0.44422037985E+02  0.57254130752E+03  0.58788742575E+03  0.12499605359E+03 0.  0.
          2    1    1    2  501    0  0.31880951104E+02 -0.68477448370E+02  0.17359558731E+03  0.18931715166E+03  0.00000000000E+00 0. -1.
          1    1    1    2  502    0 -0.17363869234E+02  0.24055410385E+02  0.13091601269E+04  0.13094962407E+04  0.00000000000E+00 0. -1.
         22    1    3    3    0    0  0.32860047289E+02  0.63389086423E+02  0.44192267568E+03  0.44765344885E+03  0.00000000000E+00 0. -1.
         22    1    3    3    0    0 -0.47377129159E+02 -0.18967048437E+02  0.13061863184E+03  0.14023397690E+03  0.00000000000E+00 0. -1.
</event>
<event>
 7    1  0.5957303E-006  0.7846255E+02  0.7818608E-02  0.1472083E+00
          2   -1    0    0  502    0  0.00000000000E+00  0.00000000000E+00  0.31242498689E+03  0.31242498689E+03  0.00000000000E+00 0. -1.
          1   -1    0    0  501    0 -0.00000000000E+00 -0.00000000000E+00 -0.57522597511E+03  0.57522597511E+03  0.00000000000E+00 0. -1.
         25    2    1    2    0    0  0.58954655779E+02 -0.77773221915E+02  0.25030943460E+03  0.29631730177E+03  0.12499921917E+03 0.  0.
          2    1    1    2  501    0 -0.33710887209E+02  0.70657157953E+02 -0.54468759130E+03  0.55028486260E+03  0.00000000000E+00 0. -1.
          1    1    1    2  502    0 -0.25243768570E+02  0.71160639628E+01  0.31577168482E+02  0.41048797635E+02  0.00000000000E+00 0. -1.
         22    1    3    3    0    0  0.54370434228E+02 -0.10804468382E+03  0.15747997956E+03  0.19856923674E+03  0.00000000000E+00 0. -1.
         22    1    3    3    0    0  0.45842215508E+01  0.30271461900E+02  0.92829455042E+02  0.97748065025E+02  0.00000000000E+00 0. -1.
</event>
<event>
 7    1  0.5957303E-006  0.1283443E+03  0.7818608E-02  0.1335357E+00
          2   -1    0    0  502    0  0.00000000000E+00  0.00000000000E+00  0.10787093357E+03  0.10787093357E+03  0.00000000000E+00 0. -1.
          1   -1    0    0  501    0 -0.00000000000E+00 -0.00000000000E+00 -0.31089311489E+03  0.31089311489E+03  0.00000000000E+00 0. -1.
         25    2    1    2    0    0  0.34893625302E+02 -0.12543607144E+03 -0.11363625116E+03  0.21328447611E+03  0.12500118827E+03 0.  0.
          2    1    1    2  501    0  0.12067251882E+02  0.13001894557E+03 -0.89481413592E+02  0.15829550895E+03  0.00000000000E+00 0. -1.
          1    1    1    2  502    0 -0.46960877184E+02 -0.45828741281E+01  0.95483425313E-01  0.47184063393E+02  0.00000000000E+00 0. -1.
         22    1    3    3    0    0 -0.12161508174E+02  0.18790757080E+02 -0.37183228358E+02  0.43400314559E+02  0.00000000000E+00 0. -1.
         22    1    3    3    0    0  0.47055133476E+02 -0.14422682852E+03 -0.76453022797E+02  0.16988416155E+03  0.00000000000E+00 0. -1.
</event>
<event>
 7    1  0.8233813E-006  0.1347358E+03  0.7818608E-02  0.1350863E+00
          2   -1    0    0  502    0  0.00000000000E+00  0.00000000000E+00  0.66559048940E+03  0.66559048940E+03  0.00000000000E+00 0. -1.
          1   -1    0    0  501    0 -0.00000000000E+00 -0.00000000000E+00 -0.15973610222E+04  0.15973610222E+04  0.00000000000E+00 0. -1.
         25    2    1    2    0    0  0.91209295650E+02 -0.12594018896E+03 -0.29891234079E+03  0.35937954164E+03  0.12500000267E+03 0.  0.
          2    1    1    2  501    0  0.10338278661E+02  0.37938159029E+02 -0.12608003650E+04  0.12614133916E+04  0.00000000000E+00 0. -1.
          1    1    1    2  502    0 -0.10154757431E+03  0.88002029926E+02  0.62794217304E+03  0.64215857839E+03  0.00000000000E+00 0. -1.
         22    1    3    3    0    0  0.55028753211E+02 -0.22470458864E+02 -0.25248892675E+02  0.64580119099E+02  0.00000000000E+00 0. -1.
         22    1    3    3    0    0  0.36180542439E+02 -0.10346973009E+03 -0.27366344812E+03  0.29479942255E+03  0.00000000000E+00 0. -1.
</event>
<event>
 7    1  0.5957303E-006  0.8787070E+02  0.7818608E-02  0.1375336E+00
          2   -1    0    0  502    0  0.00000000000E+00  0.00000000000E+00  0.13480633465E+03  0.13480633465E+03  0.00000000000E+00 0. -1.
          1   -1    0    0  501    0 -0.00000000000E+00 -0.00000000000E+00 -0.72757520646E+03  0.72757520646E+03  0.00000000000E+00 0. -1.
         25    2    1    2    0    0 -0.32332955614E+02 -0.59193983180E+02 -0.32602805982E+02  0.14571679995E+03  0.12498437969E+03 0.  0.
          2    1    1    2  501    0  0.78676379253E+02  0.42877863795E+02 -0.62719197153E+03  0.63355998375E+03  0.00000000000E+00 0. -1.
          1    1    1    2  502    0 -0.46343423639E+02  0.16316119385E+02  0.67025905707E+02  0.83104757398E+02  0.00000000000E+00 0. -1.
         22    1    3    3    0    0  0.40472964157E+02 -0.10993445953E+02 -0.40170516632E+02  0.58073979441E+02  0.00000000000E+00 0.  1.
         22    1    3    3    0    0 -0.72805919771E+02 -0.48200537227E+02  0.75677106506E+01  0.87642820511E+02  0.00000000000E+00 0.  1.
</event>
<event>
 7    1  0.5957303E-006  0.3129503E+02  0.7818608E-02  0.1657454E+00
          2   -1    0    0  502    0  0.00000000000E+00  0.00000000000E+00  0.73901796095E+02  0.73901796095E+02  0.00000000000E+00 0. -1.
          1   -1    0    0  501    0 -0.00000000000E+00 -0.00000000000E+00 -0.31776280834E+03  0.31776280834E+03  0.00000000000E+00 0. -1.
         25    2    1    2    0    0 -0.20556543497E+02 -0.46342439141E+02 -0.97439899675E+02  0.16640275404E+03  0.12500059742E+03 0.  0.
          2    1    1    2  501    0  0.68433552688E+01  0.19186840533E+02 -0.17930834143E+03  0.18046176234E+03  0.00000000000E+00 0. -1.
          1    1    1    2  502    0  0.13713188228E+02  0.27155598608E+02  0.32887228865E+02  0.44800088053E+02  0.00000000000E+00 0. -1.
         22    1    3    3    0    0  0.42281896504E+02 -0.56880276719E+02 -0.56839631827E+02  0.90850802957E+02  0.00000000000E+00 0.  1.
         22    1    3    3    0    0 -0.62838440001E+02  0.10537837578E+02 -0.40600267847E+02  0.75551951079E+02  0.00000000000E+00 0.  1.
</event>
<event>
 7    1  0.5957303E-006  0.1334124E+03  0.7818608E-02  0.1259166E+00
          2   -1    0    0  502    0  0.00000000000E+00  0.00000000000E+00  0.76328817066E+02  0.76328817066E+02  0.00000000000E+00 0. -1.
          1   -1    0    0  501    0 -0.00000000000E+00 -0.00000000000E+00 -0.21399838469E+04  0.21399838469E+04  0.00000000000E+00 0. -1.
         25    2    1    2    0    0 -0.16032410421E+03  0.43602536198E+02 -0.85701012212E+03  0.88187244586E+03  0.12501064677E+03 0.  0.
          2    1    1    2  501    0  0.72754444220E+02  0.56238025822E+02 -0.11978200013E+04  0.12013445302E+04  0.00000000000E+00 0. -1.
          1    1    1    2  502    0  0.87569659990E+02 -0.99840562020E+02 -0.88249064445E+01  0.13309568794E+03  0.00000000000E+00 0. -1.
         22    1    3    3    0    0 -0.15600082426E+03 -0.77300307710E+01 -0.62655948619E+03  0.64573431091E+03  0.00000000000E+00 0. -1.
         22    1    3    3    0    0 -0.43232799467E+01  0.51332566969E+02 -0.23045063593E+03  0.23613813496E+03  0.00000000000E+00 0. -1.
</event>
<event>
 7    1  0.5957303E-006  0.2719933E+02  0.7818608E-02  0.1644501E+00
          2   -1    0    0  502    0  0.00000000000E+00  0.00000000000E+00  0.12719497135E+03  0.12719497135E+03  0.00000000000E+00 0. -1.
          1   -1    0    0  501    0 -0.00000000000E+00 -0.00000000000E+00 -0.89337980809E+03  0.89337980809E+03  0.00000000000E+00 0. -1.
         25    2    1    2    0    0  0.10343219054E+02 -0.50457881381E+02 -0.26645739415E+03  0.29879368914E+03  0.12500058320E+03 0.  0.
          2    1    1    2  501    0 -0.61171007375E+00  0.25206953697E+02 -0.60884048613E+03  0.60936237351E+03  0.00000000000E+00 0. -1.
          1    1    1    2  502    0 -0.97315089797E+01  0.25250927684E+02  0.10911304353E+03  0.11241871679E+03  0.00000000000E+00 0. -1.
         22    1    3    3    0    0 -0.42646044540E+02 -0.45851554505E+02 -0.64286079519E+02  0.89742688756E+02  0.00000000000E+00 0. -1.
         22    1    3    3    0    0  0.52989263593E+02 -0.46063268762E+01 -0.20217131463E+03  0.20905100039E+03  0.00000000000E+00 0. -1.
</event>
<event>
 7    1  0.5957303E-006  0.5115553E+02  0.7818608E-02  0.1527647E+00
          2   -1    0    0  502    0  0.00000000000E+00  0.00000000000E+00  0.21915937990E+03  0.21915937990E+03  0.00000000000E+00 0. -1.
          1   -1    0    0  501    0 -0.00000000000E+00 -0.00000000000E+00 -0.24024959340E+03  0.24024959340E+03  0.00000000000E+00 0. -1.
         25    2    1    2    0    0 -0.45821126920E+02  0.30520645006E+02  0.44094833858E+02  0.14352891380E+03  0.12500043712E+03 0.  0.
          2    1    1    2  501    0  0.22710406598E+02  0.15428482647E+02 -0.18419571039E+03  0.18623066442E+03  0.00000000000E+00 0. -1.
          1    1    1    2  502    0  0.23110720322E+02 -0.45949127654E+02  0.11901066304E+03  0.12964939507E+03  0.00000000000E+00 0. -1.
         22    1    3    3    0    0 -0.82404803238E+02  0.28632887732E+02  0.13680414997E+01  0.87248297371E+02  0.00000000000E+00 0.  1.
         22    1    3    3    0    0  0.36583676318E+02  0.18877572740E+01  0.42726792358E+02  0.56280616430E+02  0.00000000000E+00 0.  1.
</event>
<event>
 7    1  0.5957303E-006  0.4982011E+02  0.7818608E-02  0.1469874E+00
          2   -1    0    0  502    0  0.00000000000E+00  0.00000000000E+00  0.23910945389E+03  0.23910945389E+03  0.00000000000E+00 0. -1.
          1   -1    0    0  501    0 -0.00000000000E+00 -0.00000000000E+00 -0.48238954268E+03  0.48238954268E+03  0.00000000000E+00 0. -1.
         25    2    1    2    0    0  0.85910311531E+01 -0.61246445820E+02 -0.91710385558E+02  0.16688647261E+03  0.12496146198E+03 0.  0.
          2    1    1    2  501    0  0.28280694579E+02  0.41210110810E+02 -0.34910721660E+03  0.35266686774E+03  0.00000000000E+00 0. -1.
          1    1    1    2  502    0 -0.36871725732E+02  0.20036335010E+02  0.19753751337E+03  0.20194565622E+03  0.00000000000E+00 0. -1.
         22    1    3    3    0    0  0.49999747551E+02 -0.89114539386E+01  0.31703371262E+01  0.50886538534E+02  0.00000000000E+00 0.  1.
         22    1    3    3    0    0 -0.41408716398E+02 -0.52334991881E+02 -0.94880722684E+02  0.11599993408E+03  0.00000000000E+00 0.  1.
</event>
<event>
 7    1  0.5957303E-006  0.1073342E+03  0.7818608E-02  0.1356148E+00
          2   -1    0    0  502    0  0.00000000000E+00  0.00000000000E+00  0.36550621217E+03  0.36550621217E+03  0.00000000000E+00 0. -1.
          1   -1    0    0  501    0 -0.00000000000E+00 -0.00000000000E+00 -0.75815818848E+03  0.75815818848E+03  0.00000000000E+00 0. -1.
         25    2    1    2    0    0 -0.11644443067E+03 -0.10039136766E+03  0.20841442225E+03  0.28757476797E+03  0.12499977454E+03 0.  0.
          2    1    1    2  501    0  0.81764730726E+02  0.68380467184E+02 -0.70969337656E+03  0.71765315314E+03  0.00000000000E+00 0. -1.
          1    1    1    2  502    0  0.34679699940E+02  0.32010900476E+02  0.10862697800E+03  0.11843647954E+03  0.00000000000E+00 0. -1.
         22    1    3    3    0    0 -0.11071386672E+03 -0.15482667094E+02  0.13416495679E+03  0.17463535980E+03  0.00000000000E+00 0. -1.
         22    1    3    3    0    0 -0.57305639495E+01 -0.84908700565E+02  0.74249465466E+02  0.11293940817E+03  0.00000000000E+00 0. -1.
</event>
<event>
 7    1  0.5957303E-006  0.7452104E+02  0.7818608E-02  0.1373746E+00
          2   -1    0    0  502    0  0.00000000000E+00  0.00000000000E+00  0.27298103882E+04  0.27298103882E+04  0.00000000000E+00 0. -1.
          1   -1    0    0  501    0 -0.00000000000E+00 -0.00000000000E+00 -0.11643031363E+02  0.11643031363E+02  0.00000000000E+00 0. -1.
         25    2    1    2    0    0 -0.11092414194E+03  0.35719391760E+02  0.12784146263E+04  0.12897864635E+04  0.12500049813E+03 0.  0.
          2    1    1    2  501    0  0.52743105646E+02 -0.43476443855E+02  0.21709490778E+03  0.22760104426E+03  0.00000000000E+00 0. -1.
          1    1    1    2  502    0  0.58181036292E+02  0.77570520951E+01  0.12226578227E+04  0.12240659118E+04  0.00000000000E+00 0. -1.
         22    1    3    3    0    0 -0.34433823493E+02  0.68948900292E+02  0.83867494794E+03  0.84220858898E+03  0.00000000000E+00 0. -1.
         22    1    3    3    0    0 -0.76490318445E+02 -0.33229508532E+02  0.43973967835E+03  0.44757787453E+03  0.00000000000E+00 0. -1.
</event>
<event>
 7    1  0.5957303E-006  0.5461794E+02  0.7818608E-02  0.1470480E+00
          2   -1    0    0  502    0  0.00000000000E+00  0.00000000000E+00  0.27657240962E+03  0.27657240962E+03  0.00000000000E+00 0. -1.
          1   -1    0    0  501    0 -0.00000000000E+00 -0.00000000000E+00 -0.15178465635E+04  0.15178465635E+04  0.00000000000E+00 0. -1.
         25    2    1    2    0    0 -0.51682838083E+02 -0.37508056227E+02 -0.50664362393E+03  0.52572895829E+03  0.12500082353E+03 0.  0.
          2    1    1    2  501    0  0.16535124004E+02  0.52244715448E+02 -0.99954603569E+03  0.10010470509E+04  0.00000000000E+00 0. -1.
          1    1    1    2  502    0  0.35147714078E+02 -0.14736659221E+02  0.26491550578E+03  0.26764296391E+03  0.00000000000E+00 0. -1.
         22    1    3    3    0    0 -0.59798914158E+02 -0.12982847235E+02 -0.93286533904E+02  0.11156541518E+03  0.00000000000E+00 0. -1.
         22    1    3    3    0    0  0.81160760752E+01 -0.24525208992E+02 -0.41335709002E+03  0.41416354311E+03  0.00000000000E+00 0. -1.
</event>
<event>
 7    1  0.5957303E-006  0.1389018E+03  0.7818608E-02  0.1295538E+00
          2   -1    0    0  502    0  0.00000000000E+00  0.00000000000E+00  0.48642754334E+03  0.48642754334E+03  0.00000000000E+00 0. -1.
          1   -1    0    0  501    0 -0.00000000000E+00 -0.00000000000E+00 -0.49290154432E+03  0.49290154432E+03  0.00000000000E+00 0. -1.
         25    2    1    2    0    0 -0.16239436180E+03  0.93128182922E+02  0.12645716335E+03  0.25819182057E+03  0.12500725918E+03 0.  0.
          2    1    1    2  501    0  0.13056235756E+03 -0.39473161888E+02 -0.41261726998E+03  0.43457757789E+03  0.00000000000E+00 0. -1.
          1    1    1    2  502    0  0.31832004240E+02 -0.53655021034E+02  0.27968610565E+03  0.28655968920E+03  0.00000000000E+00 0. -1.
         22    1    3    3    0    0 -0.13270548202E+03  0.55407814531E+02  0.25017906491E+02  0.14596803251E+03  0.00000000000E+00 0. -1.
         22    1    3    3    0    0 -0.29688879781E+02  0.37720368391E+02  0.10143925686E+03  0.11222378806E+03  0.00000000000E+00 0. -1.
</event>
<event>
 7    1  0.5957303E-006  0.5280902E+02  0.7818608E-02  0.1495310E+00
          2   -1    0    0  502    0  0.00000000000E+00  0.00000000000E+00  0.19315110463E+04  0.19315110463E+04  0.00000000000E+00 0. -1.
          1   -1    0    0  501    0 -0.00000000000E+00 -0.00000000000E+00 -0.25916467226E+03  0.25916467226E+03  0.00000000000E+00 0. -1.
         25    2    1    2    0    0  0.28002525656E+02  0.92118746993E+01 -0.79131533570E+02  0.15086481957E+03  0.12501757517E+03 0.  0.
          2    1    1    2  501    0 -0.40684049197E+02 -0.39785557291E+02 -0.13840075217E+03  0.14964240919E+03  0.00000000000E+00 0. -1.
          1    1    1    2  502    0  0.12681523541E+02  0.30573682592E+02  0.18898786598E+04  0.18901684898E+04  0.00000000000E+00 0. -1.
         22    1    3    3    0    0 -0.47077534953E+02  0.22401479367E+02 -0.29522790272E+02  0.59914236376E+02  0.00000000000E+00 0. -1.
         22    1    3    3    0    0  0.75080060609E+02 -0.13189604668E+02 -0.49608743298E+02  0.90950583197E+02  0.00000000000E+00 0. -1.
</event>
<event>
 7    1  0.5957303E-006  0.6274587E+02  0.7818608E-02  0.1399853E+00
          2   -1    0    0  502    0  0.00000000000E+00  0.00000000000E+00  0.21373517448E+04  0.21373517448E+04  0.00000000000E+00 0. -1.
          1   -1    0    0  501    0 -0.00000000000E+00 -0.00000000000E+00 -0.30818914274E+03  0.30818914274E+03  0.00000000000E+00 0. -1.
         25    2    1    2    0    0  0.10393639337E+02 -0.29748791952E+02 -0.87138247545E+01  0.12917060730E+03  0.12496438168E+03 0.  0.
          2    1    1    2  501    0  0.41739187913E+02  0.51431301493E+02 -0.23427046687E+03  0.24345428776E+03  0.00000000000E+00 0. -1.
          1    1    1    2  502    0 -0.52132827251E+02 -0.21682509541E+02  0.20721468936E+04  0.20729159924E+04  0.00000000000E+00 0. -1.
         22    1    3    3    0    0  0.10184131476E+02 -0.46526816329E+02  0.49436916874E+02  0.68647432011E+02  0.00000000000E+00 0.  1.
         22    1    3    3    0    0  0.20950786161E+00  0.16778024377E+02 -0.58150741629E+02  0.60523175293E+02  0.00000000000E+00 0.  1.
</event>
<event>
 7    1  0.5957303E-006  0.3304985E+02  0.7818608E-02  0.1630576E+00
          2   -1    0    0  502    0  0.00000000000E+00  0.00000000000E+00  0.31867097117E+03  0.31867097117E+03  0.00000000000E+00 0. -1.
          1   -1    0    0  501    0 -0.00000000000E+00 -0.00000000000E+00 -0.12417078980E+03  0.12417078980E+03  0.00000000000E+00 0. -1.
         25    2    1    2    0    0 -0.27566740930E+00 -0.26568884298E+02 -0.15713136145E+02  0.12875633887E+03  0.12500124218E+03 0.  0.
          2    1    1    2  501    0  0.22407328308E+02  0.17594585847E+01 -0.48389253426E+02  0.53354511557E+02  0.00000000000E+00 0. -1.
          1    1    1    2  502    0 -0.22131660898E+02  0.24809425714E+02  0.25860257094E+03  0.26073091054E+03  0.00000000000E+00 0. -1.
         22    1    3    3    0    0 -0.14089073245E+02 -0.71115506943E+02 -0.32148527162E+02  0.79306021911E+02  0.00000000000E+00 0.  1.
         22    1    3    3    0    0  0.13813405836E+02  0.44546622645E+02  0.16435391017E+02  0.49450316963E+02  0.00000000000E+00 0.  1.
</event>
<event>
 7    1  0.5957303E-006  0.6099672E+02  0.7818608E-02  0.1399066E+00
          2   -1    0    0  502    0  0.00000000000E+00  0.00000000000E+00  0.31502544539E+03  0.31502544539E+03  0.00000000000E+00 0. -1.
          1   -1    0    0  501    0 -0.00000000000E+00 -0.00000000000E+00 -0.12660895532E+03  0.12660895532E+03  0.00000000000E+00 0. -1.
         25    2    1    2    0    0 -0.33710450746E+02 -0.17302907424E+02  0.29901307766E+01  0.13064912561E+03  0.12499787216E+03 0.  0.
          2    1    1    2  501    0  0.42912721187E+02 -0.43348570214E+02 -0.42893057210E+02  0.74568187159E+02  0.00000000000E+00 0. -1.
          1    1    1    2  502    0 -0.92022704410E+01  0.60651477639E+02  0.22831941650E+03  0.23641708795E+03  0.00000000000E+00 0. -1.
         22    1    3    3    0    0 -0.73515803425E+01 -0.28092790470E+02  0.60146393168E+02  0.66789514304E+02  0.00000000000E+00 0.  1.
         22    1    3    3    0    0 -0.26358870403E+02  0.10789883046E+02 -0.57156262391E+02  0.63859611302E+02  0.00000000000E+00 0.  1.
</event>
<event>
 7    1  0.5957303E-006  0.1058851E+03  0.7818608E-02  0.1440935E+00
          2   -1    0    0  502    0  0.00000000000E+00  0.00000000000E+00  0.63371253983E+03  0.63371253983E+03  0.00000000000E+00 0. -1.
          1   -1    0    0  501    0 -0.00000000000E+00 -0.00000000000E+00 -0.19710551810E+03  0.19710551810E+03  0.00000000000E+00 0. -1.
         25    2    1    2    0    0  0.11308256612E+03 -0.58602274277E+02 -0.25777069693E+02  0.18030933998E+03  0.12500042980E+03 0.  0.
          2    1    1    2  501    0 -0.24223697048E+02  0.29057418407E+01 -0.87436258638E+02  0.90776264293E+02  0.00000000000E+00 0. -1.
          1    1    1    2  502    0 -0.88858869075E+02  0.55696532436E+02  0.54982035006E+03  0.55973245366E+03  0.00000000000E+00 0. -1.
         22    1    3    3    0    0  0.11103991170E+03 -0.24473744258E+02  0.27520688498E+02  0.11698809531E+03  0.00000000000E+00 0. -1.
         22    1    3    3    0    0  0.20426544185E+01 -0.34128530019E+02 -0.53297758190E+02  0.63321244669E+02  0.00000000000E+00 0. -1.
</event>
<event>
 7    1  0.5957303E-006  0.5275820E+03  0.7818608E-02  0.1089653E+00
          2   -1    0    0  502    0  0.00000000000E+00  0.00000000000E+00  0.11843258059E+04  0.11843258059E+04  0.00000000000E+00 0. -1.
          1   -1    0    0  501    0 -0.00000000000E+00 -0.00000000000E+00 -0.11280614062E+04  0.11280614062E+04  0.00000000000E+00 0. -1.
         25    2    1    2    0    0  0.49488868075E+03  0.36786695207E+03 -0.18415298846E+03  0.65557443935E+03  0.12499848645E+03 0.  0.
          2    1    1    2  501    0 -0.44899707724E+03 -0.21367176496E+03 -0.61245761014E+03  0.78889690247E+03  0.00000000000E+00 0. -1.
          1    1    1    2  502    0 -0.45891603509E+02 -0.15419518711E+03  0.85287499836E+03  0.86791587025E+03  0.00000000000E+00 0. -1.
         22    1    3    3    0    0  0.37887094808E+03  0.31944485235E+03 -0.10365281793E+03  0.50629251985E+03  0.00000000000E+00 0. -1.
         22    1    3    3    0    0  0.11601773267E+03  0.48422099721E+02 -0.80500170529E+02  0.14928191950E+03  0.00000000000E+00 0. -1.
</event>
<event>
 7    1  0.5957303E-006  0.7755496E+02  0.7818608E-02  0.1338622E+00
          2   -1    0    0  502    0  0.00000000000E+00  0.00000000000E+00  0.25849394175E+04  0.25849394175E+04  0.00000000000E+00 0. -1.
          1   -1    0    0  501    0 -0.00000000000E+00 -0.00000000000E+00 -0.20302008316E+03  0.20302008316E+03  0.00000000000E+00 0. -1.
         25    2    1    2    0    0  0.46696558273E+02 -0.56995135854E+02  0.51292451284E+03  0.53305412322E+03  0.12500451327E+03 0.  0.
          2    1    1    2  501    0 -0.75847590375E+02 -0.16183776694E+02 -0.18437651834E+03  0.20002367887E+03  0.00000000000E+00 0. -1.
          1    1    1    2  502    0  0.29151032102E+02  0.73178912548E+02  0.20533713399E+04  0.20548816986E+04  0.00000000000E+00 0. -1.
         22    1    3    3    0    0 -0.27696793031E+01 -0.16928838697E+02  0.99579261698E+00  0.17182790984E+02  0.00000000000E+00 0.  1.
         22    1    3    3    0    0  0.49466237576E+02 -0.40066297158E+02  0.51192872023E+03  0.51587133223E+03  0.00000000000E+00 0.  1.
</event>
<event>
 7    1  0.5957303E-006  0.5247099E+02  0.7818608E-02  0.1492046E+00
          2   -1    0    0  502    0  0.00000000000E+00  0.00000000000E+00  0.66835790870E+03  0.66835790870E+03  0.00000000000E+00 0. -1.
          1   -1    0    0  501    0 -0.00000000000E+00 -0.00000000000E+00 -0.13944649931E+03  0.13944649931E+03  0.00000000000E+00 0. -1.
         25    2    1    2    0    0 -0.71049394448E+02  0.32984880807E+02  0.10121678787E+03  0.17890651829E+03  0.12500674113E+03 0.  0.
          2    1    1    2  501    0  0.33934305415E+02  0.30921171857E+01 -0.96404369964E+02  0.10224920939E+03  0.00000000000E+00 0. -1.
          1    1    1    2  502    0  0.37115089033E+02 -0.36076997993E+02  0.52409899148E+03  0.52664868033E+03  0.00000000000E+00 0. -1.
         22    1    3    3    0    0 -0.10312398753E+03  0.32192847387E+02  0.99346990663E+02  0.14676771028E+03  0.00000000000E+00 0.  1.
         22    1    3    3    0    0  0.32074593087E+02  0.79203341964E+00  0.18697972043E+01  0.32138808009E+02  0.00000000000E+00 0.  1.
</event>
<event>
 7    1  0.5957303E-006  0.8126663E+02  0.7818608E-02  0.1364499E+00
          2   -1    0    0  502    0  0.00000000000E+00  0.00000000000E+00  0.39031093779E+03  0.39031093779E+03  0.00000000000E+00 0. -1.
          1   -1    0    0  501    0 -0.00000000000E+00 -0.00000000000E+00 -0.32025374784E+04  0.32025374784E+04  0.00000000000E+00 0. -1.
         25    2    1    2    0    0  0.68154721301E+02 -0.83598101292E+02  0.59624001157E+02  0.17554192308E+03  0.12500494658E+03 0.  0.
          2    1    1    2  501    0  0.75439086069E+01  0.57619518557E+02 -0.31384323568E+04  0.31389703053E+04  0.00000000000E+00 0. -1.
          1    1    1    2  502    0 -0.75698629908E+02  0.25978582735E+02  0.26658181503E+03  0.27833618780E+03  0.00000000000E+00 0. -1.
         22    1    3    3    0    0  0.84452889357E+01  0.20454055138E+02  0.50610451957E+02  0.55236845711E+02  0.00000000000E+00 0. -1.
         22    1    3    3    0    0  0.59709432365E+02 -0.10405215643E+03  0.90135491996E+01  0.12030507737E+03  0.00000000000E+00 0. -1.
</event>
<event>
 7    1  0.5957303E-006  0.3562648E+02  0.7818608E-02  0.1548247E+00
          2   -1    0    0  502    0  0.00000000000E+00  0.00000000000E+00  0.53519610009E+02  0.53519610009E+02  0.00000000000E+00 0. -1.
          1   -1    0    0  501    0 -0.00000000000E+00 -0.00000000000E+00 -0.17262245534E+04  0.17262245534E+04  0.00000000000E+00 0. -1.
         25    2    1    2    0    0  0.12155878224E+02 -0.82374090659E+01 -0.50972155098E+03  0.52503082929E+03  0.12500276755E+03 0.  0.
          2    1    1    2  501    0 -0.29955999073E+02 -0.21272728824E+02 -0.12020539656E+04  0.12026153280E+04  0.00000000000E+00 0. -1.
          1    1    1    2  502    0  0.17800120849E+02  0.29510137890E+02  0.39070573263E+02  0.52098006062E+02  0.00000000000E+00 0. -1.
         22    1    3    3    0    0  0.36405018964E+01 -0.30947165944E+02 -0.25670961497E+02  0.40372993427E+02  0.00000000000E+00 0. -1.
         22    1    3    3    0    0  0.85153763280E+01  0.22709756878E+02 -0.48405058948E+03  0.48465783587E+03  0.00000000000E+00 0. -1.
</event>
<event>
 7    1  0.5957303E-006  0.1413867E+03  0.7818608E-02  0.1259606E+00
          2   -1    0    0  502    0  0.00000000000E+00  0.00000000000E+00  0.16815502880E+04  0.16815502880E+04  0.00000000000E+00 0. -1.
          1   -1    0    0  501    0 -0.00000000000E+00 -0.00000000000E+00 -0.71486495890E+03  0.71486495890E+03  0.00000000000E+00 0. -1.
         25    2    1    2    0    0  0.24714237833E+02 -0.15214054387E+03 -0.31906040098E+03  0.37574198059E+03  0.12499983144E+03 0.  0.
          2    1    1    2  501    0  0.71545550927E+02  0.48429316754E+02 -0.35930613413E+03  0.36954710471E+03  0.00000000000E+00 0. -1.
          1    1    1    2  502    0 -0.96259788760E+02  0.10371122712E+03  0.16450518642E+04  0.16511261616E+04  0.00000000000E+00 0. -1.
         22    1    3    3    0    0  0.71838548874E+02 -0.12072298852E+03 -0.20677862232E+03  0.24998443093E+03  0.00000000000E+00 0. -1.
         22    1    3    3    0    0 -0.47124311041E+02 -0.31417555352E+02 -0.11228177866E+03  0.12575754966E+03  0.00000000000E+00 0. -1.
</event>
<event>
 7    1  0.5957303E-006  0.7968712E+02  0.7818608E-02  0.1396187E+00
          2   -1    0    0  502    0  0.00000000000E+00  0.00000000000E+00  0.19012001415E+04  0.19012001415E+04  0.00000000000E+00 0. -1.
          1   -1    0    0  501    0 -0.00000000000E+00 -0.00000000000E+00 -0.69468995641E+02  0.69468995641E+02  0.00000000000E+00 0. -1.
         25    2    1    2    0    0  0.51582260512E+02  0.13764857845E+02  0.35384063943E+03  0.37905023760E+03  0.12500273439E+03 0.  0.
          2    1    1    2  501    0  0.27958355200E+02 -0.36240384887E+02 -0.46348777199E+02  0.65140189362E+02  0.00000000000E+00 0. -1.
          1    1    1    2  502    0 -0.79540615712E+02  0.22475527043E+02  0.15242392837E+04  0.15264787102E+04  0.00000000000E+00 0. -1.
         22    1    3    3    0    0  0.73689805610E+02  0.42497850336E+02  0.31339459102E+03  0.32473439056E+03  0.00000000000E+00 0. -1.
         22    1    3    3    0    0 -0.22107545098E+02 -0.28732992491E+02  0.40446048410E+02  0.54315847041E+02  0.00000000000E+00 0. -1.
</event>
<event>
 7    1  0.5957303E-006  0.1482488E+03  0.7818608E-02  0.1265450E+00
          2   -1    0    0  502    0  0.00000000000E+00  0.00000000000E+00  0.74330362016E+03  0.74330362016E+03  0.00000000000E+00 0. -1.
          1   -1    0    0  501    0 -0.00000000000E+00 -0.00000000000E+00 -0.83879755812E+03  0.83879755812E+03  0.00000000000E+00 0. -1.
         25    2    1    2    0    0 -0.13600532992E+03 -0.15332787322E+03 -0.61182402885E+01  0.24014501875E+03  0.12500124277E+03 0.  0.
          2    1    1    2  501    0  0.12334143073E+03  0.76549258984E+02 -0.70583340271E+03  0.72060647372E+03  0.00000000000E+00 0. -1.
          1    1    1    2  502    0  0.12663899191E+02  0.76778614232E+02  0.61645770504E+03  0.62134968581E+03  0.00000000000E+00 0. -1.
         22    1    3    3    0    0 -0.76050917209E+02 -0.36652406694E+02 -0.54323412342E+02  0.10039010934E+03  0.00000000000E+00 0. -1.
         22    1    3    3    0    0 -0.59954412714E+02 -0.11667546652E+03  0.48205172053E+02  0.13975490941E+03  0.00000000000E+00 0. -1.
</event>
<event>
 7    1  0.5957303E-006  0.8454002E+02  0.7818608E-02  0.1388646E+00
          2   -1    0    0  502    0  0.00000000000E+00  0.00000000000E+00  0.17729499741E+04  0.17729499741E+04  0.00000000000E+00 0. -1.
          1   -1    0    0  501    0 -0.00000000000E+00 -0.00000000000E+00 -0.49944521906E+03  0.49944521906E+03  0.00000000000E+00 0. -1.
         25    2    1    2    0    0  0.24409784482E+02 -0.38835405999E+02  0.22889185763E+03  0.26480203482E+03  0.12499843525E+03 0.  0.
          2    1    1    2  501    0 -0.68803107128E+02  0.50217144421E+02 -0.47737523512E+03  0.48491519285E+03  0.00000000000E+00 0. -1.
          1    1    1    2  502    0  0.44393322646E+02 -0.11381738421E+02  0.15219881325E+04  0.15226779655E+04  0.00000000000E+00 0. -1.
         22    1    3    3    0    0 -0.34165055176E+02  0.27525671096E+02  0.89609322058E+02  0.99773464229E+02  0.00000000000E+00 0.  1.
         22    1    3    3    0    0  0.58574839659E+02 -0.66361077096E+02  0.13928253558E+03  0.16502857059E+03  0.00000000000E+00 0.  1.
</event>
<event>
 7    1  0.5957303E-006  0.1885169E+03  0.7818608E-02  0.1207746E+00
          2   -1    0    0  502    0  0.00000000000E+00  0.00000000000E+00  0.72840592626E+03  0.72840592626E+03  0.00000000000E+00 0. -1.
          1   -1    0    0  501    0 -0.00000000000E+00 -0.00000000000E+00 -0.93096125593E+03  0.93096125593E+03  0.00000000000E+00 0. -1.
         25    2    1    2    0    0  0.34538566868E+02 -0.91872340426E+02  0.16268227334E+03  0.22742632956E+03  0.12499509502E+03 0.  0.
          2    1    1    2  501    0 -0.13369175442E+03  0.14030311215E+03 -0.88224925566E+03  0.90328411786E+03  0.00000000000E+00 0. -1.
          1    1    1    2  502    0  0.99153187551E+02 -0.48430771725E+02  0.51701165264E+03  0.52865673477E+03  0.00000000000E+00 0. -1.
         22    1    3    3    0    0  0.25421739887E+01  0.95554676793E+00  0.12055075920E+03  0.12058134707E+03  0.00000000000E+00 0. -1.
         22    1    3    3    0    0  0.31996392879E+02 -0.92827887194E+02  0.42131514140E+02  0.10684498248E+03  0.00000000000E+00 0. -1.
</event>
<event>
 7    1  0.5957303E-006  0.1152257E+03  0.7818608E-02  0.1354775E+00
          2   -1    0    0  502    0  0.00000000000E+00  0.00000000000E+00  0.12291691389E+04  0.12291691389E+04  0.00000000000E+00 0. -1.
          1   -1    0    0  501    0 -0.00000000000E+00 -0.00000000000E+00 -0.11202665510E+04  0.11202665510E+04  0.00000000000E+00 0. -1.
         25    2    1    2    0    0  0.64084987073E+02  0.58247196927E+02  0.72955405766E+02  0.16866122942E+03  0.12499799023E+03 0.  0.
          2    1    1    2  501    0 -0.64824429943E+01  0.44001396830E+02 -0.10688432829E+04  0.10697682499E+04  0.00000000000E+00 0. -1.
          1    1    1    2  502    0 -0.57602544078E+02 -0.10224859376E+03  0.11047904651E+04  0.11110062105E+04  0.00000000000E+00 0. -1.
         22    1    3    3    0    0  0.87323901863E+02  0.29888600512E+02  0.62066282847E+01  0.92505753939E+02  0.00000000000E+00 0.  1.
         22    1    3    3    0    0 -0.23238914790E+02  0.28358596415E+02  0.66748777481E+02  0.76155475486E+02  0.00000000000E+00 0.  1.
</event>
<event>
 7    1  0.5957303E-006  0.4072038E+02  0.7818608E-02  0.1579811E+00
          2   -1    0    0  502    0  0.00000000000E+00  0.00000000000E+00  0.49007499978E+03  0.49007499978E+03  0.00000000000E+00 0. -1.
          1   -1    0    0  501    0 -0.00000000000E+00 -0.00000000000E+00 -0.33961961419E+02  0.33961961419E+02  0.00000000000E+00 0. -1.
         25    2    1    2    0    0  0.71280367911E+01  0.15983511538E+02  0.33540048302E+03  0.35837198836E+03  0.12502286383E+03 0.  0.
          2    1    1    2  501    0 -0.14138156022E+02 -0.39678528999E+02 -0.33254434163E+00  0.42123434155E+02  0.00000000000E+00 0. -1.
          1    1    1    2  502    0  0.70101192312E+01  0.23695017461E+02  0.12104509968E+03  0.12354153868E+03  0.00000000000E+00 0. -1.
         22    1    3    3    0    0  0.48144209170E+02  0.53010934431E+01  0.29779974475E+03  0.30171286755E+03  0.00000000000E+00 0. -1.
         22    1    3    3    0    0 -0.41016172379E+02  0.10682418095E+02  0.37600738271E+02  0.56659120815E+02  0.00000000000E+00 0. -1.
</event>
<event>
 7    1  0.5957303E-006  0.4830098E+02  0.7818608E-02  0.1509793E+00
          2   -1    0    0  502    0  0.00000000000E+00  0.00000000000E+00  0.30000425792E+04  0.30000425792E+04  0.00000000000E+00 0. -1.
          1   -1    0    0  501    0 -0.00000000000E+00 -0.00000000000E+00 -0.11175267803E+03  0.11175267803E+03  0.00000000000E+00 0. -1.
         25    2    1    2    0    0 -0.61682463635E+01 -0.25193056297E+02  0.15820294802E+03  0.20328774501E+03  0.12499998864E+03 0.  0.
          2    1    1    2  501    0  0.26897319323E+02 -0.18722666828E+02 -0.85984102008E+02  0.92017769143E+02  0.00000000000E+00 0. -1.
          1    1    1    2  502    0 -0.20729072959E+02  0.43915723125E+02  0.28160710551E+04  0.28164897431E+04  0.00000000000E+00 0. -1.
         22    1    3    3    0    0 -0.47220385666E+02  0.30496785666E+02  0.90167914502E+02  0.10625474843E+03  0.00000000000E+00 0. -1.
         22    1    3    3    0    0  0.41052139303E+02 -0.55689841962E+02  0.68035033517E+02  0.97032996577E+02  0.00000000000E+00 0. -1.
</event>
<event>
 7    1  0.5957303E-006  0.9514169E+02  0.7818608E-02  0.1323892E+00
          2   -1    0    0  502    0  0.00000000000E+00  0.00000000000E+00  0.26926367224E+04  0.26926367224E+04  0.00000000000E+00 0. -1.
          1   -1    0    0  501    0 -0.00000000000E+00 -0.00000000000E+00 -0.45800675485E+03  0.45800675485E+03  0.00000000000E+00 0. -1.
         25    2    1    2    0    0 -0.12931208239E+03  0.96128843689E+02 -0.12945852522E+03  0.24154911049E+03  0.12499637509E+03 0.  0.
          2    1    1    2  501    0  0.65424521348E+02 -0.26020689782E+02 -0.26708601741E+03  0.27621076190E+03  0.00000000000E+00 0. -1.
          1    1    1    2  502    0  0.63887561039E+02 -0.70108153908E+02  0.26311745102E+04  0.26328836049E+04  0.00000000000E+00 0. -1.
         22    1    3    3    0    0 -0.99571978037E+02  0.11012595365E+03 -0.14287460599E+03  0.20604722156E+03  0.00000000000E+00 0. -1.
         22    1    3    3    0    0 -0.29740104350E+02 -0.13997109963E+02  0.13416080767E+02  0.35501888924E+02  0.00000000000E+00 0. -1.
</event>
<event>
 7    1  0.5957303E-006  0.1744257E+03  0.7818608E-02  0.1397306E+00
          2   -1    0    0  502    0  0.00000000000E+00  0.00000000000E+00  0.54097961089E+02  0.54097961089E+02  0.00000000000E+00 0. -1.
          1   -1    0    0  501    0 -0.00000000000E+00 -0.00000000000E+00 -0.11195764235E+04  0.11195764235E+04  0.00000000000E+00 0. -1.
         25    2    1    2    0    0 -0.77212605231E+02  0.17022485417E+03 -0.53893941445E+03  0.58396754182E+03  0.12499644022E+03 0.  0.
          2    1    1    2  501    0  0.75208698622E+02 -0.14959647923E+03 -0.53975306334E+03  0.56512726384E+03  0.00000000000E+00 0. -1.
          1    1    1    2  502    0  0.20039066089E+01 -0.20628374942E+02  0.13214015426E+02  0.24579578884E+02  0.00000000000E+00 0. -1.
         22    1    3    3    0    0 -0.29282829810E+02  0.16553181514E+02 -0.25796083852E+03  0.26014474077E+03  0.00000000000E+00 0. -1.
         22    1    3    3    0    0 -0.47929775421E+02  0.15367167266E+03 -0.28097857593E+03  0.32382280105E+03  0.00000000000E+00 0. -1.
</event>
<event>
 7    1  0.5957303E-006  0.1488769E+03  0.7818608E-02  0.1259270E+00
          2   -1    0    0  502    0  0.00000000000E+00  0.00000000000E+00  0.38841172087E+03  0.38841172087E+03  0.00000000000E+00 0. -1.
          1   -1    0    0  501    0 -0.00000000000E+00 -0.00000000000E+00 -0.12812261867E+04  0.12812261867E+04  0.00000000000E+00 0. -1.
         25    2    1    2    0    0  0.10914681596E+03 -0.16339265776E+03 -0.36595901827E+03  0.43377435936E+03  0.12499601490E+03 0.  0.
          2    1    1    2  501    0 -0.80172522878E+02  0.18680586517E+02 -0.86395751119E+03  0.86787048508E+03  0.00000000000E+00 0. -1.
          1    1    1    2  502    0 -0.28974293077E+02  0.14471207125E+03  0.33710206362E+03  0.36799306314E+03  0.00000000000E+00 0. -1.
         22    1    3    3    0    0  0.71061205460E+02 -0.65939455857E+01 -0.10495140877E+03  0.12691719049E+03  0.00000000000E+00 0.  1.
         22    1    3    3    0    0  0.38085610495E+02 -0.15679871218E+03 -0.26100760950E+03  0.30685716886E+03  0.00000000000E+00 0.  1.
</event>
<event>
 7    1  0.5957303E-006  0.1240202E+03  0.7818608E-02  0.1240413E+00
          2   -1    0    0  502    0  0.00000000000E+00  0.00000000000E+00  0.97644037280E+02  0.97644037280E+02  0.00000000000E+00 0. -1.
          1   -1    0    0  501    0 -0.00000000000E+00 -0.00000000000E+00 -0.17111130651E+04  0.17111130651E+04  0.00000000000E+00 0. -1.
         25    2    1    2    0    0  0.33342005243E+02  0.58478452735E+02 -0.50493886885E+03  0.52451299919E+03  0.12497682303E+03 0.  0.
          2    1    1    2  501    0  0.22972616559E+02 -0.16366089164E+03 -0.11470317852E+04  0.11588764148E+04  0.00000000000E+00 0. -1.
          1    1    1    2  502    0 -0.56314621802E+02  0.10518243891E+03  0.38501626173E+02  0.12536768843E+03  0.00000000000E+00 0. -1.
         22    1    3    3    0    0  0.18703400874E+02 -0.38104639184E+02 -0.11692928325E+03  0.12439549032E+03  0.00000000000E+00 0. -1.
         22    1    3    3    0    0  0.14638604368E+02  0.96583091919E+02 -0.38800958560E+03  0.40011750887E+03  0.00000000000E+00 0. -1.
</event>
<event>
 7    1  0.5957303E-006  0.1003254E+03  0.7818608E-02  0.1392376E+00
          2   -1    0    0  502    0  0.00000000000E+00  0.00000000000E+00  0.50703990295E+03  0.50703990295E+03  0.00000000000E+00 0. -1.
          1   -1    0    0  501    0 -0.00000000000E+00 -0.00000000000E+00 -0.12995069465E+03  0.12995069465E+03  0.00000000000E+00 0. -1.
         25    2    1    2    0    0 -0.77970307408E+02 -0.47371008168E+02 -0.22042951976E+02  0.15631943727E+03  0.12500597379E+03 0.  0.
          2    1    1    2  501    0  0.16860437907E+02 -0.33472211941E+02 -0.24703737028E+02  0.44888060348E+02  0.00000000000E+00 0. -1.
          1    1    1    2  502    0  0.61109869502E+02  0.80843220109E+02  0.42383589730E+03  0.43578309998E+03  0.00000000000E+00 0. -1.
         22    1    3    3    0    0 -0.80164873647E+02 -0.57238666393E+02  0.30262540124E+02  0.10304607335E+03  0.00000000000E+00 0. -1.
         22    1    3    3    0    0  0.21945662385E+01  0.98676582249E+01 -0.52305492100E+02  0.53273363923E+02  0.00000000000E+00 0. -1.
</event>
<event>
 7    1  0.5957303E-006  0.7708229E+02  0.7818608E-02  0.1443834E+00
          2   -1    0    0  502    0  0.00000000000E+00  0.00000000000E+00  0.19289232251E+03  0.19289232251E+03  0.00000000000E+00 0. -1.
          1   -1    0    0  501    0 -0.00000000000E+00 -0.00000000000E+00 -0.38310750702E+03  0.38310750702E+03  0.00000000000E+00 0. -1.
         25    2    1    2    0    0  0.36638338914E+02 -0.70218184666E+02 -0.19503749567E+02  0.14926869668E+03  0.12501114441E+03 0.  0.
          2    1    1    2  501    0 -0.31979637441E+02 -0.72799567343E+01 -0.28592509418E+03  0.28780002513E+03  0.00000000000E+00 0. -1.
          1    1    1    2  502    0 -0.46587014727E+01  0.77498141400E+02  0.11521365924E+03  0.13893110773E+03  0.00000000000E+00 0. -1.
         22    1    3    3    0    0  0.18636170765E+02 -0.45920942300E+02 -0.72755068442E+02  0.88030334468E+02  0.00000000000E+00 0. -1.
         22    1    3    3    0    0  0.18002168149E+02 -0.24297242365E+02  0.53251318875E+02  0.61238362213E+02  0.00000000000E+00 0. -1.
</event>
<event>
 7    1  0.5957303E-006  0.1844682E+03  0.7818608E-02  0.1221006E+00
          2   -1    0    0  502    0  0.00000000000E+00  0.00000000000E+00  0.88665965232E+03  0.88665965232E+03  0.00000000000E+00 0. -1.
          1   -1    0    0  501    0 -0.00000000000E+00 -0.00000000000E+00 -0.97538545502E+03  0.97538545502E+03  0.00000000000E+00 0. -1.
         25    2    1    2    0    0  0.18209193147E+03 -0.17690986013E+03 -0.85733929945E+01  0.28311333825E+03  0.12500035643E+03 0.  0.
          2    1    1    2  501    0 -0.21405471283E+02  0.95619878183E+02 -0.81574943683E+03  0.82161335128E+03  0.00000000000E+00 0. -1.
          1    1    1    2  502    0 -0.16068646019E+03  0.81289981951E+02  0.73559702713E+03  0.75731841782E+03  0.00000000000E+00 0. -1.
         22    1    3    3    0    0  0.10341028224E+03 -0.17641463710E+02 -0.10774770754E+02  0.10545616815E+03  0.00000000000E+00 0.  1.
         22    1    3    3    0    0  0.78681649230E+02 -0.15926839642E+03  0.22013777595E+01  0.17765717010E+03  0.00000000000E+00 0.  1.
</event>
<event>
 7    1  0.5957303E-006  0.8959243E+02  0.7818608E-02  0.1464518E+00
          2   -1    0    0  502    0  0.00000000000E+00  0.00000000000E+00  0.37739615505E+03  0.37739615505E+03  0.00000000000E+00 0. -1.
          1   -1    0    0  501    0 -0.00000000000E+00 -0.00000000000E+00 -0.67406469479E+03  0.67406469479E+03  0.00000000000E+00 0. -1.
         25    2    1    2    0    0  0.84869859743E+01  0.88503024156E+02  0.22419898758E+03  0.27165188195E+03  0.12499897887E+03 0.  0.
          2    1    1    2  501    0 -0.24204873015E+02  0.15023050935E+01 -0.63395798992E+03  0.63442167821E+03  0.00000000000E+00 0. -1.
          1    1    1    2  502    0  0.15717887040E+02 -0.90005329250E+02  0.11309046261E+03  0.14538728968E+03  0.00000000000E+00 0. -1.
         22    1    3    3    0    0  0.23583507808E+02  0.66707687315E+01  0.17130789267E+03  0.17305223225E+03  0.00000000000E+00 0.  1.
         22    1    3    3    0    0 -0.15096521834E+02  0.81832255425E+02  0.52891094903E+02  0.98599649692E+02  0.00000000000E+00 0.  1.
</event>
<event>
 7    1  0.5957303E-006  0.7942255E+02  0.7818608E-02  0.1392500E+00
          2   -1    0    0  502    0  0.00000000000E+00  0.00000000000E+00  0.11967227214E+03  0.11967227214E+03  0.00000000000E+00 0. -1.
          1   -1    0    0  501    0 -0.00000000000E+00 -0.00000000000E+00 -0.36156752757E+03  0.36156752757E+03  0.00000000000E+00 0. -1.
         25    2    1    2    0    0 -0.52234341721E+02  0.99597762575E+02 -0.22848988200E+03  0.28369489291E+03  0.12500810102E+03 0.  0.
          2    1    1    2  501    0  0.23666743023E+02 -0.61904141967E+02 -0.87424591577E+02  0.10970550000E+03  0.00000000000E+00 0. -1.
          1    1    1    2  502    0  0.28567598697E+02 -0.37693620608E+02  0.74019218158E+02  0.87839406798E+02  0.00000000000E+00 0. -1.
         22    1    3    3    0    0 -0.43985361815E+02  0.64106365703E+02 -0.23424140157E+03  0.24680634593E+03  0.00000000000E+00 0.  1.
         22    1    3    3    0    0 -0.82489799054E+01  0.35491396872E+02  0.57515195696E+01  0.36888546986E+02  0.00000000000E+00 0.  1.
</event>
<event>
 7    1  0.5957303E-006  0.8691301E+02  0.7818608E-02  0.1378994E+00
          2   -1    0    0  502    0  0.00000000000E+00  0.00000000000E+00  0.17348963281E+04  0.17348963281E+04  0.00000000000E+00 0. -1.
          1   -1    0    0  501    0 -0.00000000000E+00 -0.00000000000E+00 -0.36313998242E+03  0.36313998242E+03  0.00000000000E+00 0. -1.
         25    2    1    2    0    0 -0.10105908684E+03  0.65473615438E+02 -0.92108393116E+02  0.19648556527E+03  0.12499155142E+03 0.  0.
          2    1    1    2  501    0  0.79483898538E+02 -0.22364007561E+02 -0.21069525988E+03  0.22629699843E+03  0.00000000000E+00 0. -1.
          1    1    1    2  502    0  0.21575188300E+02 -0.43109607877E+02  0.16745599987E+04  0.16752537468E+04  0.00000000000E+00 0. -1.
         22    1    3    3    0    0 -0.10777848215E+03  0.23594812281E+02 -0.18986395766E+02  0.11195266680E+03  0.00000000000E+00 0. -1.
         22    1    3    3    0    0  0.67193953085E+01  0.41878803157E+02 -0.73121997350E+02  0.84532898469E+02  0.00000000000E+00 0. -1.
</event>
<event>
 7    1  0.5957303E-006  0.7011044E+02  0.7818608E-02  0.1403725E+00
          2   -1    0    0  502    0  0.00000000000E+00  0.00000000000E+00  0.72067246743E+03  0.72067246743E+03  0.00000000000E+00 0. -1.
          1   -1    0    0  501    0 -0.00000000000E+00 -0.00000000000E+00 -0.25465117327E+03  0.25465117327E+03  0.00000000000E+00 0. -1.
         25    2    1    2    0    0  0.33186125886E+02 -0.85564032727E+02  0.15280845113E+03  0.21771014997E+03  0.12499905605E+03 0.  0.
          2    1    1    2  501    0  0.22242690726E+02  0.43671083780E+02 -0.21720448709E+03  0.22266497268E+03  0.00000000000E+00 0. -1.
          1    1    1    2  502    0 -0.55428816612E+02  0.41892948947E+02  0.53041733011E+03  0.53494851805E+03  0.00000000000E+00 0. -1.
         22    1    3    3    0    0  0.92163964956E+01 -0.11508875628E+03  0.10071272469E+03  0.15321036748E+03  0.00000000000E+00 0. -1.
         22    1    3    3    0    0  0.23969729391E+02  0.29524723558E+02  0.52095726437E+02  0.64499782489E+02  0.00000000000E+00 0. -1.
</event>
<event>
 7    1  0.5957303E-006  0.7736892E+02  0.7818608E-02  0.1424208E+00
          2   -1    0    0  502    0  0.00000000000E+00  0.00000000000E+00  0.87139355030E+03  0.87139355030E+03  0.00000000000E+00 0. -1.
          1   -1    0    0  501    0 -0.00000000000E+00 -0.00000000000E+00 -0.40152584874E+03  0.40152584874E+03  0.00000000000E+00 0. -1.
         25    2    1    2    0    0  0.13453576471E+02  0.72347409665E+02 -0.50477866405E+02  0.15358358000E+03  0.12499901857E+03 0.  0.
          2    1    1    2  501    0 -0.37862988304E+02  0.13128162989E+01 -0.29645067020E+03  0.29886172259E+03  0.00000000000E+00 0. -1.
          1    1    1    2  502    0  0.24409411833E+02 -0.73660225964E+02  0.81679623816E+03  0.82047409645E+03  0.00000000000E+00 0. -1.
         22    1    3    3    0    0  0.14342866650E+02  0.10774395126E+03 -0.45476465494E+02  0.11782438530E+03  0.00000000000E+00 0. -1.
         22    1    3    3    0    0 -0.88929017873E+00 -0.35396541600E+02 -0.50014009108E+01  0.35759194696E+02  0.00000000000E+00 0. -1.
</event>
<event>
 7    1  0.5957303E-006  0.6210042E+02  0.7818608E-02  0.1473964E+00
          2   -1    0    0  502    0  0.00000000000E+00  0.00000000000E+00  0.76785630666E+03  0.76785630666E+03  0.00000000000E+00 0. -1.
          1   -1    0    0  501    0 -0.00000000000E+00 -0.00000000000E+00 -0.47680047701E+03  0.47680047701E+03  0.00000000000E+00 0. -1.
         25    2    1    2    0    0 -0.47645513670E+02  0.16540332609E+02  0.33837517174E+03  0.36423344562E+03  0.12499827393E+03 0.  0.
          2    1    1    2  501    0  0.40847312617E+01  0.32440145223E+02 -0.46070968056E+03  0.46186844211E+03  0.00000000000E+00 0. -1.
          1    1    1    2  502    0  0.43560782408E+02 -0.48980477831E+02  0.41339033848E+03  0.41855489595E+03  0.00000000000E+00 0. -1.
         22    1    3    3    0    0 -0.67508612004E+02  0.30984061236E+02  0.33004410779E+03  0.33829947951E+03  0.00000000000E+00 0. -1.
         22    1    3    3    0    0  0.19863098334E+02 -0.14443728627E+02  0.83310639456E+01  0.25933966117E+02  0.00000000000E+00 0. -1.
</event>
<event>
 7    1  0.5957303E-006  0.9765373E+02  0.7818608E-02  0.1305210E+00
          2   -1    0    0  502    0  0.00000000000E+00  0.00000000000E+00  0.19864076284E+04  0.19864076284E+04  0.00000000000E+00 0. -1.
          1   -1    0    0  501    0 -0.00000000000E+00 -0.00000000000E+00 -0.39834077766E+03  0.39834077766E+03  0.00000000000E+00 0. -1.
         25    2    1    2    0    0  0.89805522655E+01  0.23418109133E+02  0.11948749304E+03  0.17473291823E+03  0.12500109426E+03 0.  0.
          2    1    1    2  501    0 -0.81184103974E+02 -0.60510241751E+02 -0.36288841529E+03  0.37674971804E+03  0.00000000000E+00 0. -1.
          1    1    1    2  502    0  0.72203551709E+02  0.37092132618E+02  0.18314677730E+04  0.18332657698E+04  0.00000000000E+00 0. -1.
         22    1    3    3    0    0  0.47719455723E+02 -0.33702560527E+02  0.52255897790E+02  0.78381680860E+02  0.00000000000E+00 0.  1.
         22    1    3    3    0    0 -0.38738903457E+02  0.57120669660E+02  0.67231595246E+02  0.96351237371E+02  0.00000000000E+00 0.  1.
</event>
<event>
 7    1  0.5957303E-006  0.8755994E+02  0.7818608E-02  0.1309339E+00
          2   -1    0    0  502    0  0.00000000000E+00  0.00000000000E+00  0.47061770304E+03  0.47061770304E+03  0.00000000000E+00 0. -1.
          1   -1    0    0  501    0 -0.00000000000E+00 -0.00000000000E+00 -0.30246155683E+03  0.30246155683E+03  0.00000000000E+00 0. -1.
         25    2    1    2    0    0 -0.45401095172E+00  0.79932563935E+01  0.70528102357E+02  0.14374467532E+03  0.12499688071E+03 0.  0.
          2    1    1    2  501    0 -0.55967859665E+02 -0.74950827555E+02 -0.25205663275E+03  0.26885418721E+03  0.00000000000E+00 0. -1.
          1    1    1    2  502    0  0.56421870617E+02  0.66957571162E+02  0.34968467660E+03  0.36048039735E+03  0.00000000000E+00 0. -1.
         22    1    3    3    0    0 -0.11409059110E+01 -0.12713529660E+02  0.10378239818E+03  0.10456443790E+03  0.00000000000E+00 0.  1.
         22    1    3    3    0    0  0.68689495924E+00  0.20706786053E+02 -0.33254295820E+02  0.39180237414E+02  0.00000000000E+00 0.  1.
</event>
<event>
 7    1  0.7844417E-006  0.4890034E+02  0.7818608E-02  0.1459520E+00
          2   -1    0    0  502    0  0.00000000000E+00  0.00000000000E+00  0.22950088110E+04  0.22950088110E+04  0.00000000000E+00 0. -1.
          1   -1    0    0  501    0 -0.00000000000E+00 -0.00000000000E+00 -0.15294458983E+04  0.15294458983E+04  0.00000000000E+00 0. -1.
         25    2    1    2    0    0  0.37124802172E+02 -0.82075728520E+02 -0.44866889779E+02  0.16047497249E+03  0.12499801138E+03 0.  0.
          2    1    1    2  501    0 -0.32427727076E+02  0.36245751973E+02 -0.14261232271E+04  0.14269522665E+04  0.00000000000E+00 0. -1.
          1    1    1    2  502    0 -0.46970750959E+01  0.45829976546E+02  0.22365530295E+04  0.22370274704E+04  0.00000000000E+00 0. -1.
         22    1    3    3    0    0  0.75240902521E+02 -0.46750614514E+02 -0.59228176936E+02  0.10655885844E+03  0.00000000000E+00 0. -1.
         22    1    3    3    0    0 -0.38116100349E+02 -0.35325114006E+02  0.14361287156E+02  0.53916114049E+02  0.00000000000E+00 0. -1.
</event>
<event>
 7    1  0.5957303E-006  0.4186435E+02  0.7818608E-02  0.1550543E+00
          2   -1    0    0  502    0  0.00000000000E+00  0.00000000000E+00  0.36402951758E+02  0.36402951758E+02  0.00000000000E+00 0. -1.
          1   -1    0    0  501    0 -0.00000000000E+00 -0.00000000000E+00 -0.18939107781E+04  0.18939107781E+04  0.00000000000E+00 0. -1.
         25    2    1    2    0    0 -0.32295630421E+02 -0.95973833254E-01 -0.19161955419E+03  0.23105442001E+03  0.12500029802E+03 0.  0.
          2    1    1    2  501    0 -0.10884483954E+01 -0.28877606827E+02 -0.16529478476E+04  0.16532004379E+04  0.00000000000E+00 0. -1.
          1    1    1    2  502    0  0.33384078816E+02  0.28973580660E+02 -0.12940424478E+02  0.46058871896E+02  0.00000000000E+00 0. -1.
         22    1    3    3    0    0 -0.71317986159E+01 -0.49413222421E+02 -0.15931168552E+03  0.16695131699E+03  0.00000000000E+00 0.  1.
         22    1    3    3    0    0 -0.25163831805E+02  0.49317248587E+02 -0.32307868669E+02  0.64103103024E+02  0.00000000000E+00 0.  1.
</event>
<event>
 7    1  0.5957303E-006  0.1366345E+03  0.7818608E-02  0.1278173E+00
          2   -1    0    0  502    0  0.00000000000E+00  0.00000000000E+00  0.15040973338E+04  0.15040973338E+04  0.00000000000E+00 0. -1.
          1   -1    0    0  501    0 -0.00000000000E+00 -0.00000000000E+00 -0.68680872199E+03  0.68680872199E+03  0.00000000000E+00 0. -1.
         25    2    1    2    0    0 -0.72309650700E+02 -0.19812839277E+02  0.87849249828E+02  0.17018867534E+03  0.12500184132E+03 0.  0.
          2    1    1    2  501    0 -0.47037718397E+02 -0.58009173561E+02 -0.63977029860E+03  0.64411462190E+03  0.00000000000E+00 0. -1.
          1    1    1    2  502    0  0.11934736910E+03  0.77822012837E+02  0.13692096605E+04  0.13766027585E+04  0.00000000000E+00 0. -1.
         22    1    3    3    0    0 -0.43381784371E+02  0.11667104943E+01 -0.26185840210E+02  0.50685684923E+02  0.00000000000E+00 0.  1.
         22    1    3    3    0    0 -0.28927866329E+02 -0.20979549771E+02  0.11403509004E+03  0.11950299042E+03  0.00000000000E+00 0.  1.
</event>
<event>
 7    1  0.5957303E-006  0.2330794E+03  0.7818608E-02  0.1294355E+00
          2   -1    0    0  502    0  0.00000000000E+00  0.00000000000E+00  0.16723388997E+04  0.16723388997E+04  0.00000000000E+00 0. -1.
          1   -1    0    0  501    0 -0.00000000000E+00 -0.00000000000E+00 -0.13918640665E+04  0.13918640665E+04  0.00000000000E+00 0. -1.
         25    2    1    2    0    0  0.35347168974E+01  0.25147825408E+03  0.21124117967E+02  0.28164672940E+03  0.12499938128E+03 0.  0.
          2    1    1    2  501    0  0.27514076638E+02 -0.23028946593E+03 -0.12507077781E+04  0.12720299559E+04  0.00000000000E+00 0. -1.
          1    1    1    2  502    0 -0.31048793535E+02 -0.21188788153E+02  0.15100584933E+04  0.15105262810E+04  0.00000000000E+00 0. -1.
         22    1    3    3    0    0  0.79756437600E+00  0.12420643302E+03  0.73123132184E+02  0.14413489020E+03  0.00000000000E+00 0. -1.
         22    1    3    3    0    0  0.27371525214E+01  0.12727182106E+03 -0.51999014217E+02  0.13751183920E+03  0.00000000000E+00 0. -1.
</event>
<event>
 7    1  0.5957303E-006  0.5024543E+02  0.7818608E-02  0.1460361E+00
          2   -1    0    0  502    0  0.00000000000E+00  0.00000000000E+00  0.18792665634E+04  0.18792665634E+04  0.00000000000E+00 0. -1.
          1   -1    0    0  501    0 -0.00000000000E+00 -0.00000000000E+00 -0.22829632430E+02  0.22829632430E+02  0.00000000000E+00 0. -1.
         25    2    1    2    0    0  0.19348438240E+02 -0.26243497344E+02  0.56684733695E+03  0.58138416786E+03  0.12501425525E+03 0.  0.
          2    1    1    2  501    0  0.18744043475E+02  0.49371167969E+02  0.30802358401E+02  0.61136214108E+02  0.00000000000E+00 0. -1.
          1    1    1    2  502    0 -0.38092481715E+02 -0.23127670625E+02  0.12587872357E+04  0.12595758139E+04  0.00000000000E+00 0. -1.
         22    1    3    3    0    0  0.61571897712E+02  0.21706222139E+02  0.29155796996E+03  0.29877802548E+03  0.00000000000E+00 0.  1.
         22    1    3    3    0    0 -0.42223459472E+02 -0.47949719483E+02  0.27528936699E+03  0.28260614237E+03  0.00000000000E+00 0.  1.
</event>
<event>
 7    1  0.5957303E-006  0.3743075E+02  0.7818608E-02  0.1594177E+00
          2   -1    0    0  502    0  0.00000000000E+00  0.00000000000E+00  0.24625246803E+02  0.24625246803E+02  0.00000000000E+00 0. -1.
          1   -1    0    0  501    0 -0.00000000000E+00 -0.00000000000E+00 -0.35366002766E+04  0.35366002766E+04  0.00000000000E+00 0. -1.
         25    2    1    2    0    0 -0.28370953792E+02 -0.51274485566E+02 -0.33078121842E+04  0.33106917972E+04  0.12499898368E+03 0.  0.
          2    1    1    2  501    0  0.19525805255E+02  0.14996086483E+02 -0.21111944570E+03  0.21255013534E+03  0.00000000000E+00 0. -1.
          1    1    1    2  502    0  0.88451485372E+01  0.36278399084E+02  0.69566001082E+01  0.37983590902E+02  0.00000000000E+00 0. -1.
         22    1    3    3    0    0  0.35775752679E+02 -0.22326357773E+02 -0.23168562781E+04  0.23172400359E+04  0.00000000000E+00 0.  1.
         22    1    3    3    0    0 -0.64146706471E+02 -0.28948127793E+02 -0.99095590611E+03  0.99345176124E+03  0.00000000000E+00 0.  1.
</event>
<event>
 7    1  0.5957303E-006  0.1505917E+03  0.7818608E-02  0.1246769E+00
          2   -1    0    0  502    0  0.00000000000E+00  0.00000000000E+00  0.17818839862E+04  0.17818839862E+04  0.00000000000E+00 0. -1.
          1   -1    0    0  501    0 -0.00000000000E+00 -0.00000000000E+00 -0.45574673217E+02  0.45574673217E+02  0.00000000000E+00 0. -1.
         25    2    1    2    0    0  0.84190346325E+02  0.69228174050E+02  0.58442423867E+03  0.60750025229E+03  0.12499724514E+03 0.  0.
          2    1    1    2  501    0 -0.83904018890E+00  0.92146477046E+02  0.53288451890E+02  0.10644874976E+03  0.00000000000E+00 0. -1.
          1    1    1    2  502    0 -0.83351306136E+02 -0.16137465110E+03  0.10985966225E+04  0.11135096574E+04  0.00000000000E+00 0. -1.
         22    1    3    3    0    0  0.13163442746E+02  0.36685224030E+02  0.34491558833E+02  0.52045648404E+02  0.00000000000E+00 0.  1.
         22    1    3    3    0    0  0.71026903578E+02  0.32542950021E+02  0.54993267984E+03  0.55545460389E+03  0.00000000000E+00 0.  1.
</event>
<event>
 7    1  0.5957303E-006  0.1336276E+03  0.7818608E-02  0.1351347E+00
          2   -1    0    0  502    0  0.00000000000E+00  0.00000000000E+00  0.27848988970E+03  0.27848988970E+03  0.00000000000E+00 0. -1.
          1   -1    0    0  501    0 -0.00000000000E+00 -0.00000000000E+00 -0.11650370290E+04  0.11650370290E+04  0.00000000000E+00 0. -1.
         25    2    1    2    0    0  0.16801378686E+02 -0.16847696888E+03 -0.13990705037E+03  0.25271746627E+03  0.12500143858E+03 0.  0.
          2    1    1    2  501    0 -0.20759055773E+02  0.12919143843E+03 -0.96250738384E+03  0.97136081355E+03  0.00000000000E+00 0. -1.
          1    1    1    2  502    0  0.39576770871E+01  0.39285530456E+02  0.21586729489E+03  0.21944863890E+03  0.00000000000E+00 0. -1.
         22    1    3    3    0    0 -0.47690381279E+02 -0.11992008454E+03 -0.95802069664E+02  0.16072720894E+03  0.00000000000E+00 0.  1.
         22    1    3    3    0    0  0.64491759965E+02 -0.48556884339E+02 -0.44104980710E+02  0.91990257330E+02  0.00000000000E+00 0.  1.
</event>
<event>
 7    1  0.5957303E-006  0.1271865E+03  0.7818608E-02  0.1297515E+00
          2   -1    0    0  502    0  0.00000000000E+00  0.00000000000E+00  0.11469033979E+04  0.11469033979E+04  0.00000000000E+00 0. -1.
          1   -1    0    0  501    0 -0.00000000000E+00 -0.00000000000E+00 -0.48402560091E+03  0.48402560091E+03  0.00000000000E+00 0. -1.
         25    2    1    2    0    0 -0.13263239931E+03 -0.47403561333E+02  0.10500510329E+04  0.10668036975E+04  0.12499802534E+03 0.  0.
          2    1    1    2  501    0  0.64956783589E+02 -0.15992300472E+02 -0.44816759554E+03  0.45313279632E+03  0.00000000000E+00 0. -1.
          1    1    1    2  502    0  0.67675615717E+02  0.63395861805E+02  0.60994359609E+02  0.11099250498E+03  0.00000000000E+00 0. -1.
         22    1    3    3    0    0 -0.11882105128E+03  0.74909336807E+00  0.91643020004E+03  0.92410135532E+03  0.00000000000E+00 0.  1.
         22    1    3    3    0    0 -0.13811348030E+02 -0.48152654702E+02  0.13362083288E+03  0.14270234220E+03  0.00000000000E+00 0.  1.
</event>
<event>
 7    1  0.5957303E-006  0.4334548E+02  0.7818608E-02  0.1504355E+00
          2   -1    0    0  502    0  0.00000000000E+00  0.00000000000E+00  0.71969221734E+02  0.71969221734E+02  0.00000000000E+00 0. -1.
          1   -1    0    0  501    0 -0.00000000000E+00 -0.00000000000E+00 -0.39586336528E+03  0.39586336528E+03  0.00000000000E+00 0. -1.
         25    2    1    2    0    0 -0.78919538303E+02  0.10713185787E+01 -0.34348281254E+02  0.15177040201E+03  0.12500003700E+03 0.  0.
          2    1    1    2  501    0  0.41639093916E+02 -0.78700848295E+01 -0.27022163962E+03  0.27352419801E+03  0.00000000000E+00 0. -1.
          1    1    1    2  502    0  0.37280444387E+02  0.67987662508E+01 -0.19324222674E+02  0.42537987002E+02  0.00000000000E+00 0. -1.
         22    1    3    3    0    0 -0.10298896664E+03 -0.11746473190E+02 -0.55203623308E+02  0.11743997151E+03  0.00000000000E+00 0. -1.
         22    1    3    3    0    0  0.24069428333E+02  0.12817791769E+02  0.20855342053E+02  0.34330430499E+02  0.00000000000E+00 0. -1.
</event>
<event>
 7    1  0.5957303E-006  0.5758901E+02  0.7818608E-02  0.1436180E+00
          2   -1    0    0  502    0  0.00000000000E+00  0.00000000000E+00  0.20149991911E+03  0.20149991911E+03  0.00000000000E+00 0. -1.
          1   -1    0    0  501    0 -0.00000000000E+00 -0.00000000000E+00 -0.50381370479E+03  0.50381370479E+03  0.00000000000E+00 0. -1.
         25    2    1    2    0    0 -0.67940649287E+02 -0.75543873259E+02  0.29320163174E+02  0.16372855380E+03  0.12499823498E+03 0.  0.
          2    1    1    2  501    0  0.30673623270E+02  0.47760772982E+02 -0.42950323950E+03  0.43323780460E+03  0.00000000000E+00 0. -1.
          1    1    1    2  502    0  0.37267026018E+02  0.27783100277E+02  0.97869290640E+02  0.10834726549E+03  0.00000000000E+00 0. -1.
         22    1    3    3    0    0  0.34056565155E+02 -0.66191198247E-01  0.89898839844E+01  0.35223174552E+02  0.00000000000E+00 0. -1.
         22    1    3    3    0    0 -0.10199721444E+03 -0.75477682061E+02  0.20330279189E+02  0.12850537925E+03  0.00000000000E+00 0. -1.
</event>
<event>
 7    1  0.5957303E-006  0.1409331E+03  0.7818608E-02  0.1258445E+00
          2   -1    0    0  502    0  0.00000000000E+00  0.00000000000E+00  0.28637254518E+04  0.28637254518E+04  0.00000000000E+00 0. -1.
          1   -1    0    0  501    0 -0.00000000000E+00 -0.00000000000E+00 -0.20459090396E+03  0.20459090396E+03  0.00000000000E+00 0. -1.
         25    2    1    2    0    0 -0.27196033646E+02 -0.53204180221E+02  0.10328410270E+03  0.17280497942E+03  0.12499458390E+03 0.  0.
          2    1    1    2  501    0 -0.12904333662E+02 -0.86714278128E+02 -0.15643359385E+03  0.17932472541E+03  0.00000000000E+00 0. -1.
          1    1    1    2  502    0  0.40100367307E+02  0.13991845835E+03  0.27122840390E+04  0.27161866509E+04  0.00000000000E+00 0. -1.
         22    1    3    3    0    0  0.20083606154E+02 -0.81117144839E+02  0.59606572989E+02  0.10264641234E+03  0.00000000000E+00 0. -1.
         22    1    3    3    0    0 -0.47279639800E+02  0.27912964618E+02  0.43677529709E+02  0.70158567081E+02  0.00000000000E+00 0. -1.
</event>
<event>
 7    1  0.5957303E-006  0.9640537E+02  0.7818608E-02  0.1345351E+00
          2   -1    0    0  502    0  0.00000000000E+00  0.00000000000E+00  0.19798637480E+04  0.19798637480E+04  0.00000000000E+00 0. -1.
          1   -1    0    0  501    0 -0.00000000000E+00 -0.00000000000E+00 -0.24047350223E+04  0.24047350223E+04  0.00000000000E+00 0. -1.
         25    2    1    2    0    0 -0.74175137795E+02 -0.13357339858E+03  0.50103598526E+02  0.20366402067E+03  0.12499943542E+03 0.  0.
          2    1    1    2  501    0  0.23634245139E+02  0.52537921776E+02 -0.23263673744E+04  0.23270805684E+04  0.00000000000E+00 0. -1.
          1    1    1    2  502    0  0.50540892656E+02  0.81035476807E+02  0.18513925016E+04  0.18538541812E+04  0.00000000000E+00 0. -1.
         22    1    3    3    0    0  0.31635289848E+02 -0.60111939786E+02  0.25295924822E+02  0.72485313555E+02  0.00000000000E+00 0.  1.
         22    1    3    3    0    0 -0.10581042764E+03 -0.73461458797E+02  0.24807673704E+02  0.13117870712E+03  0.00000000000E+00 0.  1.
</event>
<event>
 7    1  0.5957303E-006  0.8639021E+02  0.7818608E-02  0.1324454E+00
          2   -1    0    0  502    0  0.00000000000E+00  0.00000000000E+00  0.11841739629E+04  0.11841739629E+04  0.00000000000E+00 0. -1.
          1   -1    0    0  501    0 -0.00000000000E+00 -0.00000000000E+00 -0.20773111554E+03  0.20773111554E+03  0.00000000000E+00 0. -1.
         25    2    1    2    0    0  0.99196113117E+02 -0.11509447504E+03  0.29675065812E+03  0.35605018658E+03  0.12499670086E+03 0.  0.
          2    1    1    2  501    0 -0.31197501769E+02  0.78636892225E+02 -0.16617808955E+03  0.18647306074E+03  0.00000000000E+00 0. -1.
          1    1    1    2  502    0 -0.67998611348E+02  0.36457582817E+02  0.84587027881E+03  0.84938183113E+03  0.00000000000E+00 0. -1.
         22    1    3    3    0    0  0.68944685950E+02 -0.75277145097E+02  0.28764702313E+03  0.30522258798E+03  0.00000000000E+00 0. -1.
         22    1    3    3    0    0  0.30251427167E+02 -0.39817329946E+02  0.91036349860E+01  0.50827598602E+02  0.00000000000E+00 0. -1.
</event>
<event>
 7    1  0.5957303E-006  0.1341816E+03  0.7818608E-02  0.1312638E+00
          2   -1    0    0  502    0  0.00000000000E+00  0.00000000000E+00  0.19060853859E+04  0.19060853859E+04  0.00000000000E+00 0. -1.
          1   -1    0    0  501    0 -0.00000000000E+00 -0.00000000000E+00 -0.24056757905E+03  0.24056757905E+03  0.00000000000E+00 0. -1.
         25    2    1    2    0    0 -0.86430973737E+02 -0.14790329106E+02  0.96034260586E+02  0.18037917924E+03  0.12500000816E+03 0.  0.
          2    1    1    2  501    0  0.14128908858E+03  0.21095039620E+02 -0.17218484511E+03  0.22373025753E+03  0.00000000000E+00 0. -1.
          1    1    1    2  502    0 -0.54858114845E+02 -0.63047105140E+01  0.17416683914E+04  0.17425435282E+04  0.00000000000E+00 0. -1.
         22    1    3    3    0    0  0.27360026353E+02 -0.25334173422E+02  0.14554604686E+02  0.40027839094E+02  0.00000000000E+00 0.  1.
         22    1    3    3    0    0 -0.11379100009E+03  0.10543844316E+02  0.81479655900E+02  0.14035134014E+03  0.00000000000E+00 0.  1.
</event>
<event>
 7    1  0.5957303E-006  0.2672019E+02  0.7818608E-02  0.1674452E+00
          2   -1    0    0  502    0  0.00000000000E+00  0.00000000000E+00  0.14235898114E+04  0.14235898114E+04  0.00000000000E+00 0. -1.
          1   -1    0    0  501    0 -0.00000000000E+00 -0.00000000000E+00 -0.19468433486E+02  0.19468433486E+02  0.00000000000E+00 0. -1.
         25    2    1    2    0    0  0.19596518077E+02 -0.10052238914E+02  0.99091366348E+03  0.99900943672E+03  0.12499958059E+03 0.  0.
          2    1    1    2  501    0 -0.13135775885E+02 -0.17292349338E+02 -0.70663713542E+01  0.22836539971E+02  0.00000000000E+00 0. -1.
          1    1    1    2  502    0 -0.64607421920E+01  0.27344588251E+02  0.42027408574E+03  0.42121226816E+03  0.00000000000E+00 0. -1.
         22    1    3    3    0    0 -0.12432399948E+02 -0.40018794656E+02  0.12213140566E+03  0.12912067512E+03  0.00000000000E+00 0.  1.
         22    1    3    3    0    0  0.32028918025E+02  0.29966555742E+02  0.86878225782E+03  0.86988876160E+03  0.00000000000E+00 0.  1.
</event>
<event>
 7    1  0.5957303E-006  0.3243454E+03  0.7818608E-02  0.1157261E+00
          2   -1    0    0  502    0  0.00000000000E+00  0.00000000000E+00  0.15599175287E+04  0.15599175287E+04  0.00000000000E+00 0. -1.
          1   -1    0    0  501    0 -0.00000000000E+00 -0.00000000000E+00 -0.49912730522E+03  0.49912730522E+03  0.00000000000E+00 0. -1.
         25    2    1    2    0    0  0.18043393961E+03 -0.14447595342E+03  0.38349309311E+02  0.26556588231E+03  0.12499944257E+03 0.  0.
          2    1    1    2  501    0  0.10301697438E+03 -0.46129064084E+02 -0.35593859991E+03  0.37340684845E+03  0.00000000000E+00 0. -1.
          1    1    1    2  502    0 -0.28345091399E+03  0.19060501750E+03  0.13783795141E+04  0.14200721032E+04  0.00000000000E+00 0. -1.
         22    1    3    3    0    0  0.11472490914E+03 -0.10207467669E+03 -0.35931153038E+02  0.15770888420E+03  0.00000000000E+00 0. -1.
         22    1    3    3    0    0  0.65709030467E+02 -0.42401276728E+02  0.74280462349E+02  0.10785699810E+03  0.00000000000E+00 0. -1.
</event>
<event>
 7    1  0.5957303E-006  0.1330734E+03  0.7818608E-02  0.1242284E+00
          2   -1    0    0  502    0  0.00000000000E+00  0.00000000000E+00  0.24249852949E+03  0.24249852949E+03  0.00000000000E+00 0. -1.
          1   -1    0    0  501    0 -0.00000000000E+00 -0.00000000000E+00 -0.12745187846E+04  0.12745187846E+04  0.00000000000E+00 0. -1.
         25    2    1    2    0    0  0.13446662388E+03 -0.17300025531E+03  0.66829229504E+02  0.26096089067E+03  0.12499631703E+03 0.  0.
          2    1    1    2  501    0 -0.11373420787E+03  0.65883551196E+02 -0.11338748509E+04  0.11414676035E+04  0.00000000000E+00 0. -1.
          1    1    1    2  502    0 -0.20732416005E+02  0.10711670411E+03  0.35025366251E+02  0.11458881994E+03  0.00000000000E+00 0. -1.
         22    1    3    3    0    0  0.37368675045E+02 -0.15568740868E+01 -0.23542699151E+02  0.44193895674E+02  0.00000000000E+00 0. -1.
         22    1    3    3    0    0  0.97097948833E+02 -0.17144338122E+03  0.90371928656E+02  0.21676699500E+03  0.00000000000E+00 0. -1.
</event>
<event>
 7    1  0.5957303E-006  0.1195196E+03  0.7818608E-02  0.1355753E+00
          2   -1    0    0  502    0  0.00000000000E+00  0.00000000000E+00  0.43190560486E+03  0.43190560486E+03  0.00000000000E+00 0. -1.
          1   -1    0    0  501    0 -0.00000000000E+00 -0.00000000000E+00 -0.89082766023E+03  0.89082766023E+03  0.00000000000E+00 0. -1.
         25    2    1    2    0    0 -0.15633798713E+02  0.79963094207E+02 -0.32921321599E+02  0.15279965555E+03  0.12500163688E+03 0.  0.
          2    1    1    2  501    0  0.36623992624E+02 -0.11694690645E+03 -0.79202383253E+03  0.80144846813E+03  0.00000000000E+00 0. -1.
          1    1    1    2  502    0 -0.20990193911E+02  0.36983812241E+02  0.36602309876E+03  0.36848514140E+03  0.00000000000E+00 0. -1.
         22    1    3    3    0    0  0.14466981310E+02 -0.30769292393E+02 -0.25408486695E+01  0.34095436858E+02  0.00000000000E+00 0. -1.
         22    1    3    3    0    0 -0.30100780023E+02  0.11073238660E+03 -0.30380472929E+02  0.11870421869E+03  0.00000000000E+00 0. -1.
</event>
<event>
 7    1  0.5957303E-006  0.6579268E+02  0.7818608E-02  0.1392874E+00
          2   -1    0    0  502    0  0.00000000000E+00  0.00000000000E+00  0.15369425672E+04  0.15369425672E+04  0.00000000000E+00 0. -1.
          1   -1    0    0  501    0 -0.00000000000E+00 -0.00000000000E+00 -0.93254674968E+02  0.93254674968E+02  0.00000000000E+00 0. -1.
         25    2    1    2    0    0  0.81422332588E+02 -0.20632332793E+02  0.42694707185E+03  0.45273024190E+03  0.12500232148E+03 0.  0.
          2    1    1    2  501    0 -0.58007621844E+02 -0.31252099188E+02 -0.65982471357E+02  0.93248401713E+02  0.00000000000E+00 0. -1.
          1    1    1    2  502    0 -0.23414710744E+02  0.51884431981E+02  0.10827232918E+04  0.10842185986E+04  0.00000000000E+00 0. -1.
         22    1    3    3    0    0  0.44543623257E+02  0.41584008187E+02  0.30433929879E+03  0.31038004590E+03  0.00000000000E+00 0. -1.
         22    1    3    3    0    0  0.36878709330E+02 -0.62216340979E+02  0.12260777306E+03  0.14235019600E+03  0.00000000000E+00 0. -1.
</event>
<event>
 7    1  0.5957303E-006  0.1630186E+03  0.7818608E-02  0.1236050E+00
          2   -1    0    0  502    0  0.00000000000E+00  0.00000000000E+00  0.20934432646E+04  0.20934432646E+04  0.00000000000E+00 0. -1.
          1   -1    0    0  501    0 -0.00000000000E+00 -0.00000000000E+00 -0.18586554511E+04  0.18586554511E+04  0.00000000000E+00 0. -1.
         25    2    1    2    0    0  0.21865418838E+03 -0.10452696902E+03  0.46257389498E+02  0.27659584943E+03  0.12501990439E+03 0.  0.
          2    1    1    2  501    0 -0.15828380379E+03  0.31316440369E+02 -0.17385832047E+04  0.17460544211E+04  0.00000000000E+00 0. -1.
          1    1    1    2  502    0 -0.60370384588E+02  0.73210528646E+02  0.19271136287E+04  0.19294484452E+04  0.00000000000E+00 0. -1.
         22    1    3    3    0    0  0.17263561338E+03 -0.12976602996E+03  0.17319601341E+02  0.21666159357E+03  0.00000000000E+00 0. -1.
         22    1    3    3    0    0  0.46018574996E+02  0.25239060944E+02  0.28937788158E+02  0.59934255860E+02  0.00000000000E+00 0. -1.
</event>
<event>
 7    1  0.7339732E-006  0.5446155E+02  0.7818608E-02  0.1481702E+00
          2   -1    0    0  502    0  0.00000000000E+00  0.00000000000E+00  0.13791285882E+04  0.13791285882E+04  0.00000000000E+00 0. -1.
          1   -1    0    0  501    0 -0.00000000000E+00 -0.00000000000E+00 -0.11811124334E+04  0.11811124334E+04  0.00000000000E+00 0. -1.
         25    2    1    2    0    0  0.20853163934E+02  0.68631607218E+01 -0.11629020446E+03  0.17213451602E+03  0.12499969013E+03 0.  0.
          2    1    1    2  501    0 -0.44176494490E+02 -0.33351843622E+02 -0.10359305986E+04  0.10374083638E+04  0.00000000000E+00 0. -1.
          1    1    1    2  502    0  0.23323330556E+02  0.26488682900E+02  0.13502369578E+04  0.13506981418E+04  0.00000000000E+00 0. -1.
         22    1    3    3    0    0 -0.52298998268E+02 -0.55789551485E+01 -0.44654070349E+02  0.68994898066E+02  0.00000000000E+00 0. -1.
         22    1    3    3    0    0  0.73152162202E+02  0.12442115870E+02 -0.71636134109E+02  0.10313961796E+03  0.00000000000E+00 0. -1.
</event>
<event>
 7    1  0.5957303E-006  0.9164157E+02  0.7818608E-02  0.1393505E+00
          2   -1    0    0  502    0  0.00000000000E+00  0.00000000000E+00  0.77923694090E+02  0.77923694090E+02  0.00000000000E+00 0. -1.
          1   -1    0    0  501    0 -0.00000000000E+00 -0.00000000000E+00 -0.79547367359E+03  0.79547367359E+03  0.00000000000E+00 0. -1.
         25    2    1    2    0    0 -0.26510063200E+02  0.87454056121E+02 -0.45786477817E+03  0.48333876146E+03  0.12500083142E+03 0.  0.
          2    1    1    2  501    0  0.63508370010E+02 -0.70587202883E+02 -0.31066340749E+03  0.32485014857E+03  0.00000000000E+00 0. -1.
          1    1    1    2  502    0 -0.36998306810E+02 -0.16866853238E+02  0.50978206166E+02  0.65208457648E+02  0.00000000000E+00 0. -1.
         22    1    3    3    0    0 -0.74959507133E+02  0.43085473610E+02 -0.30352141824E+03  0.31559552766E+03  0.00000000000E+00 0. -1.
         22    1    3    3    0    0  0.48449443933E+02  0.44368582511E+02 -0.15434335993E+03  0.16774323380E+03  0.00000000000E+00 0. -1.
</event>
<event>
 7    1  0.5957303E-006  0.6310312E+02  0.7818608E-02  0.1419592E+00
          2   -1    0    0  502    0  0.00000000000E+00  0.00000000000E+00  0.29954117716E+03  0.29954117716E+03  0.00000000000E+00 0. -1.
          1   -1    0    0  501    0 -0.00000000000E+00 -0.00000000000E+00 -0.14538337194E+04  0.14538337194E+04  0.00000000000E+00 0. -1.
         25    2    1    2    0    0 -0.20394874243E+02  0.32225399846E+02  0.14077369742E+03  0.19208552406E+03  0.12500074951E+03 0.  0.
          2    1    1    2  501    0 -0.18562329689E+02 -0.60480207748E+02 -0.14231022214E+04  0.14245077564E+04  0.00000000000E+00 0. -1.
          1    1    1    2  502    0  0.38957203932E+02  0.28254807902E+02  0.12803598167E+03  0.13678161613E+03  0.00000000000E+00 0. -1.
         22    1    3    3    0    0 -0.96998367010E+01  0.65031355623E+02  0.23473048247E+02  0.69815098941E+02  0.00000000000E+00 0.  1.
         22    1    3    3    0    0 -0.10695037542E+02 -0.32805955777E+02  0.11730064917E+03  0.12227042512E+03  0.00000000000E+00 0.  1.
</event>
<event>
 7    1  0.5957303E-006  0.6229083E+02  0.7818608E-02  0.1390023E+00
          2   -1    0    0  502    0  0.00000000000E+00  0.00000000000E+00  0.62034858211E+03  0.62034858211E+03  0.00000000000E+00 0. -1.
          1   -1    0    0  501    0 -0.00000000000E+00 -0.00000000000E+00 -0.21954296984E+03  0.21954296984E+03  0.00000000000E+00 0. -1.
         25    2    1    2    0    0  0.19259954736E+02  0.13154266315E+02  0.69136767573E+02  0.14477376046E+03  0.12504226688E+03 0.  0.
          2    1    1    2  501    0  0.16561471946E+02 -0.63161525823E+02 -0.17393401318E+03  0.18578671006E+03  0.00000000000E+00 0. -1.
          1    1    1    2  502    0 -0.35821426682E+02  0.50007259508E+02  0.50560285788E+03  0.50933108142E+03  0.00000000000E+00 0. -1.
         22    1    3    3    0    0  0.11629354704E+02 -0.27725233753E+02  0.92368892894E+02  0.97138781401E+02  0.00000000000E+00 0. -1.
         22    1    3    3    0    0  0.76306000318E+01  0.40879500068E+02 -0.23232125321E+02  0.47634979055E+02  0.00000000000E+00 0. -1.
</event>
<event>
 7    1  0.5957303E-006  0.6379113E+02  0.7818608E-02  0.1402839E+00
          2   -1    0    0  502    0  0.00000000000E+00  0.00000000000E+00  0.11571102417E+04  0.11571102417E+04  0.00000000000E+00 0. -1.
          1   -1    0    0  501    0 -0.00000000000E+00 -0.00000000000E+00 -0.69290878526E+02  0.69290878526E+02  0.00000000000E+00 0. -1.
         25    2    1    2    0    0  0.47401446283E+02  0.63303818818E+02  0.85336351930E+03  0.86608787238E+03  0.12499854406E+03 0.  0.
          2    1    1    2  501    0  0.14245453043E+02 -0.52337485324E+02 -0.47125756399E+02  0.71853894944E+02  0.00000000000E+00 0. -1.
          1    1    1    2  502    0 -0.61646899325E+02 -0.10966333494E+02  0.28158160031E+03  0.28845935294E+03  0.00000000000E+00 0. -1.
         22    1    3    3    0    0  0.36378965337E+02  0.83391116592E+02  0.82318131403E+03  0.82819380776E+03  0.00000000000E+00 0. -1.
         22    1    3    3    0    0  0.11022480946E+02 -0.20087297774E+02  0.30182205267E+02  0.37894064613E+02  0.00000000000E+00 0. -1.
</event>
<event>
 7    1  0.5957303E-006  0.5698575E+02  0.7818608E-02  0.1454093E+00
          2   -1    0    0  502    0  0.00000000000E+00  0.00000000000E+00  0.49562316591E+03  0.49562316591E+03  0.00000000000E+00 0. -1.
          1   -1    0    0  501    0 -0.00000000000E+00 -0.00000000000E+00 -0.13247629704E+03  0.13247629704E+03  0.00000000000E+00 0. -1.
         25    2    1    2    0    0  0.29863843970E+02  0.44327979492E+01  0.16342599355E+03  0.20795362097E+03  0.12500061693E+03 0.  0.
          2    1    1    2  501    0 -0.37448993531E+02 -0.44857695097E+02 -0.10096723209E+03  0.11665771248E+03  0.00000000000E+00 0. -1.
          1    1    1    2  502    0  0.75851495614E+01  0.40424897147E+02  0.30068810742E+03  0.30348812950E+03  0.00000000000E+00 0. -1.
         22    1    3    3    0    0 -0.24454737466E+02  0.48851929484E+02  0.47239145749E+02  0.72222448656E+02  0.00000000000E+00 0.  1.
         22    1    3    3    0    0  0.54318581436E+02 -0.44419131535E+02  0.11618684780E+03  0.13573117231E+03  0.00000000000E+00 0.  1.
</event>
<event>
 7    1  0.5957303E-006  0.3789943E+02  0.7818608E-02  0.1563783E+00
          2   -1    0    0  502    0  0.00000000000E+00  0.00000000000E+00  0.15989638683E+04  0.15989638683E+04  0.00000000000E+00 0. -1.
          1   -1    0    0  501    0 -0.00000000000E+00 -0.00000000000E+00 -0.32737437836E+03  0.32737437836E+03  0.00000000000E+00 0. -1.
         25    2    1    2    0    0 -0.48960717293E+02  0.40400003867E+02  0.26115129118E+03  0.29640308529E+03  0.12500191974E+03 0.  0.
          2    1    1    2  501    0  0.27803115583E+02 -0.93793915531E+01 -0.30878584019E+03  0.31017685492E+03  0.00000000000E+00 0. -1.
          1    1    1    2  502    0  0.21157601710E+02 -0.31020612314E+02  0.13192240390E+04  0.13197583065E+04  0.00000000000E+00 0. -1.
         22    1    3    3    0    0 -0.46335788252E+02  0.82851610987E+02  0.15140688090E+03  0.17870489165E+03  0.00000000000E+00 0.  1.
         22    1    3    3    0    0 -0.26249290412E+01 -0.42451607120E+02  0.10974441028E+03  0.11769819364E+03  0.00000000000E+00 0.  1.
</event>
<event>
 7    1  0.5957303E-006  0.7215399E+02  0.7818608E-02  0.1369198E+00
          2   -1    0    0  502    0  0.00000000000E+00  0.00000000000E+00  0.10249690449E+03  0.10249690449E+03  0.00000000000E+00 0. -1.
          1   -1    0    0  501    0 -0.00000000000E+00 -0.00000000000E+00 -0.15312437384E+04  0.15312437384E+04  0.00000000000E+00 0. -1.
         25    2    1    2    0    0 -0.64370384712E+02  0.58310266338E+02 -0.47456274873E+02  0.15944234156E+03  0.12500451459E+03 0.  0.
          2    1    1    2  501    0 -0.91348968146E+01 -0.62275596110E+02 -0.13975048567E+04  0.13989215563E+04  0.00000000000E+00 0. -1.
          1    1    1    2  502    0  0.73505281527E+02  0.39653297716E+01  0.16214297596E+02  0.75376745081E+02  0.00000000000E+00 0. -1.
         22    1    3    3    0    0 -0.34162201331E+01  0.58178584235E+02 -0.72950524226E+02  0.93371286852E+02  0.00000000000E+00 0. -1.
         22    1    3    3    0    0 -0.60954164579E+02  0.13168210322E+00  0.25494249353E+02  0.66071054704E+02  0.00000000000E+00 0. -1.
</event>
<event>
 7    1  0.5957303E-006  0.6138352E+02  0.7818608E-02  0.1457368E+00
          2   -1    0    0  502    0  0.00000000000E+00  0.00000000000E+00  0.81835189568E+03  0.81835189568E+03  0.00000000000E+00 0. -1.
          1   -1    0    0  501    0 -0.00000000000E+00 -0.00000000000E+00 -0.41901557021E+03  0.41901557021E+03  0.00000000000E+00 0. -1.
         25    2    1    2    0    0 -0.20919756514E+01  0.46818914393E+02  0.86822079011E+02  0.15924869640E+03  0.12500274714E+03 0.  0.
          2    1    1    2  501    0 -0.37251436034E+02  0.14747475452E+01 -0.38049431551E+03  0.38231631995E+03  0.00000000000E+00 0. -1.
          1    1    1    2  502    0  0.39343411686E+02 -0.48293661938E+02  0.69300856196E+03  0.69580244954E+03  0.00000000000E+00 0. -1.
         22    1    3    3    0    0 -0.68761946131E+01  0.55103046869E+02 -0.14567023541E+02  0.57409284976E+02  0.00000000000E+00 0. -1.
         22    1    3    3    0    0  0.47842189617E+01 -0.82841324766E+01  0.10138910255E+03  0.10183941142E+03  0.00000000000E+00 0. -1.
</event>
<event>
 7    1  0.5957303E-006  0.1398363E+03  0.7818608E-02  0.1276345E+00
          2   -1    0    0  502    0  0.00000000000E+00  0.00000000000E+00  0.87861788207E+03  0.87861788207E+03  0.00000000000E+00 0. -1.
          1   -1    0    0  501    0 -0.00000000000E+00 -0.00000000000E+00 -0.12556824614E+04  0.12556824614E+04  0.00000000000E+00 0. -1.
         25    2    1    2    0    0 -0.42403666203E+02 -0.12431983985E+03 -0.11790544741E+03  0.21628685254E+03  0.12499925826E+03 0.  0.
          2    1    1    2  501    0  0.73094328167E+02 -0.13104218589E+02 -0.10813274844E+04  0.10838743608E+04  0.00000000000E+00 0. -1.
          1    1    1    2  502    0 -0.30690661965E+02  0.13742405843E+03  0.82216835252E+03  0.83413913015E+03  0.00000000000E+00 0. -1.
         22    1    3    3    0    0 -0.40559422839E+02 -0.11805466423E+03 -0.30318732656E+02  0.12845698142E+03  0.00000000000E+00 0.  1.
         22    1    3    3    0    0 -0.18442433632E+01 -0.62651756185E+01 -0.87586714751E+02  0.87829871115E+02  0.00000000000E+00 0.  1.
</event>
<event>
 7    1  0.1514195E-005  0.7691613E+02  0.7818608E-02  0.1449777E+00
          2   -1    0    0  502    0  0.00000000000E+00  0.00000000000E+00  0.24606796732E+04  0.24606796732E+04  0.00000000000E+00 0. -1.
          1   -1    0    0  501    0 -0.00000000000E+00 -0.00000000000E+00 -0.19102905365E+04  0.19102905365E+04  0.00000000000E+00 0. -1.
         25    2    1    2    0    0  0.38504709113E+02 -0.51776323062E+02 -0.22587826815E+03  0.26610307255E+03  0.12500581165E+03 0.  0.
          2    1    1    2  501    0  0.28342490547E+02  0.13641041365E+02 -0.16635444496E+04  0.16638417926E+04  0.00000000000E+00 0. -1.
          1    1    1    2  502    0 -0.66847199660E+02  0.38135281696E+02  0.24398118545E+04  0.24410253446E+04  0.00000000000E+00 0. -1.
         22    1    3    3    0    0 -0.25495445023E+02  0.27097891085E+02 -0.81321459599E+02  0.89428704617E+02  0.00000000000E+00 0. -1.
         22    1    3    3    0    0  0.64000154136E+02 -0.78874214146E+02 -0.14455680855E+03  0.17667436793E+03  0.00000000000E+00 0. -1.
</event>
<event>
 7    1  0.5957303E-006  0.1099302E+03  0.7818608E-02  0.1341053E+00
          2   -1    0    0  502    0  0.00000000000E+00  0.00000000000E+00  0.12771212910E+04  0.12771212910E+04  0.00000000000E+00 0. -1.
          1   -1    0    0  501    0 -0.00000000000E+00 -0.00000000000E+00 -0.64056142377E+03  0.64056142377E+03  0.00000000000E+00 0. -1.
         25    2    1    2    0    0 -0.15058717709E+03 -0.34044714327E+02  0.49655410014E+03  0.53481442455E+03  0.12499981547E+03 0.  0.
          2    1    1    2  501    0  0.51413408034E+02  0.10266778701E+02 -0.61689946841E+03  0.61912333133E+03  0.00000000000E+00 0. -1.
          1    1    1    2  502    0  0.99173769057E+02  0.23777935626E+02  0.75690523547E+03  0.76374495885E+03  0.00000000000E+00 0. -1.
         22    1    3    3    0    0 -0.71342529592E+02 -0.37600741231E+02  0.91070520548E+02  0.12164461345E+03  0.00000000000E+00 0. -1.
         22    1    3    3    0    0 -0.79244647500E+02  0.35560269039E+01  0.40548357959E+03  0.41316981110E+03  0.00000000000E+00 0. -1.
</event>
<event>
 7    1  0.5957303E-006  0.1293192E+03  0.7818608E-02  0.1421591E+00
          2   -1    0    0  502    0  0.00000000000E+00  0.00000000000E+00  0.64407556875E+03  0.64407556875E+03  0.00000000000E+00 0. -1.
          1   -1    0    0  501    0 -0.00000000000E+00 -0.00000000000E+00 -0.25722547732E+03  0.25722547732E+03  0.00000000000E+00 0. -1.
         25    2    1    2    0    0  0.10986358601E+03  0.17410070082E+02  0.15059784745E+03  0.22511423468E+03  0.12499435558E+03 0.  0.
          2    1    1    2  501    0  0.23125194583E+02 -0.31890633231E-01 -0.20946006410E+03  0.21073275516E+03  0.00000000000E+00 0. -1.
          1    1    1    2  502    0 -0.13298878059E+03 -0.17378179449E+02  0.44571230808E+03  0.46545405623E+03  0.00000000000E+00 0. -1.
         22    1    3    3    0    0  0.20568058877E+02  0.62824015931E+02  0.72306156593E+02  0.97969803026E+02  0.00000000000E+00 0.  1.
         22    1    3    3    0    0  0.89295527130E+02 -0.45413945848E+02  0.78291690858E+02  0.12714443165E+03  0.00000000000E+00 0.  1.
</event>
<event>
 7    1  0.5957303E-006  0.5521211E+02  0.7818608E-02  0.1466065E+00
          2   -1    0    0  502    0  0.00000000000E+00  0.00000000000E+00  0.95735270341E+03  0.95735270341E+03  0.00000000000E+00 0. -1.
          1   -1    0    0  501    0 -0.00000000000E+00 -0.00000000000E+00 -0.40943846985E+03  0.40943846985E+03  0.00000000000E+00 0. -1.
         25    2    1    2    0    0  0.34626526986E+02  0.12651876501E+02  0.10051687996E+03  0.16458324427E+03  0.12499973916E+03 0.  0.
          2    1    1    2  501    0 -0.24167177092E+02 -0.50136041936E+02 -0.37489064376E+03  0.37899956455E+03  0.00000000000E+00 0. -1.
          1    1    1    2  502    0 -0.10459349894E+02  0.37484165435E+02  0.82228799736E+03  0.82320836443E+03  0.00000000000E+00 0. -1.
         22    1    3    3    0    0  0.45509018250E+02  0.25037340097E+01  0.12659987167E+03  0.13455432707E+03  0.00000000000E+00 0. -1.
         22    1    3    3    0    0 -0.10882491264E+02  0.10148142492E+02 -0.26082991710E+02  0.30028917208E+02  0.00000000000E+00 0. -1.
</event>
<event>
 7    1  0.5957303E-006  0.1146609E+03  0.7818608E-02  0.1320948E+00
          2   -1    0    0  502    0  0.00000000000E+00  0.00000000000E+00  0.13909442594E+04  0.13909442594E+04  0.00000000000E+00 0. -1.
          1   -1    0    0  501    0 -0.00000000000E+00 -0.00000000000E+00 -0.71688963053E+03  0.71688963053E+03  0.00000000000E+00 0. -1.
         25    2    1    2    0    0  0.17160222835E+03  0.52704805273E+01  0.10839888759E+03  0.23843237897E+03  0.12499831107E+03 0.  0.
          2    1    1    2  501    0 -0.59272106067E+02 -0.91467812924E+01 -0.64789098461E+03  0.65066087488E+03  0.00000000000E+00 0. -1.
          1    1    1    2  502    0 -0.11233012229E+03  0.38763007651E+01  0.12135467259E+04  0.12187406361E+04  0.00000000000E+00 0. -1.
         22    1    3    3    0    0 -0.82717753637E+01  0.29545243523E+02  0.19203363764E+02  0.36195481242E+02  0.00000000000E+00 0.  1.
         22    1    3    3    0    0  0.17987400372E+03 -0.24274762996E+02  0.89195523822E+02  0.20223689773E+03  0.00000000000E+00 0.  1.
</event>
<event>
 7    1  0.5957303E-006  0.6156784E+02  0.7818608E-02  0.1416664E+00
          2   -1    0    0  502    0  0.00000000000E+00  0.00000000000E+00  0.12811031397E+04  0.12811031397E+04  0.00000000000E+00 0. -1.
          1   -1    0    0  501    0 -0.00000000000E+00 -0.00000000000E+00 -0.55066636017E+03  0.55066636017E+03  0.00000000000E+00 0. -1.
         25    2    1    2    0    0 -0.88186291044E+02  0.57357754097E+02  0.61772823722E+02  0.17466435719E+03  0.12500008816E+03 0.  0.
          2    1    1    2  501    0  0.49397067619E+02 -0.10258554515E+02 -0.49212971037E+03  0.49470896500E+03  0.00000000000E+00 0. -1.
          1    1    1    2  502    0  0.38789223425E+02 -0.47099199583E+02  0.11607936662E+04  0.11623961777E+04  0.00000000000E+00 0. -1.
         22    1    3    3    0    0 -0.36511024582E+02 -0.31340372121E+01 -0.34116167571E+02  0.50067853908E+02  0.00000000000E+00 0.  1.
         22    1    3    3    0    0 -0.51675266462E+02  0.60491791309E+02  0.95888991293E+02  0.12459650329E+03  0.00000000000E+00 0.  1.
</event>
<event>
 7    1  0.5957303E-006  0.1270006E+03  0.7818608E-02  0.1279305E+00
          2   -1    0    0  502    0  0.00000000000E+00  0.00000000000E+00  0.16166701208E+04  0.16166701208E+04  0.00000000000E+00 0. -1.
          1   -1    0    0  501    0 -0.00000000000E+00 -0.00000000000E+00 -0.83860066597E+03  0.83860066597E+03  0.00000000000E+00 0. -1.
         25    2    1    2    0    0  0.45382580427E+02  0.55435203406E+02 -0.66024845251E+02  0.15847008000E+03  0.12498338162E+03 0.  0.
          2    1    1    2  501    0  0.77508638970E+02 -0.17619568172E+02 -0.72153526937E+03  0.72590025709E+03  0.00000000000E+00 0. -1.
          1    1    1    2  502    0 -0.12289121940E+03 -0.37815635234E+02  0.15656295695E+04  0.15709004497E+04  0.00000000000E+00 0. -1.
         22    1    3    3    0    0  0.46417299266E+02 -0.19007504370E+02  0.10995188977E+02  0.51349246092E+02  0.00000000000E+00 0. -1.
         22    1    3    3    0    0 -0.10347188396E+01  0.74442707776E+02 -0.77020034228E+02  0.10712083391E+03  0.00000000000E+00 0. -1.
</event>
<event>
 7    1  0.5957303E-006  0.6980220E+02  0.7818608E-02  0.1370539E+00
          2   -1    0    0  502    0  0.00000000000E+00  0.00000000000E+00  0.12837316035E+04  0.12837316035E+04  0.00000000000E+00 0. -1.
          1   -1    0    0  501    0 -0.00000000000E+00 -0.00000000000E+00 -0.61188159097E+02  0.61188159097E+02  0.00000000000E+00 0. -1.
         25    2    1    2    0    0  0.49374397328E+02  0.46527780720E+02  0.19773247805E+03  0.24354744366E+03  0.12495822882E+03 0.  0.
          2    1    1    2  501    0  0.20549181525E+02 -0.60974521868E+02 -0.91127354652E+01  0.64986176423E+02  0.00000000000E+00 0. -1.
          1    1    1    2  502    0 -0.69923578853E+02  0.14446741148E+02  0.10339237018E+04  0.10363861425E+04  0.00000000000E+00 0. -1.
         22    1    3    3    0    0  0.38702011663E+02 -0.33791387069E+02  0.12308592004E+03  0.13337858621E+03  0.00000000000E+00 0.  1.
         22    1    3    3    0    0  0.10672385665E+02  0.80319167789E+02  0.74646558010E+02  0.11016885745E+03  0.00000000000E+00 0.  1.
</event>
<event>
 7    1  0.5957303E-006  0.1344498E+03  0.7818608E-02  0.1344065E+00
          2   -1    0    0  502    0  0.00000000000E+00  0.00000000000E+00  0.16995346752E+04  0.16995346752E+04  0.00000000000E+00 0. -1.
          1   -1    0    0  501    0 -0.00000000000E+00 -0.00000000000E+00 -0.82603625408E+03  0.82603625408E+03  0.00000000000E+00 0. -1.
         25    2    1    2    0    0  0.21983177961E+02 -0.10637970784E+03 -0.17640119235E+03  0.24195581356E+03  0.12500133080E+03 0.  0.
          2    1    1    2  501    0 -0.56838463238E+02  0.12939307212E+03 -0.60849663402E+03  0.62469298990E+03  0.00000000000E+00 0. -1.
          1    1    1    2  502    0  0.34855285277E+02 -0.23013364274E+02  0.16583962475E+04  0.16589221258E+04  0.00000000000E+00 0. -1.
         22    1    3    3    0    0  0.46241471403E+01  0.15094635348E+02 -0.91229157395E+02  0.92585041513E+02  0.00000000000E+00 0. -1.
         22    1    3    3    0    0  0.17359030821E+02 -0.12147434319E+03 -0.85172034951E+02  0.14937077205E+03  0.00000000000E+00 0. -1.
</event>
<event>
 7    1  0.5957303E-006  0.6257173E+02  0.7818608E-02  0.1436985E+00
          2   -1    0    0  502    0  0.00000000000E+00  0.00000000000E+00  0.64022505197E+03  0.64022505197E+03  0.00000000000E+00 0. -1.
          1   -1    0    0  501    0 -0.00000000000E+00 -0.00000000000E+00 -0.98169388235E+03  0.98169388235E+03  0.00000000000E+00 0. -1.
         25    2    1    2    0    0  0.13674083614E+02  0.27405417834E+02 -0.87516322189E+02  0.15563476245E+03  0.12500014058E+03 0.  0.
          2    1    1    2  501    0  0.42504729504E+02  0.12912277966E+01 -0.85794902319E+03  0.85900223847E+03  0.00000000000E+00 0. -1.
          1    1    1    2  502    0 -0.56178813118E+02 -0.28696645631E+02  0.60399651499E+03  0.60728193340E+03  0.00000000000E+00 0. -1.
         22    1    3    3    0    0 -0.55455954911E+02  0.20716925383E+02 -0.38211067537E+02  0.70460198798E+02  0.00000000000E+00 0.  1.
         22    1    3    3    0    0  0.69130038525E+02  0.66884924513E+01 -0.49305254652E+02  0.85174563656E+02  0.00000000000E+00 0.  1.
</event>
<event>
 7    1  0.5957303E-006  0.6478118E+02  0.7818608E-02  0.1405301E+00
          2   -1    0    0  502    0  0.00000000000E+00  0.00000000000E+00  0.19702918755E+03  0.19702918755E+03  0.00000000000E+00 0. -1.
          1   -1    0    0  501    0 -0.00000000000E+00 -0.00000000000E+00 -0.12562052925E+04  0.12562052925E+04  0.00000000000E+00 0. -1.
         25    2    1    2    0    0 -0.10761291742E+03  0.38688235673E+02 -0.83291947573E+02  0.18878907332E+03  0.12500578427E+03 0.  0.
          2    1    1    2  501    0  0.50648713117E+02 -0.13384768049E+02 -0.11127876823E+04  0.11140201390E+04  0.00000000000E+00 0. -1.
          1    1    1    2  502    0  0.56964204298E+02 -0.25303467624E+02  0.13690352491E+03  0.15042526776E+03  0.00000000000E+00 0. -1.
         22    1    3    3    0    0 -0.99415264699E+02  0.16563463124E+02 -0.11263029776E+03  0.15114009110E+03  0.00000000000E+00 0. -1.
         22    1    3    3    0    0 -0.81976527162E+01  0.22124772549E+02  0.29338350187E+02  0.37648982218E+02  0.00000000000E+00 0. -1.
</event>
<event>
 7    1  0.5957303E-006  0.2526373E+03  0.7818608E-02  0.1219487E+00
          2   -1    0    0  502    0  0.00000000000E+00  0.00000000000E+00  0.10657197212E+04  0.10657197212E+04  0.00000000000E+00 0. -1.
          1   -1    0    0  501    0 -0.00000000000E+00 -0.00000000000E+00 -0.12253758477E+04  0.12253758477E+04  0.00000000000E+00 0. -1.
         25    2    1    2    0    0  0.25743482465E+03 -0.17720642746E+03  0.33698232169E+02  0.33828332471E+03  0.12500092022E+03 0.  0.
          2    1    1    2  501    0 -0.41148256267E+02  0.59929682446E+02 -0.10546051282E+04  0.10571077155E+04  0.00000000000E+00 0. -1.
          1    1    1    2  502    0 -0.21628656838E+03  0.11727674501E+03  0.86125076951E+03  0.89570452861E+03  0.00000000000E+00 0. -1.
         22    1    3    3    0    0  0.13953453725E+03 -0.62240074829E+02 -0.39899657676E+02  0.15791040714E+03  0.00000000000E+00 0.  1.
         22    1    3    3    0    0  0.11790028740E+03 -0.11496635263E+03  0.73597889845E+02  0.18037291758E+03  0.00000000000E+00 0.  1.
</event>
<event>
 7    1  0.5957303E-006  0.2569876E+02  0.7818608E-02  0.1663273E+00
          2   -1    0    0  502    0  0.00000000000E+00  0.00000000000E+00  0.20230714597E+02  0.20230714597E+02  0.00000000000E+00 0. -1.
          1   -1    0    0  501    0 -0.00000000000E+00 -0.00000000000E+00 -0.64812077580E+03  0.64812077580E+03  0.00000000000E+00 0. -1.
         25    2    1    2    0    0 -0.23552914284E+02 -0.42267551064E+02 -0.37060269902E+03  0.39408962124E+03  0.12497593131E+03 0.  0.
          2    1    1    2  501    0  0.13574183975E+02  0.19810656862E+02 -0.24608640721E+03  0.24725541533E+03  0.00000000000E+00 0. -1.
          1    1    1    2  502    0  0.99787303092E+01  0.22456894202E+02 -0.11200954973E+02  0.27006453823E+02  0.00000000000E+00 0. -1.
         22    1    3    3    0    0  0.40932707153E+02 -0.25536378498E+02 -0.62977447213E+02  0.79333170862E+02  0.00000000000E+00 0. -1.
         22    1    3    3    0    0 -0.64485621437E+02 -0.16731172566E+02 -0.30762525181E+03  0.31475645038E+03  0.00000000000E+00 0. -1.
</event>
<event>
 7    1  0.5957303E-006  0.1035674E+03  0.7818608E-02  0.1425719E+00
          2   -1    0    0  502    0  0.00000000000E+00  0.00000000000E+00  0.17551814809E+02  0.17551814809E+02  0.00000000000E+00 0. -1.
          1   -1    0    0  501    0 -0.00000000000E+00 -0.00000000000E+00 -0.29392105811E+04  0.29392105811E+04  0.00000000000E+00 0. -1.
         25    2    1    2    0    0 -0.85485293460E+02 -0.68740848260E+02 -0.14856763262E+04  0.14949559164E+04  0.12500402422E+03 0.  0.
          2    1    1    2  501    0  0.60865621307E+02  0.82030553790E+02 -0.14294259927E+04  0.14330709348E+04  0.00000000000E+00 0. -1.
          1    1    1    2  502    0  0.24619672152E+02 -0.13289705529E+02 -0.65564474470E+01  0.28735544767E+02  0.00000000000E+00 0. -1.
         22    1    3    3    0    0 -0.72441889494E+02 -0.53229312138E+01 -0.35116865376E+03  0.35860226482E+03  0.00000000000E+00 0. -1.
         22    1    3    3    0    0 -0.13043403966E+02 -0.63417917047E+02 -0.11345076725E+04  0.11363536516E+04  0.00000000000E+00 0. -1.
</event>
<event>
 7    1  0.5957303E-006  0.1233715E+03  0.7818608E-02  0.1259931E+00
          2   -1    0    0  502    0  0.00000000000E+00  0.00000000000E+00  0.29847396295E+02  0.29847396295E+02  0.00000000000E+00 0. -1.
          1   -1    0    0  501    0 -0.00000000000E+00 -0.00000000000E+00 -0.17378140578E+04  0.17378140578E+04  0.00000000000E+00 0. -1.
         25    2    1    2    0    0 -0.22278968619E+02 -0.34963049568E+01 -0.45744377293E+03  0.47475368481E+03  0.12501071655E+03 0.  0.
          2    1    1    2  501    0  0.11897342872E+03  0.80116832030E+02 -0.10323667002E+04  0.10422832567E+04  0.00000000000E+00 0. -1.
          1    1    1    2  502    0 -0.96694460104E+02 -0.76620527073E+02 -0.21815618836E+03  0.25062451258E+03  0.00000000000E+00 0. -1.
         22    1    3    3    0    0  0.29757428647E+02 -0.41093652064E+02 -0.30731132881E+03  0.31147142022E+03  0.00000000000E+00 0.  1.
         22    1    3    3    0    0 -0.52036397265E+02  0.37597347107E+02 -0.15013244412E+03  0.16328226459E+03  0.00000000000E+00 0.  1.
</event>
<event>
 7    1  0.8510515E-006  0.5722596E+02  0.7818608E-02  0.1459100E+00
          2   -1    0    0  502    0  0.00000000000E+00  0.00000000000E+00  0.67157598513E+03  0.67157598513E+03  0.00000000000E+00 0. -1.
          1   -1    0    0  501    0 -0.00000000000E+00 -0.00000000000E+00 -0.22719824482E+04  0.22719824482E+04  0.00000000000E+00 0. -1.
         25    2    1    2    0    0  0.40082910515E+02 -0.31088531363E+02 -0.63108930094E+03  0.64534552579E+03  0.12499602154E+03 0.  0.
          2    1    1    2  501    0  0.16999919884E+02  0.35641324119E+02 -0.16322920075E+04  0.16327695793E+04  0.00000000000E+00 0. -1.
          1    1    1    2  502    0 -0.57082830398E+02 -0.45527927557E+01  0.66297484541E+03  0.66544332823E+03  0.00000000000E+00 0. -1.
         22    1    3    3    0    0  0.82016307466E+02 -0.32088294298E+02 -0.50036593639E+03  0.50805748063E+03  0.00000000000E+00 0. -1.
         22    1    3    3    0    0 -0.41933396952E+02  0.99976293464E+00 -0.13072336455E+03  0.13728804516E+03  0.00000000000E+00 0. -1.
</event>
<event>
 7    1  0.5957303E-006  0.5342372E+02  0.7818608E-02  0.1532598E+00
          2   -1    0    0  502    0  0.00000000000E+00  0.00000000000E+00  0.16777297483E+04  0.16777297483E+04  0.00000000000E+00 0. -1.
          1   -1    0    0  501    0 -0.00000000000E+00 -0.00000000000E+00 -0.40156810464E+02  0.40156810464E+02  0.00000000000E+00 0. -1.
         25    2    1    2    0    0  0.59841395874E+01 -0.36772893527E+02  0.46051636305E+03  0.47863153137E+03  0.12499906623E+03 0.  0.
          2    1    1    2  501    0  0.13949123057E+02  0.52587943515E+02 -0.70621412763E+01  0.54862953590E+02  0.00000000000E+00 0. -1.
          1    1    1    2  502    0 -0.19933262645E+02 -0.15815049987E+02  0.11841187160E+04  0.11843920738E+04  0.00000000000E+00 0. -1.
         22    1    3    3    0    0 -0.53905113649E+02 -0.37504679534E+02  0.17534611761E+03  0.18723948095E+03  0.00000000000E+00 0. -1.
         22    1    3    3    0    0  0.59889253236E+02  0.73178600670E+00  0.28517024545E+03  0.29139205043E+03  0.00000000000E+00 0. -1.
</event>
<event>
 7    1  0.5957303E-006  0.2508217E+03  0.7818608E-02  0.1175551E+00
          2   -1    0    0  502    0  0.00000000000E+00  0.00000000000E+00  0.48918341049E+03  0.48918341049E+03  0.00000000000E+00 0. -1.
          1   -1    0    0  501    0 -0.00000000000E+00 -0.00000000000E+00 -0.51845701641E+03  0.51845701641E+03  0.00000000000E+00 0. -1.
         25    2    1    2    0    0 -0.23308912844E+03 -0.10297074855E+03 -0.83763000782E+01  0.28395217712E+03  0.12500063854E+03 0.  0.
          2    1    1    2  501    0  0.25602019450E+03 -0.13035922895E+02 -0.31533643353E+03  0.40639062685E+03  0.00000000000E+00 0. -1.
          1    1    1    2  502    0 -0.22931066060E+02  0.11600667144E+03  0.29443912768E+03  0.31729762293E+03  0.00000000000E+00 0. -1.
         22    1    3    3    0    0 -0.18538319217E+03 -0.67254858669E+02  0.46859337893E+02  0.20269667363E+03  0.00000000000E+00 0.  1.
         22    1    3    3    0    0 -0.47705936275E+02 -0.35715889878E+02 -0.55235637971E+02  0.81255503492E+02  0.00000000000E+00 0.  1.
</event>
<event>
 7    1  0.5957303E-006  0.4000501E+02  0.7818608E-02  0.1530138E+00
          2   -1    0    0  502    0  0.00000000000E+00  0.00000000000E+00  0.13045014988E+04  0.13045014988E+04  0.00000000000E+00 0. -1.
          1   -1    0    0  501    0 -0.00000000000E+00 -0.00000000000E+00 -0.21642741061E+03  0.21642741061E+03  0.00000000000E+00 0. -1.
         25    2    1    2    0    0 -0.48074071669E+02  0.14116294041E+02  0.10498267648E+02  0.13507645320E+03  0.12500019385E+03 0.  0.
          2    1    1    2  501    0  0.20277613163E+02 -0.34610481364E+02 -0.15128183929E+03  0.15650962243E+03  0.00000000000E+00 0. -1.
          1    1    1    2  502    0  0.27796458506E+02  0.20494187323E+02  0.12288576599E+04  0.12293428338E+04  0.00000000000E+00 0. -1.
         22    1    3    3    0    0 -0.50971673321E+02 -0.49096531523E+02  0.11989274006E+02  0.71779687795E+02  0.00000000000E+00 0.  1.
         22    1    3    3    0    0  0.28976016526E+01  0.63212825563E+02 -0.14910063579E+01  0.63296765407E+02  0.00000000000E+00 0.  1.
</event>
<event>
 7    1  0.5957303E-006  0.4912886E+02  0.7818608E-02  0.1548686E+00
          2   -1    0    0  502    0  0.00000000000E+00  0.00000000000E+00  0.97103548480E+02  0.97103548480E+02  0.00000000000E+00 0. -1.
          1   -1    0    0  501    0 -0.00000000000E+00 -0.00000000000E+00 -0.39174296964E+03  0.39174296964E+03  0.00000000000E+00 0. -1.
         25    2    1    2    0    0 -0.70699411430E+02  0.12151132083E+01 -0.17657572809E+03  0.22760471091E+03  0.12500013360E+03 0.  0.
          2    1    1    2  501    0  0.46480716454E+02  0.46583727274E+01 -0.18448081944E+03  0.19030325846E+03  0.00000000000E+00 0. -1.
          1    1    1    2  502    0  0.24218694976E+02 -0.58734859357E+01  0.66417126373E+02  0.70938548752E+02  0.00000000000E+00 0. -1.
         22    1    3    3    0    0 -0.80531283731E+02  0.25996928038E+02 -0.18171484151E+03  0.20045301582E+03  0.00000000000E+00 0.  1.
         22    1    3    3    0    0  0.98318723007E+01 -0.24781814829E+02  0.51391134218E+01  0.27151695084E+02  0.00000000000E+00 0.  1.
</event>
<event>
 7    1  0.5957303E-006  0.5001985E+02  0.7818608E-02  0.1448961E+00
          2   -1    0    0  502    0  0.00000000000E+00  0.00000000000E+00  0.11846570403E+04  0.11846570403E+04  0.00000000000E+00 0. -1.
          1   -1    0    0  501    0 -0.00000000000E+00 -0.00000000000E+00 -0.18945036222E+04  0.18945036222E+04  0.00000000000E+00 0. -1.
         25    2    1    2    0    0 -0.20524431751E+02 -0.20228228752E+01 -0.13491688231E+04  0.13551059797E+04  0.12502143361E+03 0.  0.
          2    1    1    2  501    0  0.68366619493E+02  0.16621125779E+02 -0.53955185116E+03  0.54411989173E+03  0.00000000000E+00 0. -1.
          1    1    1    2  502    0 -0.47842187742E+02 -0.14598302904E+02  0.11788740924E+04  0.11799347910E+04  0.00000000000E+00 0. -1.
         22    1    3    3    0    0  0.17936478100E+02 -0.56369139638E+02 -0.55148151161E+03  0.55464498087E+03  0.00000000000E+00 0.  1.
         22    1    3    3    0    0 -0.38460909851E+02  0.54346316763E+02 -0.79768731152E+03  0.80046099885E+03  0.00000000000E+00 0.  1.
</event>
<event>
 7    1  0.5957303E-006  0.5240361E+02  0.7818608E-02  0.1452449E+00
          2   -1    0    0  502    0  0.00000000000E+00  0.00000000000E+00  0.44928018334E+03  0.44928018334E+03  0.00000000000E+00 0. -1.
          1   -1    0    0  501    0 -0.00000000000E+00 -0.00000000000E+00 -0.58141097364E+03  0.58141097364E+03  0.00000000000E+00 0. -1.
         25    2    1    2    0    0 -0.29770622732E+02  0.32541494148E+02  0.73237103367E+01  0.13273706632E+03  0.12498101145E+03 0.  0.
          2    1    1    2  501    0  0.52505643611E+02  0.66047819925E+01 -0.51599528131E+03  0.51870183737E+03  0.00000000000E+00 0. -1.
          1    1    1    2  502    0 -0.22735020880E+02 -0.39146276141E+02  0.37654078067E+03  0.37925225328E+03  0.00000000000E+00 0. -1.
         22    1    3    3    0    0 -0.33154691593E+02  0.78886183417E+02 -0.74610346636E+00  0.85573478246E+02  0.00000000000E+00 0.  1.
         22    1    3    3    0    0  0.33840688612E+01 -0.46344689269E+02  0.80698138031E+01  0.47163588077E+02  0.00000000000E+00 0.  1.
</event>
<event>
 7    1  0.5957303E-006  0.2597655E+03  0.7818608E-02  0.1265453E+00
          2   -1    0    0  502    0  0.00000000000E+00  0.00000000000E+00  0.17541662170E+04  0.17541662170E+04  0.00000000000E+00 0. -1.
          1   -1    0    0  501    0 -0.00000000000E+00 -0.00000000000E+00 -0.17347132818E+04  0.17347132818E+04  0.00000000000E+00 0. -1.
         25    2    1    2    0    0  0.24485183797E+03  0.11457132261E+03  0.10793640513E+03  0.31679998050E+03  0.12503179423E+03 0.  0.
          2    1    1    2  501    0  0.44012918163E+01 -0.44189744673E+02 -0.16190978735E+04  0.16197067725E+04  0.00000000000E+00 0. -1.
          1    1    1    2  502    0 -0.24925312979E+03 -0.70381577936E+02  0.15306144036E+04  0.15523727457E+04  0.00000000000E+00 0. -1.
         22    1    3    3    0    0  0.17835622249E+03  0.13976791108E+03  0.86264968222E+02  0.24246165844E+03  0.00000000000E+00 0.  1.
         22    1    3    3    0    0  0.66495615482E+02 -0.25196588476E+02  0.21671436903E+02  0.74338322059E+02  0.00000000000E+00 0.  1.
</event>
<event>
 7    1  0.5957303E-006  0.7906369E+02  0.7818608E-02  0.1385921E+00
          2   -1    0    0  502    0  0.00000000000E+00  0.00000000000E+00  0.25345165096E+04  0.25345165096E+04  0.00000000000E+00 0. -1.
          1   -1    0    0  501    0 -0.00000000000E+00 -0.00000000000E+00 -0.15496280989E+03  0.15496280989E+03  0.00000000000E+00 0. -1.
         25    2    1    2    0    0 -0.23290799161E+02  0.48766293214E+02  0.18310271031E+03  0.22819371253E+03  0.12500062095E+03 0.  0.
          2    1    1    2  501    0  0.72083128756E+02 -0.37426822054E+02 -0.11966650702E+03  0.14462647531E+03  0.00000000000E+00 0. -1.
          1    1    1    2  502    0 -0.48792329595E+02 -0.11339471160E+02  0.23161174964E+04  0.23166591316E+04  0.00000000000E+00 0. -1.
         22    1    3    3    0    0 -0.29164958844E+02  0.85014589488E+02  0.86062705042E+02  0.12443819530E+03  0.00000000000E+00 0.  1.
         22    1    3    3    0    0  0.58741596833E+01 -0.36248296275E+02  0.97040005265E+02  0.10375551723E+03  0.00000000000E+00 0.  1.
</event>
<event>
 7    1  0.5957303E-006  0.4948420E+02  0.7818608E-02  0.1515896E+00
          2   -1    0    0  502    0  0.00000000000E+00  0.00000000000E+00  0.10446684140E+03  0.10446684140E+03  0.00000000000E+00 0. -1.
          1   -1    0    0  501    0 -0.00000000000E+00 -0.00000000000E+00 -0.53289852309E+03  0.53289852309E+03  0.00000000000E+00 0. -1.
         25    2    1    2    0    0 -0.24077954366E+02  0.58814510234E+02 -0.38340666238E+02  0.14537315699E+03  0.12499781432E+03 0.  0.
          2    1    1    2  501    0  0.37978741808E+02 -0.31445389975E+02 -0.43489492253E+03  0.43768115224E+03  0.00000000000E+00 0. -1.
          1    1    1    2  502    0 -0.13900787442E+02 -0.27369120260E+02  0.44803907070E+02  0.54311055266E+02  0.00000000000E+00 0. -1.
         22    1    3    3    0    0  0.27871186095E+02  0.49127324536E+02 -0.65060183507E+02  0.86157556304E+02  0.00000000000E+00 0. -1.
         22    1    3    3    0    0 -0.51949140460E+02  0.96871856987E+01  0.26719517269E+02  0.59215600685E+02  0.00000000000E+00 0. -1.
</event>
<event>
 7    1  0.5957303E-006  0.1085625E+03  0.7818608E-02  0.1408237E+00
          2   -1    0    0  502    0  0.00000000000E+00  0.00000000000E+00  0.63238055521E+03  0.63238055521E+03  0.00000000000E+00 0. -1.
          1   -1    0    0  501    0 -0.00000000000E+00 -0.00000000000E+00 -0.27222392802E+04  0.27222392802E+04  0.00000000000E+00 0. -1.
         25    2    1    2    0    0 -0.31142082651E+02  0.13234847180E+03 -0.11510241087E+03  0.21762633868E+03  0.12500684381E+03 0.  0.
          2    1    1    2  501    0  0.14010515245E+02 -0.10705499992E+03 -0.25543322249E+04  0.25566130295E+04  0.00000000000E+00 0. -1.
          1    1    1    2  502    0  0.17131567406E+02 -0.25293471878E+02  0.57957591080E+03  0.58038046719E+03  0.00000000000E+00 0. -1.
         22    1    3    3    0    0  0.31666465531E+02 -0.66561885951E+00 -0.13949187925E+01  0.31704161968E+02  0.00000000000E+00 0.  1.
         22    1    3    3    0    0 -0.62808548182E+02  0.13301409066E+03 -0.11370749208E+03  0.18592217671E+03  0.00000000000E+00 0.  1.
</event>
<event>
 7    1  0.5957303E-006  0.6616814E+02  0.7818608E-02  0.1376678E+00
          2   -1    0    0  502    0  0.00000000000E+00  0.00000000000E+00  0.12183627741E+03  0.12183627741E+03  0.00000000000E+00 0. -1.
          1   -1    0    0  501    0 -0.00000000000E+00 -0.00000000000E+00 -0.31345267239E+03  0.31345267239E+03  0.00000000000E+00 0. -1.
         25    2    1    2    0    0  0.31294388976E+01 -0.81402439622E+02 -0.56546190679E+02  0.15955928549E+03  0.12500217335E+03 0.  0.
          2    1    1    2  501    0 -0.53507151231E+02  0.41072227867E+02 -0.18320136846E+03  0.19522470269E+03  0.00000000000E+00 0. -1.
          1    1    1    2  502    0  0.50377712334E+02  0.40330211755E+02  0.48131164160E+02  0.80504961608E+02  0.00000000000E+00 0. -1.
         22    1    3    3    0    0 -0.49272681586E+02 -0.81924346618E+02 -0.26732599376E+02  0.99267454833E+02  0.00000000000E+00 0. -1.
         22    1    3    3    0    0  0.52402120484E+02  0.52190699590E+00 -0.29813591302E+02  0.60291830661E+02  0.00000000000E+00 0. -1.
</event>
<event>
 7    1  0.5957303E-006  0.9560128E+02  0.7818608E-02  0.1298155E+00
          2   -1    0    0  502    0  0.00000000000E+00  0.00000000000E+00  0.10732120728E+04  0.10732120728E+04  0.00000000000E+00 0. -1.
          1   -1    0    0  501    0 -0.00000000000E+00 -0.00000000000E+00 -0.26258034977E+03  0.26258034977E+03  0.00000000000E+00 0. -1.
         25    2    1    2    0    0  0.24187929993E+02 -0.18739265690E+02  0.19529017701E+03  0.23387928217E+03  0.12500019742E+03 0.  0.
          2    1    1    2  501    0  0.14276636238E+02  0.98413056948E+02 -0.23072004675E+03  0.25123831732E+03  0.00000000000E+00 0. -1.
          1    1    1    2  502    0 -0.38464566232E+02 -0.79673791258E+02  0.84606159273E+03  0.85067482304E+03  0.00000000000E+00 0. -1.
         22    1    3    3    0    0 -0.12499210706E+02  0.10814115347E+02  0.18489986863E+03  0.18563711046E+03  0.00000000000E+00 0. -1.
         22    1    3    3    0    0  0.36687140699E+02 -0.29553381037E+02  0.10390308382E+02  0.48242171714E+02  0.00000000000E+00 0. -1.
</event>
<event>
 7    1  0.5957303E-006  0.6281679E+02  0.7818608E-02  0.1481521E+00
          2   -1    0    0  502    0  0.00000000000E+00  0.00000000000E+00  0.21064515192E+04  0.21064515192E+04  0.00000000000E+00 0. -1.
          1   -1    0    0  501    0 -0.00000000000E+00 -0.00000000000E+00 -0.18076771883E+03  0.18076771883E+03  0.00000000000E+00 0. -1.
         25    2    1    2    0    0  0.46569923532E+01  0.32028535791E+02  0.91508919730E+03  0.92415511999E+03  0.12500772818E+03 0.  0.
          2    1    1    2  501    0 -0.89586793435E+01 -0.62363266478E+02 -0.17039883476E+03  0.18167332724E+03  0.00000000000E+00 0. -1.
          1    1    1    2  502    0  0.43016869903E+01  0.30334730687E+02  0.11809934378E+04  0.11813907908E+04  0.00000000000E+00 0. -1.
         22    1    3    3    0    0  0.53851371661E+02  0.52739315489E+02  0.50044055628E+03  0.50608512722E+03  0.00000000000E+00 0. -1.
         22    1    3    3    0    0 -0.49194379308E+02 -0.20710779698E+02  0.41464864103E+03  0.41806999277E+03  0.00000000000E+00 0. -1.
</event>
<event>
 7    1  0.5957303E-006  0.1152468E+03  0.7818608E-02  0.1315555E+00
          2   -1    0    0  502    0  0.00000000000E+00  0.00000000000E+00  0.61290204755E+02  0.61290204755E+02  0.00000000000E+00 0. -1.
          1   -1    0    0  501    0 -0.00000000000E+00 -0.00000000000E+00 -0.94858364451E+03  0.94858364451E+03  0.00000000000E+00 0. -1.
         25    2    1    2    0    0  0.45154990986E+02 -0.11596992198E+03 -0.40291017188E+03  0.43982929541E+03  0.12500082592E+03 0.  0.
          2    1    1    2  501    0  0.45361417747E+02  0.43172840616E+02 -0.44197195475E+03  0.44638633623E+03  0.00000000000E+00 0. -1.
          1    1    1    2  502    0 -0.90516408733E+02  0.72797081365E+02 -0.42411313124E+02  0.12365821762E+03  0.00000000000E+00 0. -1.
         22    1    3    3    0    0  0.10895257156E+02 -0.40999784976E+02 -0.17815278980E+02  0.46011663323E+02  0.00000000000E+00 0. -1.
         22    1    3    3    0    0  0.34259733830E+02 -0.74970137004E+02 -0.38509489290E+03  0.39381763209E+03  0.00000000000E+00 0. -1.
</event>
<event>
 7    1  0.5957303E-006  0.7599483E+02  0.7818608E-02  0.1381638E+00
          2   -1    0    0  502    0  0.00000000000E+00  0.00000000000E+00  0.42868637430E+03  0.42868637430E+03  0.00000000000E+00 0. -1.
          1   -1    0    0  501    0 -0.00000000000E+00 -0.00000000000E+00 -0.73496539603E+03  0.73496539603E+03  0.00000000000E+00 0. -1.
         25    2    1    2    0    0 -0.37529502296E+02 -0.17266712891E+02  0.28884407019E+00  0.13165198396E+03  0.12500223411E+03 0.  0.
          2    1    1    2  501    0  0.31411633200E+02  0.70876632448E+02 -0.66501278723E+03  0.66951638882E+03  0.00000000000E+00 0. -1.
          1    1    1    2  502    0  0.61178690957E+01 -0.53609919557E+02  0.35844492142E+03  0.36248339754E+03  0.00000000000E+00 0. -1.
         22    1    3    3    0    0  0.21491602657E+02 -0.49931590380E+02 -0.24708145428E+02  0.59712185968E+02  0.00000000000E+00 0. -1.
         22    1    3    3    0    0 -0.59021104953E+02  0.32664877488E+02  0.24996989498E+02  0.71939797993E+02  0.00000000000E+00 0. -1.
</event>
<event>
 7    1  0.5957303E-006  0.1431314E+03  0.7818608E-02  0.1262254E+00
          2   -1    0    0  502    0  0.00000000000E+00  0.00000000000E+00  0.71237630563E+03  0.71237630563E+03  0.00000000000E+00 0. -1.
          1   -1    0    0  501    0 -0.00000000000E+00 -0.00000000000E+00 -0.48018737916E+03  0.48018737916E+03  0.00000000000E+00 0. -1.
         25    2    1    2    0    0  0.11825565464E+03 -0.25838524491E+02  0.14122081292E+03  0.22409296082E+03  0.12498923106E+03 0.  0.
          2    1    1    2  501    0 -0.97296306722E+01 -0.82582021469E+02 -0.42351659832E+03  0.43160255449E+03  0.00000000000E+00 0. -1.
          1    1    1    2  502    0 -0.10852602397E+03  0.10842054596E+03  0.51448471187E+03  0.53686816949E+03  0.00000000000E+00 0. -1.
         22    1    3    3    0    0  0.27207803960E+02 -0.64928065350E+02  0.84276790009E+02  0.10981118158E+03  0.00000000000E+00 0.  1.
         22    1    3    3    0    0  0.91047850684E+02  0.39089540859E+02  0.56944022916E+02  0.11428177923E+03  0.00000000000E+00 0.  1.
</event>
<event>
 7    1  0.8295344E-006  0.1044368E+03  0.7818608E-02  0.1375238E+00
          2   -1    0    0  502    0  0.00000000000E+00  0.00000000000E+00  0.12227339735E+04  0.12227339735E+04  0.00000000000E+00 0. -1.
          1   -1    0    0  501    0 -0.00000000000E+00 -0.00000000000E+00 -0.18163997805E+04  0.18163997805E+04  0.00000000000E+00 0. -1.
         25    2    1    2    0    0  0.78566546511E+01 -0.13437250396E+03 -0.66309624228E+03  0.68806980550E+03  0.12500293546E+03 0.  0.
          2    1    1    2  501    0  0.13051129383E+02  0.98672518636E+02 -0.11382909335E+04  0.11426341703E+04  0.00000000000E+00 0. -1.
          1    1    1    2  502    0 -0.20907784034E+02  0.35699985325E+02  0.12077213687E+04  0.12084297782E+04  0.00000000000E+00 0. -1.
         22    1    3    3    0    0 -0.44698449712E+02 -0.44205767232E+02 -0.40203247128E+03  0.40691793918E+03  0.00000000000E+00 0.  1.
         22    1    3    3    0    0  0.52555104363E+02 -0.90166736728E+02 -0.26106377101E+03  0.28115186633E+03  0.00000000000E+00 0.  1.
</event>
<event>
 7    1  0.5957303E-006  0.8187588E+02  0.7818608E-02  0.1387142E+00
          2   -1    0    0  502    0  0.00000000000E+00  0.00000000000E+00  0.14606795688E+04  0.14606795688E+04  0.00000000000E+00 0. -1.
          1   -1    0    0  501    0 -0.00000000000E+00 -0.00000000000E+00 -0.80591321784E+02  0.80591321784E+02  0.00000000000E+00 0. -1.
         25    2    1    2    0    0  0.20769567801E+02 -0.31578172689E+02  0.93138747729E+03  0.94049731938E+03  0.12499607584E+03 0.  0.
          2    1    1    2  501    0 -0.24356508839E+02  0.79341202458E+02 -0.51899701750E+02  0.97886898878E+02  0.00000000000E+00 0. -1.
          1    1    1    2  502    0  0.35869410383E+01 -0.47763029768E+02  0.50060047146E+03  0.50288667231E+03  0.00000000000E+00 0. -1.
         22    1    3    3    0    0  0.33694624614E+02 -0.66302511153E+02  0.81425088451E+03  0.81764041830E+03  0.00000000000E+00 0.  1.
         22    1    3    3    0    0 -0.12925056812E+02  0.34724338464E+02  0.11713659278E+03  0.12285690108E+03  0.00000000000E+00 0.  1.
</event>
<event>
 7    1  0.5957303E-006  0.5056356E+02  0.7818608E-02  0.1482971E+00
          2   -1    0    0  502    0  0.00000000000E+00  0.00000000000E+00  0.22500776463E+04  0.22500776463E+04  0.00000000000E+00 0. -1.
          1   -1    0    0  501    0 -0.00000000000E+00 -0.00000000000E+00 -0.80329802677E+02  0.80329802677E+02  0.00000000000E+00 0. -1.
         25    2    1    2    0    0 -0.12425645180E+00  0.65276355461E+02  0.27066618539E+03  0.30519885584E+03  0.12500055868E+03 0.  0.
          2    1    1    2  501    0  0.29107034423E+02 -0.41203774666E+02 -0.52763576900E+02  0.72999764020E+02  0.00000000000E+00 0. -1.
          1    1    1    2  502    0 -0.28982777971E+02 -0.24072580795E+02  0.19518452352E+04  0.19522088291E+04  0.00000000000E+00 0. -1.
         22    1    3    3    0    0 -0.30039369885E+02  0.50053709166E+02  0.36955493460E+02  0.69090129840E+02  0.00000000000E+00 0. -1.
         22    1    3    3    0    0  0.29915113433E+02  0.15222646295E+02  0.23371069193E+03  0.23610872600E+03  0.00000000000E+00 0. -1.
</event>
<event>
 7    1  0.5957303E-006  0.7187005E+02  0.7818608E-02  0.1360023E+00
          2   -1    0    0  502    0  0.00000000000E+00  0.00000000000E+00  0.19384587136E+04  0.19384587136E+04  0.00000000000E+00 0. -1.
          1   -1    0    0  501    0 -0.00000000000E+00 -0.00000000000E+00 -0.12684386777E+03  0.12684386777E+03  0.00000000000E+00 0. -1.
         25    2    1    2    0    0  0.30132711215E+02  0.27174711523E+02  0.86142636994E+03  0.87139704582E+03  0.12502389934E+03 0.  0.
          2    1    1    2  501    0  0.48988249840E+02 -0.52587593151E+02 -0.10949147089E+03  0.13097208013E+03  0.00000000000E+00 0. -1.
          1    1    1    2  502    0 -0.79120961055E+02  0.25412881628E+02  0.10596799468E+04  0.10629334554E+04  0.00000000000E+00 0. -1.
         22    1    3    3    0    0  0.46043796960E+02 -0.29486947353E+02  0.63836527449E+03  0.64070253236E+03  0.00000000000E+00 0.  1.
         22    1    3    3    0    0 -0.15911085746E+02  0.56661658876E+02  0.22306109545E+03  0.23069451346E+03  0.00000000000E+00 0.  1.
</event>
<event>
 7    1  0.5957303E-006  0.2377577E+03  0.7818608E-02  0.1223833E+00
          2   -1    0    0  502    0  0.00000000000E+00  0.00000000000E+00  0.17504212217E+04  0.17504212217E+04  0.00000000000E+00 0. -1.
          1   -1    0    0  501    0 -0.00000000000E+00 -0.00000000000E+00 -0.48167487197E+03  0.48167487197E+03  0.00000000000E+00 0. -1.
         25    2    1    2    0    0  0.17964887405E+03 -0.20642299804E+02  0.12872584930E+03  0.25474584116E+03  0.12500110730E+03 0.  0.
          2    1    1    2  501    0  0.67057361387E+02  0.30842171619E+02 -0.40553405045E+03  0.41219630681E+03  0.00000000000E+00 0. -1.
          1    1    1    2  502    0 -0.24670623543E+03 -0.10199871816E+02  0.15455545509E+04  0.15651539457E+04  0.00000000000E+00 0. -1.
         22    1    3    3    0    0  0.23555279452E+02  0.30724189143E+02 -0.96695884294E+01  0.39903983873E+02  0.00000000000E+00 0.  1.
         22    1    3    3    0    0  0.15609359459E+03 -0.51366488946E+02  0.13839543773E+03  0.21484185729E+03  0.00000000000E+00 0.  1.
</event>
<event>
 7    1  0.5957303E-006  0.4321870E+02  0.7818608E-02  0.1599741E+00
          2   -1    0    0  502    0  0.00000000000E+00  0.00000000000E+00  0.94771984888E+02  0.94771984888E+02  0.00000000000E+00 0. -1.
          1   -1    0    0  501    0 -0.00000000000E+00 -0.00000000000E+00 -0.17266194099E+04  0.17266194099E+04  0.00000000000E+00 0. -1.
         25    2    1    2    0    0 -0.39851186763E+02 -0.24430060394E+02 -0.13545855132E+04  0.13611435950E+04  0.12500011518E+03 0.  0.
          2    1    1    2  501    0  0.42981225183E+02  0.40509373388E+01 -0.36630933241E+03  0.36884457814E+03  0.00000000000E+00 0. -1.
          1    1    1    2  502    0 -0.31300384194E+01  0.20379123055E+02  0.89047420624E+02  0.91403221589E+02  0.00000000000E+00 0. -1.
         22    1    3    3    0    0 -0.27006969665E+02  0.47273180539E+02 -0.79074223366E+03  0.79261428835E+03  0.00000000000E+00 0.  1.
         22    1    3    3    0    0 -0.12844217098E+02 -0.71703240932E+02 -0.56384327954E+03  0.56852930668E+03  0.00000000000E+00 0.  1.
</event>
<event>
 7    1  0.5957303E-006  0.1629894E+03  0.7818608E-02  0.1262505E+00
          2   -1    0    0  502    0  0.00000000000E+00  0.00000000000E+00  0.33637366714E+04  0.33637366714E+04  0.00000000000E+00 0. -1.
          1   -1    0    0  501    0 -0.00000000000E+00 -0.00000000000E+00 -0.70027432208E+03  0.70027432208E+03  0.00000000000E+00 0. -1.
         25    2    1    2    0    0 -0.12276127894E+03  0.16912845819E+03  0.99387922498E+03  0.10232770020E+04  0.12500056770E+03 0.  0.
          2    1    1    2  501    0  0.51445501149E+02 -0.15429008601E+03 -0.67535597003E+03  0.69466377225E+03  0.00000000000E+00 0. -1.
          1    1    1    2  502    0  0.71315777786E+02 -0.14838372178E+02  0.23449390944E+04  0.23460702193E+04  0.00000000000E+00 0. -1.
         22    1    3    3    0    0  0.16627827698E+01  0.96921565421E+02  0.47710761874E+03  0.48685545550E+03  0.00000000000E+00 0. -1.
         22    1    3    3    0    0 -0.12442406171E+03  0.72206892769E+02  0.51677160624E+03  0.53642154647E+03  0.00000000000E+00 0. -1.
</event>
<event>
 7    1  0.5957303E-006  0.9576781E+02  0.7818608E-02  0.1467155E+00
          2   -1    0    0  502    0  0.00000000000E+00  0.00000000000E+00  0.19888571519E+04  0.19888571519E+04  0.00000000000E+00 0. -1.
          1   -1    0    0  501    0 -0.00000000000E+00 -0.00000000000E+00 -0.10037646934E+04  0.10037646934E+04  0.00000000000E+00 0. -1.
         25    2    1    2    0    0  0.63234062921E+02  0.67861081859E+02 -0.60202833997E+01  0.15577258043E+03  0.12500071942E+03 0.  0.
          2    1    1    2  501    0 -0.15959324873E+02  0.15519008682E+02 -0.92153375929E+03  0.92180258689E+03  0.00000000000E+00 0. -1.
          1    1    1    2  502    0 -0.47274738048E+02 -0.83380090541E+02  0.19126465012E+04  0.19150466780E+04  0.00000000000E+00 0. -1.
         22    1    3    3    0    0 -0.12614904762E+01  0.54839283510E+02  0.46242671146E+02  0.71744846566E+02  0.00000000000E+00 0.  1.
         22    1    3    3    0    0  0.64495553397E+02  0.13021798349E+02 -0.52262954546E+02  0.84027733862E+02  0.00000000000E+00 0.  1.
</event>
<event>
 7    1  0.5957303E-006  0.1801344E+03  0.7818608E-02  0.1262563E+00
          2   -1    0    0  502    0  0.00000000000E+00  0.00000000000E+00  0.37679000443E+02  0.37679000443E+02  0.00000000000E+00 0. -1.
          1   -1    0    0  501    0 -0.00000000000E+00 -0.00000000000E+00 -0.40735929529E+04  0.40735929529E+04  0.00000000000E+00 0. -1.
         25    2    1    2    0    0 -0.23822167083E+02  0.16700536601E+03 -0.20834207590E+04  0.20939737347E+04  0.12500261792E+03 0.  0.
          2    1    1    2  501    0  0.64917806277E+02  0.11173091125E+02 -0.17211731119E+04  0.17224331745E+04  0.00000000000E+00 0. -1.
          1    1    1    2  502    0 -0.41095639194E+02 -0.17817845713E+03 -0.23132008159E+03  0.29486504420E+03  0.00000000000E+00 0. -1.
         22    1    3    3    0    0  0.45853755763E+02  0.34026585034E+02 -0.43516609501E+03  0.43889623563E+03  0.00000000000E+00 0.  1.
         22    1    3    3    0    0 -0.69675922846E+02  0.13297878097E+03 -0.16482546640E+04  0.16550774990E+04  0.00000000000E+00 0.  1.
</event>
<event>
 7    1  0.5957303E-006  0.4089892E+02  0.7818608E-02  0.1522238E+00
          2   -1    0    0  502    0  0.00000000000E+00  0.00000000000E+00  0.19069463691E+04  0.19069463691E+04  0.00000000000E+00 0. -1.
          1   -1    0    0  501    0 -0.00000000000E+00 -0.00000000000E+00 -0.81129492401E+01  0.81129492401E+01  0.00000000000E+00 0. -1.
         25    2    1    2    0    0 -0.14786046539E+02  0.57868011335E+02  0.10961627288E+04  0.11048823596E+04  0.12499986652E+03 0.  0.
          2    1    1    2  501    0  0.28898497118E+02 -0.20784705388E+02  0.95899907941E+02  0.10229330113E+03  0.00000000000E+00 0. -1.
          1    1    1    2  502    0 -0.14112450578E+02 -0.37083305947E+02  0.70677078309E+03  0.70788365758E+03  0.00000000000E+00 0. -1.
         22    1    3    3    0    0  0.44238254332E+02  0.63201950637E+02  0.52214601944E+03  0.52781433793E+03  0.00000000000E+00 0. -1.
         22    1    3    3    0    0 -0.59024300872E+02 -0.53339393019E+01  0.57401670941E+03  0.57706802171E+03  0.00000000000E+00 0. -1.
</event>
<event>
 7    1  0.5957303E-006  0.1013801E+03  0.7818608E-02  0.1332827E+00
          2   -1    0    0  502    0  0.00000000000E+00  0.00000000000E+00  0.12605916648E+03  0.12605916648E+03  0.00000000000E+00 0. -1.
          1   -1    0    0  501    0 -0.00000000000E+00 -0.00000000000E+00 -0.21089651498E+04  0.21089651498E+04  0.00000000000E+00 0. -1.
         25    2    1    2    0    0  0.49467239881E+02  0.98769443791E+01 -0.13379626998E+03  0.18992434549E+03  0.12500101319E+03 0.  0.
          2    1    1    2  501    0  0.58592158075E+02  0.17217993901E+02 -0.19147977523E+04  0.19157713675E+04  0.00000000000E+00 0. -1.
          1    1    1    2  502    0 -0.10805939796E+03 -0.27094938280E+02  0.65688038958E+02  0.12932860329E+03  0.00000000000E+00 0. -1.
         22    1    3    3    0    0  0.50923030668E+02  0.30796841019E+02 -0.15131626772E+03  0.16259831901E+03  0.00000000000E+00 0. -1.
         22    1    3    3    0    0 -0.14557907864E+01 -0.20919896640E+02  0.17519997740E+02  0.27326026478E+02  0.00000000000E+00 0. -1.
</event>
<event>
 7    1  0.5957303E-006  0.4364370E+02  0.7818608E-02  0.1507332E+00
          2   -1    0    0  502    0  0.00000000000E+00  0.00000000000E+00  0.11010276532E+03  0.11010276532E+03  0.00000000000E+00 0. -1.
          1   -1    0    0  501    0 -0.00000000000E+00 -0.00000000000E+00 -0.29181702177E+03  0.29181702177E+03  0.00000000000E+00 0. -1.
         25    2    1    2    0    0  0.16976664605E+02  0.19918491514E+02 -0.17995503610E+03  0.22066477218E+03  0.12499669282E+03 0.  0.
          2    1    1    2  501    0  0.27680310415E+00 -0.52514119368E+02 -0.79460241852E+02  0.95245679105E+02  0.00000000000E+00 0. -1.
          1    1    1    2  502    0 -0.17253467709E+02  0.32595627853E+02  0.77701021506E+02  0.86009335808E+02  0.00000000000E+00 0. -1.
         22    1    3    3    0    0 -0.32872682595E+02 -0.25667072761E+02 -0.13034430425E+03  0.13685411771E+03  0.00000000000E+00 0.  1.
         22    1    3    3    0    0  0.49849347200E+02  0.45585564275E+02 -0.49610731854E+02  0.83810654464E+02  0.00000000000E+00 0.  1.
</event>
<event>
 7    1  0.5957303E-006  0.8146167E+02  0.7818608E-02  0.1398891E+00
          2   -1    0    0  502    0  0.00000000000E+00  0.00000000000E+00  0.60687339645E+03  0.60687339645E+03  0.00000000000E+00 0. -1.
          1   -1    0    0  501    0 -0.00000000000E+00 -0.00000000000E+00 -0.91780958411E+03  0.91780958411E+03  0.00000000000E+00 0. -1.
         25    2    1    2    0    0  0.85076801718E+02  0.19561310036E+02  0.27936776384E+03  0.31826350474E+03  0.12499841574E+03 0.  0.
          2    1    1    2  501    0 -0.62482945605E+01 -0.43374770571E+02 -0.89231133288E+03  0.89338677329E+03  0.00000000000E+00 0. -1.
          1    1    1    2  502    0 -0.78828507157E+02  0.23813460535E+02  0.30200738139E+03  0.31303270254E+03  0.00000000000E+00 0. -1.
         22    1    3    3    0    0  0.15740848357E+02 -0.32876602673E+02  0.19046522623E+03  0.19392175668E+03  0.00000000000E+00 0. -1.
         22    1    3    3    0    0  0.69335953361E+02  0.52437912709E+02  0.88902537605E+02  0.12434174806E+03  0.00000000000E+00 0. -1.
</event>
<event>
 7    1  0.5957303E-006  0.5333197E+02  0.7818608E-02  0.1457383E+00
          2   -1    0    0  502    0  0.00000000000E+00  0.00000000000E+00  0.21408773986E+04  0.21408773986E+04  0.00000000000E+00 0. -1.
          1   -1    0    0  501    0 -0.00000000000E+00 -0.00000000000E+00 -0.27916465104E+03  0.27916465104E+03  0.00000000000E+00 0. -1.
         25    2    1    2    0    0 -0.52965533942E+02 -0.18071629907E+02 -0.15220152812E+02  0.13779821673E+03  0.12499905555E+03 0.  0.
          2    1    1    2  501    0  0.55093124832E+01  0.42548857950E+02 -0.20003767885E+03  0.20458697612E+03  0.00000000000E+00 0. -1.
          1    1    1    2  502    0  0.47456221459E+02 -0.24477228043E+02  0.20769705793E+04  0.20776568568E+04  0.00000000000E+00 0. -1.
         22    1    3    3    0    0 -0.68506870521E+02  0.38137191989E+02 -0.47726183741E+01  0.78551986656E+02  0.00000000000E+00 0.  1.
         22    1    3    3    0    0  0.15541336579E+02 -0.56208821896E+02 -0.10447534438E+02  0.59246230070E+02  0.00000000000E+00 0.  1.
</event>
<event>
 7    1  0.5957303E-006  0.4025886E+02  0.7818608E-02  0.1546257E+00
          2   -1    0    0  502    0  0.00000000000E+00  0.00000000000E+00  0.10287984345E+03  0.10287984345E+03  0.00000000000E+00 0. -1.
          1   -1    0    0  501    0 -0.00000000000E+00 -0.00000000000E+00 -0.26228231082E+03  0.26228231082E+03  0.00000000000E+00 0. -1.
         25    2    1    2    0    0  0.36263546180E+02  0.15995967275E+02 -0.13638482594E+02  0.13184098393E+03  0.12500048434E+03 0.  0.
          2    1    1    2  501    0 -0.37910245444E+02  0.14851303384E+02 -0.18154241532E+03  0.18605213377E+03  0.00000000000E+00 0. -1.
          1    1    1    2  502    0  0.16466992638E+01 -0.30847270660E+02  0.35778430543E+02  0.47269036565E+02  0.00000000000E+00 0. -1.
         22    1    3    3    0    0  0.46982683093E+02  0.57357872048E+02  0.20750715786E+02  0.76992793183E+02  0.00000000000E+00 0.  1.
         22    1    3    3    0    0 -0.10719136913E+02 -0.41361904773E+02 -0.34389198380E+02  0.54848190743E+02  0.00000000000E+00 0.  1.
</event>
<event>
 7    1  0.5957303E-006  0.4771570E+02  0.7818608E-02  0.1511704E+00
          2   -1    0    0  502    0  0.00000000000E+00  0.00000000000E+00  0.97319042449E+03  0.97319042449E+03  0.00000000000E+00 0. -1.
          1   -1    0    0  501    0 -0.00000000000E+00 -0.00000000000E+00 -0.25116638488E+03  0.25116638488E+03  0.00000000000E+00 0. -1.
         25    2    1    2    0    0  0.21295103367E+02  0.28339523321E+02  0.52626345089E+01  0.13007274371E+03  0.12503844739E+03 0.  0.
          2    1    1    2  501    0 -0.26440394420E+02  0.19320851501E+02 -0.18670079822E+03  0.18955099001E+03  0.00000000000E+00 0. -1.
          1    1    1    2  502    0  0.51452910526E+01 -0.47660374822E+02  0.90346220332E+03  0.90473307565E+03  0.00000000000E+00 0. -1.
         22    1    3    3    0    0  0.26849651460E+02  0.27171797432E+02 -0.56416795542E+02  0.68132702709E+02  0.00000000000E+00 0. -1.
         22    1    3    3    0    0 -0.55545480930E+01  0.11677258887E+01  0.61679430051E+02  0.61940041005E+02  0.00000000000E+00 0. -1.
</event>
<event>
 7    1  0.5957303E-006  0.5979602E+02  0.7818608E-02  0.1437676E+00
          2   -1    0    0  502    0  0.00000000000E+00  0.00000000000E+00  0.22072908675E+02  0.22072908675E+02  0.00000000000E+00 0. -1.
          1   -1    0    0  501    0 -0.00000000000E+00 -0.00000000000E+00 -0.14691999079E+04  0.14691999079E+04  0.00000000000E+00 0. -1.
         25    2    1    2    0    0 -0.15189541681E+02  0.18471668492E+02 -0.73152756005E+03  0.74251578873E+03  0.12500080278E+03 0.  0.
          2    1    1    2  501    0  0.55397196223E+01  0.43920349587E+02 -0.66856472705E+03  0.67002871569E+03  0.00000000000E+00 0. -1.
          1    1    1    2  502    0  0.96498220587E+01 -0.62392018079E+02 -0.47034712086E+02  0.78728312104E+02  0.00000000000E+00 0. -1.
         22    1    3    3    0    0 -0.91950390589E+00 -0.50521278757E+02 -0.42513840211E+03  0.42813071140E+03  0.00000000000E+00 0.  1.
         22    1    3    3    0    0 -0.14270037775E+02  0.68992947249E+02 -0.30638915793E+03  0.31438507733E+03  0.00000000000E+00 0.  1.
</event>
<event>
 7    1  0.5957303E-006  0.4299772E+02  0.7818608E-02  0.1591347E+00
          2   -1    0    0  502    0  0.00000000000E+00  0.00000000000E+00  0.99399165220E+03  0.99399165220E+03  0.00000000000E+00 0. -1.
          1   -1    0    0  501    0 -0.00000000000E+00 -0.00000000000E+00 -0.14086548330E+04  0.14086548330E+04  0.00000000000E+00 0. -1.
         25    2    1    2    0    0 -0.30843667682E+02  0.56880817071E+02  0.15324731654E+02  0.14158723037E+03  0.12500134886E+03 0.  0.
          2    1    1    2  501    0  0.20650281994E+02 -0.37606392089E+02 -0.13450516854E+04  0.13457357509E+04  0.00000000000E+00 0. -1.
          1    1    1    2  502    0  0.10193385688E+02 -0.19274424982E+02  0.91506377287E+03  0.91532350401E+03  0.00000000000E+00 0. -1.
         22    1    3    3    0    0 -0.59936168461E+02 -0.89065458088E+01  0.30853601375E+02  0.67997173219E+02  0.00000000000E+00 0. -1.
         22    1    3    3    0    0  0.29092500779E+02  0.65787362879E+02 -0.15528869720E+02  0.73590057147E+02  0.00000000000E+00 0. -1.
</event>
<event>
 7    1  0.5957303E-006  0.1348872E+03  0.7818608E-02  0.1298167E+00
          2   -1    0    0  502    0  0.00000000000E+00  0.00000000000E+00  0.10697665077E+04  0.10697665077E+04  0.00000000000E+00 0. -1.
          1   -1    0    0  501    0 -0.00000000000E+00 -0.00000000000E+00 -0.83274823736E+03  0.83274823736E+03  0.00000000000E+00 0. -1.
         25    2    1    2    0    0  0.17934784285E+03 -0.73116608939E+02  0.22983602902E+03  0.32551501927E+03  0.12499496109E+03 0.  0.
          2    1    1    2  501    0 -0.12873625838E+03  0.36109634065E+02 -0.77795599356E+03  0.78936205749E+03  0.00000000000E+00 0. -1.
          1    1    1    2  502    0 -0.50611584474E+02  0.37006974873E+02  0.78513823490E+03  0.78763766833E+03  0.00000000000E+00 0. -1.
         22    1    3    3    0    0 -0.37446918451E+00  0.23675547431E+02  0.41476252064E+02  0.47759305466E+02  0.00000000000E+00 0.  1.
         22    1    3    3    0    0  0.17972231204E+03 -0.96792156369E+02  0.18835977695E+03  0.27775571381E+03  0.00000000000E+00 0.  1.
</event>
<event>
 7    1  0.5957303E-006  0.1097806E+03  0.7818608E-02  0.1319803E+00
          2   -1    0    0  502    0  0.00000000000E+00  0.00000000000E+00  0.38683722721E+03  0.38683722721E+03  0.00000000000E+00 0. -1.
          1   -1    0    0  501    0 -0.00000000000E+00 -0.00000000000E+00 -0.94771437561E+03  0.94771437561E+03  0.00000000000E+00 0. -1.
         25    2    1    2    0    0  0.28341425580E+02  0.40656791026E+02 -0.44273563158E+03  0.46270416956E+03  0.12499639193E+03 0.  0.
          2    1    1    2  501    0  0.14632991380E+02  0.61568890058E+02 -0.48473533315E+03  0.48884884767E+03  0.00000000000E+00 0. -1.
          1    1    1    2  502    0 -0.42974416961E+02 -0.10222568108E+03  0.36659381634E+03  0.38299858559E+03  0.00000000000E+00 0. -1.
         22    1    3    3    0    0  0.94846965495E+01  0.52900130761E+01  0.58472998625E+01  0.12334286468E+02  0.00000000000E+00 0. -1.
         22    1    3    3    0    0  0.18856729031E+02  0.35366777949E+02 -0.44858293145E+03  0.45036988309E+03  0.00000000000E+00 0. -1.
</event>
<event>
 7    1  0.5957303E-006  0.6589614E+02  0.7818608E-02  0.1497004E+00
          2   -1    0    0  502    0  0.00000000000E+00  0.00000000000E+00  0.70242738166E+03  0.70242738166E+03  0.00000000000E+00 0. -1.
          1   -1    0    0  501    0 -0.00000000000E+00 -0.00000000000E+00 -0.13057120691E+03  0.13057120691E+03  0.00000000000E+00 0. -1.
         25    2    1    2    0    0 -0.81641346440E+02 -0.31281793034E+02  0.27533244456E+03  0.31476323859E+03  0.12499632520E+03 0.  0.
          2    1    1    2  501    0  0.26206526538E+02  0.74494723902E+00 -0.10680274610E+03  0.10997346750E+03  0.00000000000E+00 0. -1.
          1    1    1    2  502    0  0.55434819901E+02  0.30536845795E+02  0.40332647629E+03  0.40826188248E+03  0.00000000000E+00 0. -1.
         22    1    3    3    0    0 -0.39402517515E+02 -0.65350579094E+02  0.23519929292E+03  0.24726901133E+03  0.00000000000E+00 0. -1.
         22    1    3    3    0    0 -0.42238828925E+02  0.34068786060E+02  0.40133151643E+02  0.67494227259E+02  0.00000000000E+00 0. -1.
</event>
<event>
 7    1  0.5957303E-006  0.5162510E+02  0.7818608E-02  0.1445308E+00
          2   -1    0    0  502    0  0.00000000000E+00  0.00000000000E+00  0.20729957209E+03  0.20729957209E+03  0.00000000000E+00 0. -1.
          1   -1    0    0  501    0 -0.00000000000E+00 -0.00000000000E+00 -0.12986337879E+04  0.12986337879E+04  0.00000000000E+00 0. -1.
         25    2    1    2    0    0  0.94202256649E+01 -0.41714105488E+02 -0.58690005249E+03  0.60158766317E+03  0.12500895016E+03 0.  0.
          2    1    1    2  501    0  0.41278036849E+02  0.31975685621E+02 -0.70006923417E+03  0.70201371314E+03  0.00000000000E+00 0. -1.
          1    1    1    2  502    0 -0.50698262514E+02  0.97384198674E+01  0.19563507089E+03  0.20233198365E+03  0.00000000000E+00 0. -1.
         22    1    3    3    0    0 -0.50361618163E+02 -0.49088417820E+02 -0.26966732754E+03  0.27868698012E+03  0.00000000000E+00 0. -1.
         22    1    3    3    0    0  0.59781843827E+02  0.73743123315E+01 -0.31723272495E+03  0.32290068305E+03  0.00000000000E+00 0. -1.
</event>
<event>
 7    1  0.5957303E-006  0.3243027E+03  0.7818608E-02  0.1176059E+00
          2   -1    0    0  502    0  0.00000000000E+00  0.00000000000E+00  0.18379228764E+04  0.18379228764E+04  0.00000000000E+00 0. -1.
          1   -1    0    0  501    0 -0.00000000000E+00 -0.00000000000E+00 -0.51823731259E+03  0.51823731259E+03  0.00000000000E+00 0. -1.
         25    2    1    2    0    0  0.30417143260E+03  0.57551113152E+02  0.28419717185E+03  0.43843417941E+03  0.12499642455E+03 0.  0.
          2    1    1    2  501    0 -0.32716065821E+03  0.30428467116E+02 -0.37826949163E+03  0.50104670061E+03  0.00000000000E+00 0. -1.
          1    1    1    2  502    0  0.22989225618E+02 -0.87979580268E+02  0.14137578836E+04  0.14166793090E+04  0.00000000000E+00 0. -1.
         22    1    3    3    0    0  0.74441993027E+02 -0.32772556794E+01  0.93582807532E+01  0.75099455053E+02  0.00000000000E+00 0. -1.
         22    1    3    3    0    0  0.22972943957E+03  0.60828368831E+02  0.27483889110E+03  0.36333472435E+03  0.00000000000E+00 0. -1.
</event>
<event>
 7    1  0.5957303E-006  0.1362041E+03  0.7818608E-02  0.1316177E+00
          2   -1    0    0  502    0  0.00000000000E+00  0.00000000000E+00  0.12948089086E+04  0.12948089086E+04  0.00000000000E+00 0. -1.
          1   -1    0    0  501    0 -0.00000000000E+00 -0.00000000000E+00 -0.59222702242E+02  0.59222702242E+02  0.00000000000E+00 0. -1.
         25    2    1    2    0    0  0.99229723198E+02  0.62144983887E+02  0.15888589630E+03  0.23363168207E+03  0.12502198942E+03 0.  0.
          2    1    1    2  501    0 -0.14504120441E+03 -0.88177421645E+02  0.32322413969E+03  0.36508362486E+03  0.00000000000E+00 0. -1.
          1    1    1    2  502    0  0.45811481213E+02  0.26032437758E+02  0.75347617038E+03  0.75531630391E+03  0.00000000000E+00 0. -1.
         22    1    3    3    0    0  0.17445185280E+01 -0.24469804343E+02 -0.41269496080E+01  0.24876623214E+02  0.00000000000E+00 0.  1.
         22    1    3    3    0    0  0.97485204670E+02  0.86614788230E+02  0.16301284590E+03  0.20875505886E+03  0.00000000000E+00 0.  1.
</event>
<event>
 7    1  0.5957303E-006  0.4952259E+02  0.7818608E-02  0.1525119E+00
          2   -1    0    0  502    0  0.00000000000E+00  0.00000000000E+00  0.74294585569E+03  0.74294585569E+03  0.00000000000E+00 0. -1.
          1   -1    0    0  501    0 -0.00000000000E+00 -0.00000000000E+00 -0.81678593009E+03  0.81678593009E+03  0.00000000000E+00 0. -1.
         25    2    1    2    0    0  0.58081080444E+02  0.60869399848E+01  0.27850944712E+02  0.14074842499E+03  0.12499592503E+03 0.  0.
          2    1    1    2  501    0 -0.40284639722E+02 -0.28781103181E+02 -0.75921480827E+03  0.76082739777E+03  0.00000000000E+00 0. -1.
          1    1    1    2  502    0 -0.17796440722E+02  0.22694163197E+02  0.65752378916E+03  0.65815596301E+03  0.00000000000E+00 0. -1.
         22    1    3    3    0    0  0.97651297710E+02  0.23927831528E+01  0.14092251063E+02  0.98691908968E+02  0.00000000000E+00 0.  1.
         22    1    3    3    0    0 -0.39570217267E+02  0.36941568320E+01  0.13758693650E+02  0.42056516025E+02  0.00000000000E+00 0.  1.
</event>
<event>
 7    1  0.5957303E-006  0.6127416E+02  0.7818608E-02  0.1484648E+00
          2   -1    0    0  502    0  0.00000000000E+00  0.00000000000E+00  0.88724767856E+02  0.88724767856E+02  0.00000000000E+00 0. -1.
          1   -1    0    0  501    0 -0.00000000000E+00 -0.00000000000E+00 -0.16880316173E+04  0.16880316173E+04  0.00000000000E+00 0. -1.
         25    2    1    2    0    0 -0.83375710771E+02  0.33129507468E+02 -0.94918945975E+03  0.96157934403E+03  0.12500052381E+03 0.  0.
          2    1    1    2  501    0  0.30614676806E+02 -0.26164653659E+01 -0.72102240575E+03  0.72167680711E+03  0.00000000000E+00 0. -1.
          1    1    1    2  502    0  0.52761033965E+02 -0.30513042102E+02  0.70905016104E+02  0.93500233968E+02  0.00000000000E+00 0. -1.
         22    1    3    3    0    0 -0.84840894489E+02  0.58320425676E+02 -0.44480384711E+03  0.45656293304E+03  0.00000000000E+00 0.  1.
         22    1    3    3    0    0  0.14651837175E+01 -0.25190918207E+02 -0.50438561264E+03  0.50501641098E+03  0.00000000000E+00 0.  1.
</event>
<event>
 7    1  0.5957303E-006  0.9695331E+02  0.7818608E-02  0.1390867E+00
          2   -1    0    0  502    0  0.00000000000E+00  0.00000000000E+00  0.30844084009E+03  0.30844084009E+03  0.00000000000E+00 0. -1.
          1   -1    0    0  501    0 -0.00000000000E+00 -0.00000000000E+00 -0.14545058292E+04  0.14545058292E+04  0.00000000000E+00 0. -1.
         25    2    1    2    0    0 -0.61422102175E+02  0.24431913663E+02 -0.23316865727E+03  0.27270887763E+03  0.12503166066E+03 0.  0.
          2    1    1    2  501    0 -0.15874555321E+02  0.35901518938E+02 -0.11929080208E+04  0.11935537133E+04  0.00000000000E+00 0. -1.
          1    1    1    2  502    0  0.77296657495E+02 -0.60333432600E+02  0.28001168897E+03  0.29668407829E+03  0.00000000000E+00 0. -1.
         22    1    3    3    0    0  0.54578835622E+01  0.57012059548E+02 -0.15286442461E+03  0.16324121948E+03  0.00000000000E+00 0.  1.
         22    1    3    3    0    0 -0.66879985737E+02 -0.32580145885E+02 -0.80304232655E+02  0.10946765815E+03  0.00000000000E+00 0.  1.
</event>
<event>
 7    1  0.5957303E-006  0.1067777E+03  0.7818608E-02  0.1320835E+00
          2   -1    0    0  502    0  0.00000000000E+00  0.00000000000E+00  0.21737749270E+02  0.21737749270E+02  0.00000000000E+00 0. -1.
          1   -1    0    0  501    0 -0.00000000000E+00 -0.00000000000E+00 -0.26085956659E+04  0.26085956659E+04  0.00000000000E+00 0. -1.
         25    2    1    2    0    0 -0.11212671950E+03  0.41666551611E+02 -0.43467667692E+03  0.46784209081E+03  0.12499562284E+03 0.  0.
          2    1    1    2  501    0  0.13934936181E+02 -0.62942803905E+02 -0.15964502103E+04  0.15977513113E+04  0.00000000000E+00 0. -1.
          1    1    1    2  502    0  0.98191783319E+02  0.21276252293E+02 -0.55573102946E+03  0.56474001304E+03  0.00000000000E+00 0. -1.
         22    1    3    3    0    0 -0.63414032563E+02  0.17611310078E+02 -0.59408048600E+02  0.88661231703E+02  0.00000000000E+00 0.  1.
         22    1    3    3    0    0 -0.48712686937E+02  0.24055241533E+02 -0.37526862832E+03  0.37918085911E+03  0.00000000000E+00 0.  1.
</event>
<event>
 7    1  0.5957303E-006  0.9064671E+02  0.7818608E-02  0.1403377E+00
          2   -1    0    0  502    0  0.00000000000E+00  0.00000000000E+00  0.21478082708E+03  0.21478082708E+03  0.00000000000E+00 0. -1.
          1   -1    0    0  501    0 -0.00000000000E+00 -0.00000000000E+00 -0.46114289546E+03  0.46114289546E+03  0.00000000000E+00 0. -1.
         25    2    1    2    0    0 -0.38463863096E+01 -0.12737538088E+03  0.96344365541E+02  0.20284635774E+03  0.12500050294E+03 0.  0.
          2    1    1    2  501    0  0.27056846817E+01  0.89382543148E+02 -0.39691888364E+03  0.40686749678E+03  0.00000000000E+00 0. -1.
          1    1    1    2  502    0  0.11407016280E+01  0.37992837732E+02  0.54212449709E+02  0.66209868016E+02  0.00000000000E+00 0. -1.
         22    1    3    3    0    0 -0.15131855761E+02  0.99189674613E+01 -0.16716560632E+02  0.24633358960E+02  0.00000000000E+00 0. -1.
         22    1    3    3    0    0  0.11285469451E+02 -0.13729434834E+03  0.11306092617E+03  0.17821299878E+03  0.00000000000E+00 0. -1.
</event>
<event>
 7    1  0.5957303E-006  0.4839304E+02  0.7818608E-02  0.1537719E+00
          2   -1    0    0  502    0  0.00000000000E+00  0.00000000000E+00  0.16039281864E+04  0.16039281864E+04  0.00000000000E+00 0. -1.
          1   -1    0    0  501    0 -0.00000000000E+00 -0.00000000000E+00 -0.15027601738E+03  0.15027601738E+03  0.00000000000E+00 0. -1.
         25    2    1    2    0    0 -0.55960830947E+02  0.26311719565E+02  0.11332730659E+04  0.11418215702E+04  0.12499893987E+03 0.  0.
          2    1    1    2  501    0  0.10103271760E+02 -0.25214494290E+02 -0.14359749540E+03  0.14614406422E+03  0.00000000000E+00 0. -1.
          1    1    1    2  502    0  0.45857559187E+02 -0.10972252750E+01  0.46397659848E+03  0.46623856938E+03  0.00000000000E+00 0. -1.
         22    1    3    3    0    0 -0.23200144967E+02  0.17508492943E+02  0.10667733322E+04  0.10671692163E+04  0.00000000000E+00 0.  1.
         22    1    3    3    0    0 -0.32760685980E+02  0.88032266220E+01  0.66499733775E+02  0.74652353861E+02  0.00000000000E+00 0.  1.
</event>
<event>
 7    1  0.5957303E-006  0.8729484E+02  0.7818608E-02  0.1380334E+00
          2   -1    0    0  502    0  0.00000000000E+00  0.00000000000E+00  0.37887380434E+03  0.37887380434E+03  0.00000000000E+00 0. -1.
          1   -1    0    0  501    0 -0.00000000000E+00 -0.00000000000E+00 -0.47762581389E+03  0.47762581389E+03  0.00000000000E+00 0. -1.
         25    2    1    2    0    0  0.82308573536E+02  0.34119777609E+02  0.18724182283E+03  0.24212247183E+03  0.12499972258E+03 0.  0.
          2    1    1    2  501    0 -0.86514466809E+02  0.13167974824E+02 -0.44237548535E+03  0.45094813290E+03  0.00000000000E+00 0. -1.
          1    1    1    2  502    0  0.42058932733E+01 -0.47287752434E+02  0.15638165297E+03  0.16342901350E+03  0.00000000000E+00 0. -1.
         22    1    3    3    0    0  0.48601233943E+02  0.79735571736E+02  0.90855946914E+02  0.13028677765E+03  0.00000000000E+00 0.  1.
         22    1    3    3    0    0  0.33707339593E+02 -0.45615794127E+02  0.96385875913E+02  0.11183569418E+03  0.00000000000E+00 0.  1.
</event>
<event>
 7    1  0.5957303E-006  0.1545330E+03  0.7818608E-02  0.1290266E+00
          2   -1    0    0  502    0  0.00000000000E+00  0.00000000000E+00  0.21087218739E+03  0.21087218739E+03  0.00000000000E+00 0. -1.
          1   -1    0    0  501    0 -0.00000000000E+00 -0.00000000000E+00 -0.46949071889E+03  0.46949071889E+03  0.00000000000E+00 0. -1.
         25    2    1    2    0    0  0.38780210658E+02 -0.11631463984E+03 -0.16200213140E+03  0.23853588109E+03  0.12498670253E+03 0.  0.
          2    1    1    2  501    0 -0.69236474591E+02  0.16673044736E+03 -0.23212784564E+03  0.29406813533E+03  0.00000000000E+00 0. -1.
          1    1    1    2  502    0  0.30456263933E+02 -0.50415807525E+02  0.13551144554E+03  0.14775888987E+03  0.00000000000E+00 0. -1.
         22    1    3    3    0    0 -0.72012979638E+01 -0.49440308814E+02  0.75805793662E+01  0.50533830366E+02  0.00000000000E+00 0. -1.
         22    1    3    3    0    0  0.45981508622E+02 -0.66874331022E+02 -0.16958271076E+03  0.18800205072E+03  0.00000000000E+00 0. -1.
</event>
<event>
 7    1  0.5957303E-006  0.4558389E+02  0.7818608E-02  0.1495771E+00
          2   -1    0    0  502    0  0.00000000000E+00  0.00000000000E+00  0.13529315941E+04  0.13529315941E+04  0.00000000000E+00 0. -1.
          1   -1    0    0  501    0 -0.00000000000E+00 -0.00000000000E+00 -0.36475777805E+03  0.36475777805E+03  0.00000000000E+00 0. -1.
         25    2    1    2    0    0 -0.57013510284E+02 -0.39082052704E+02  0.16682328951E+03  0.21961267331E+03  0.12498707597E+03 0.  0.
          2    1    1    2  501    0  0.11744051766E+02  0.36374644992E+02 -0.33683841161E+03  0.33900022579E+03  0.00000000000E+00 0. -1.
          1    1    1    2  502    0  0.45269458519E+02  0.27074077120E+01  0.11581889381E+04  0.11590764730E+04  0.00000000000E+00 0. -1.
         22    1    3    3    0    0  0.10854947004E+01 -0.74031233126E+02  0.74151048707E+02  0.10478635313E+03  0.00000000000E+00 0. -1.
         22    1    3    3    0    0 -0.58099004985E+02  0.34949180423E+02  0.92672240804E+02  0.11482632019E+03  0.00000000000E+00 0. -1.
</event>
<event>
 7    1  0.5957303E-006  0.6860186E+02  0.7818608E-02  0.1449786E+00
          2   -1    0    0  502    0  0.00000000000E+00  0.00000000000E+00  0.49089498772E+03  0.49089498772E+03  0.00000000000E+00 0. -1.
          1   -1    0    0  501    0 -0.00000000000E+00 -0.00000000000E+00 -0.16534662576E+04  0.16534662576E+04  0.00000000000E+00 0. -1.
         25    2    1    2    0    0 -0.50213364418E+02 -0.35886161267E+01  0.19855948564E+03  0.23997073345E+03  0.12500329372E+03 0.  0.
          2    1    1    2  501    0 -0.19062477446E+02  0.29667931998E+02 -0.16275231280E+04  0.16279051251E+04  0.00000000000E+00 0. -1.
          1    1    1    2  502    0  0.69275841864E+02 -0.26079315872E+02  0.26639237247E+03  0.27648538676E+03  0.00000000000E+00 0. -1.
         22    1    3    3    0    0  0.16595557276E+02  0.46722161076E+02  0.56959545550E+02  0.75516638472E+02  0.00000000000E+00 0. -1.
         22    1    3    3    0    0 -0.66808921695E+02 -0.50310777202E+02  0.14159994009E+03  0.16445409498E+03  0.00000000000E+00 0. -1.
</event>
<event>
 7    1  0.5957303E-006  0.1777213E+03  0.7818608E-02  0.1271799E+00
          2   -1    0    0  502    0  0.00000000000E+00  0.00000000000E+00  0.23829657230E+04  0.23829657230E+04  0.00000000000E+00 0. -1.
          1   -1    0    0  501    0 -0.00000000000E+00 -0.00000000000E+00 -0.50214314381E+03  0.50214314381E+03  0.00000000000E+00 0. -1.
         25    2    1    2    0    0 -0.12732532910E+03 -0.31690880803E+02  0.53390341462E+02  0.18894090857E+03  0.12502834483E+03 0.  0.
          2    1    1    2  501    0 -0.53045640823E+02  0.30195304688E+02 -0.42860599516E+03  0.43293035874E+03  0.00000000000E+00 0. -1.
          1    1    1    2  502    0  0.18037096993E+03  0.14955761154E+01  0.22560382329E+04  0.22632375995E+04  0.00000000000E+00 0. -1.
         22    1    3    3    0    0  0.53605195779E+01  0.64209926760E+01  0.50159580364E+02  0.50852215482E+02  0.00000000000E+00 0.  1.
         22    1    3    3    0    0 -0.13268584868E+03 -0.38111873479E+02  0.32307610980E+01  0.13808869308E+03  0.00000000000E+00 0.  1.
</event>
<event>
 7    1  0.5957303E-006  0.7803636E+02  0.7818608E-02  0.1470886E+00
          2   -1    0    0  502    0  0.00000000000E+00  0.00000000000E+00  0.27834879190E+03  0.27834879190E+03  0.00000000000E+00 0. -1.
          1   -1    0    0  501    0 -0.00000000000E+00 -0.00000000000E+00 -0.86387240121E+03  0.86387240121E+03  0.00000000000E+00 0. -1.
         25    2    1    2    0    0  0.88204566511E+02 -0.32945006895E+02 -0.44294710821E+02  0.16264188281E+03  0.12499976641E+03 0.  0.
          2    1    1    2  501    0 -0.63969708269E+02  0.43903673635E+02 -0.75760861217E+03  0.76157105077E+03  0.00000000000E+00 0. -1.
          1    1    1    2  502    0 -0.24234858242E+02 -0.10958666740E+02  0.21637971368E+03  0.21800825953E+03  0.00000000000E+00 0. -1.
         22    1    3    3    0    0  0.99715015115E+02 -0.46231382939E+02 -0.70870219822E+02  0.13077848854E+03  0.00000000000E+00 0.  1.
         22    1    3    3    0    0 -0.11510448604E+02  0.13286376043E+02  0.26575509001E+02  0.31863394265E+02  0.00000000000E+00 0.  1.
</event>
<event>
 7    1  0.5957303E-006  0.7732595E+02  0.7818608E-02  0.1453100E+00
          2   -1    0    0  502    0  0.00000000000E+00  0.00000000000E+00  0.66623222992E+03  0.66623222992E+03  0.00000000000E+00 0. -1.
          1   -1    0    0  501    0 -0.00000000000E+00 -0.00000000000E+00 -0.97234988864E+03  0.97234988864E+03  0.00000000000E+00 0. -1.
         25    2    1    2    0    0  0.82919511468E+02 -0.60390302364E+02  0.47591011709E+02  0.16856158700E+03  0.12500188085E+03 0.  0.
          2    1    1    2  501    0 -0.52687898387E+02  0.56114007692E+02 -0.90982072010E+03  0.91307093876E+03  0.00000000000E+00 0. -1.
          1    1    1    2  502    0 -0.30231613081E+02  0.42762946721E+01  0.55611204966E+03  0.55694959279E+03  0.00000000000E+00 0. -1.
         22    1    3    3    0    0  0.10862906749E+03 -0.32082416841E+02  0.80486068524E+01  0.11355322913E+03  0.00000000000E+00 0.  1.
         22    1    3    3    0    0 -0.25709556023E+02 -0.28307885523E+02  0.39542404857E+02  0.55008357870E+02  0.00000000000E+00 0.  1.
</event>
<event>
 7    1  0.5957303E-006  0.2076241E+03  0.7818608E-02  0.1270688E+00
          2   -1    0    0  502    0  0.00000000000E+00  0.00000000000E+00  0.20068653585E+04  0.20068653585E+04  0.00000000000E+00 0. -1.
          1   -1    0    0  501    0 -0.00000000000E+00 -0.00000000000E+00 -0.21997014215E+03  0.21997014215E+03  0.00000000000E+00 0. -1.
         25    2    1    2    0    0 -0.12148413599E+03  0.20278306820E+03  0.44344495689E+03  0.51782982930E+03  0.12499973713E+03 0.  0.
          2    1    1    2  501    0 -0.13416696574E+02 -0.51076988492E+02 -0.17204810280E+03  0.17997059809E+03  0.00000000000E+00 0. -1.
          1    1    1    2  502    0  0.13490083256E+03 -0.15170607970E+03  0.15154983622E+04  0.15290350732E+04  0.00000000000E+00 0. -1.
         22    1    3    3    0    0 -0.87102457224E+02  0.20003053493E+03  0.30402155954E+03  0.37420336933E+03  0.00000000000E+00 0.  1.
         22    1    3    3    0    0 -0.34381678764E+02  0.27525332653E+01  0.13942339735E+03  0.14362645997E+03  0.00000000000E+00 0.  1.
</event>
<event>
 7    1  0.5957303E-006  0.6245736E+02  0.7818608E-02  0.1453783E+00
          2   -1    0    0  502    0  0.00000000000E+00  0.00000000000E+00  0.13844845039E+03  0.13844845039E+03  0.00000000000E+00 0. -1.
          1   -1    0    0  501    0 -0.00000000000E+00 -0.00000000000E+00 -0.13409683091E+04  0.13409683091E+04  0.00000000000E+00 0. -1.
         25    2    1    2    0    0 -0.88818950363E+01 -0.38332413165E+02 -0.12317378099E+03  0.17985190210E+03  0.12500665745E+03 0.  0.
          2    1    1    2  501    0 -0.22371632347E+02  0.59258896889E+02 -0.11853730092E+04  0.11870641422E+04  0.00000000000E+00 0. -1.
          1    1    1    2  502    0  0.31253527383E+02 -0.20926483724E+02  0.10602693153E+03  0.11250071512E+03  0.00000000000E+00 0. -1.
         22    1    3    3    0    0  0.26912172685E+01 -0.81252678755E+02 -0.10250083651E+03  0.13082683953E+03  0.00000000000E+00 0. -1.
         22    1    3    3    0    0 -0.11573112305E+02  0.42920265589E+02 -0.20672944480E+02  0.49025062572E+02  0.00000000000E+00 0. -1.
</event>
<event>
 7    1  0.5957303E-006  0.4134013E+02  0.7818608E-02  0.1540089E+00
          2   -1    0    0  502    0  0.00000000000E+00  0.00000000000E+00  0.26656026953E+04  0.26656026953E+04  0.00000000000E+00 0. -1.
          1   -1    0    0  501    0 -0.00000000000E+00 -0.00000000000E+00 -0.12327841496E+04  0.12327841496E+04  0.00000000000E+00 0. -1.
         25    2    1    2    0    0 -0.39754860424E+02  0.40449254841E+02  0.12037856237E+04  0.12115861468E+04  0.12499828844E+03 0.  0.
          2    1    1    2  501    0  0.40314274602E+02 -0.91440418307E+01 -0.12283680523E+04  0.12290634346E+04  0.00000000000E+00 0. -1.
          1    1    1    2  502    0 -0.55941417822E+00 -0.31305213010E+02  0.14574009744E+04  0.14577372635E+04  0.00000000000E+00 0. -1.
         22    1    3    3    0    0 -0.87015791409E+01  0.41643838170E+02  0.11383650207E+04  0.11391597110E+04  0.00000000000E+00 0.  1.
         22    1    3    3    0    0 -0.31053281283E+02 -0.11945833298E+01  0.65420602942E+02  0.72426435761E+02  0.00000000000E+00 0.  1.
</event>
<event>
 7    1  0.5957303E-006  0.9212538E+02  0.7818608E-02  0.1456711E+00
          2   -1    0    0  502    0  0.00000000000E+00  0.00000000000E+00  0.12878749639E+04  0.12878749639E+04  0.00000000000E+00 0. -1.
          1   -1    0    0  501    0 -0.00000000000E+00 -0.00000000000E+00 -0.58866082095E+03  0.58866082095E+03  0.00000000000E+00 0. -1.
         25    2    1    2    0    0 -0.80649212699E+02  0.46696114712E+02  0.54629580375E+03  0.56811007978E+03  0.12500053966E+03 0.  0.
          2    1    1    2  501    0 -0.89018360868E+01 -0.23318213007E+02 -0.57455081508E+03  0.57509270631E+03  0.00000000000E+00 0. -1.
          1    1    1    2  502    0  0.89551048786E+02 -0.23377901705E+02  0.72746915431E+03  0.73333299878E+03  0.00000000000E+00 0. -1.
         22    1    3    3    0    0 -0.91706979593E+02  0.17790771470E+02  0.20346744667E+03  0.22388765824E+03  0.00000000000E+00 0. -1.
         22    1    3    3    0    0  0.11057766894E+02  0.28905343242E+02  0.34282835707E+03  0.34422242154E+03  0.00000000000E+00 0. -1.
</event>
<event>
 7    1  0.5957303E-006  0.1599877E+03  0.7818608E-02  0.1190452E+00
          2   -1    0    0  502    0  0.00000000000E+00  0.00000000000E+00  0.22912875556E+04  0.22912875556E+04  0.00000000000E+00 0. -1.
          1   -1    0    0  501    0 -0.00000000000E+00 -0.00000000000E+00 -0.25365278455E+03  0.25365278455E+03  0.00000000000E+00 0. -1.
         25    2    1    2    0    0 -0.59330411587E+02  0.91635247992E+02  0.21005873354E+03  0.26770691920E+03  0.12500082656E+03 0.  0.
          2    1    1    2  501    0  0.17021496144E+03  0.23693319372E+02 -0.18834876129E+03  0.25497012052E+03  0.00000000000E+00 0. -1.
          1    1    1    2  502    0 -0.11088454985E+03 -0.11532856736E+03  0.20159247988E+04  0.20222633004E+04  0.00000000000E+00 0. -1.
         22    1    3    3    0    0 -0.56805646500E+02  0.69047831785E+01  0.21785046364E+02  0.61230268251E+02  0.00000000000E+00 0. -1.
         22    1    3    3    0    0 -0.25247650874E+01  0.84730464814E+02  0.18827368717E+03  0.20647665095E+03  0.00000000000E+00 0. -1.
</event>
<event>
 7    1  0.5957303E-006  0.7308072E+02  0.7818608E-02  0.1443798E+00
          2   -1    0    0  502    0  0.00000000000E+00  0.00000000000E+00  0.33458568457E+02  0.33458568457E+02  0.00000000000E+00 0. -1.
          1   -1    0    0  501    0 -0.00000000000E+00 -0.00000000000E+00 -0.12292115269E+04  0.12292115269E+04  0.00000000000E+00 0. -1.
         25    2    1    2    0    0 -0.48976524136E+02  0.50270399970E+02 -0.82818168493E+03  0.84049667456E+03  0.12499577458E+03 0.  0.
          2    1    1    2  501    0  0.27952458888E+02  0.20396862942E+02 -0.34258217552E+03  0.34432530978E+03  0.00000000000E+00 0. -1.
          1    1    1    2  502    0  0.21024065248E+02 -0.70667262912E+02 -0.24989097969E+02  0.77848110987E+02  0.00000000000E+00 0. -1.
         22    1    3    3    0    0  0.15959531248E+02 -0.13998423246E+02 -0.28110573444E+02  0.35225939737E+02  0.00000000000E+00 0.  1.
         22    1    3    3    0    0 -0.64936055384E+02  0.64268823216E+02 -0.80007111148E+03  0.80527073482E+03  0.00000000000E+00 0.  1.
</event>
<event>
 7    1  0.5957303E-006  0.4025310E+02  0.7818608E-02  0.1529903E+00
          2   -1    0    0  502    0  0.00000000000E+00  0.00000000000E+00  0.12410029551E+03  0.12410029551E+03  0.00000000000E+00 0. -1.
          1   -1    0    0  501    0 -0.00000000000E+00 -0.00000000000E+00 -0.50825036400E+03  0.50825036400E+03  0.00000000000E+00 0. -1.
         25    2    1    2    0    0  0.64986011849E+01 -0.28755844441E+02 -0.24084052177E+03  0.27294594042E+03  0.12500479614E+03 0.  0.
          2    1    1    2  501    0  0.31362708973E+02  0.14072528655E+02 -0.24630528379E+03  0.24869247757E+03  0.00000000000E+00 0. -1.
          1    1    1    2  502    0 -0.37861310158E+02  0.14683315785E+02  0.10299573706E+03  0.11071224152E+03  0.00000000000E+00 0. -1.
         22    1    3    3    0    0  0.52894784099E+02  0.20300056122E+02 -0.14529044401E+03  0.15594634842E+03  0.00000000000E+00 0.  1.
         22    1    3    3    0    0 -0.46396182914E+02 -0.49055900562E+02 -0.95550077753E+02  0.11699959200E+03  0.00000000000E+00 0.  1.
</event>
<event>
 7    1  0.5957303E-006  0.6418584E+02  0.7818608E-02  0.1453386E+00
          2   -1    0    0  502    0  0.00000000000E+00  0.00000000000E+00  0.16876588455E+04  0.16876588455E+04  0.00000000000E+00 0. -1.
          1   -1    0    0  501    0 -0.00000000000E+00 -0.00000000000E+00 -0.93630201489E+03  0.93630201489E+03  0.00000000000E+00 0. -1.
         25    2    1    2    0    0 -0.62828967650E+02 -0.23665168691E+01  0.11874757433E+03  0.18352069477E+03  0.12500311764E+03 0.  0.
          2    1    1    2  501    0  0.77975776631E+01  0.35868376421E+02 -0.90286701149E+03  0.90361285022E+03  0.00000000000E+00 0. -1.
          1    1    1    2  502    0  0.55031389987E+02 -0.33501859552E+02  0.15354762677E+04  0.15368273154E+04  0.00000000000E+00 0. -1.
         22    1    3    3    0    0 -0.29996625701E+02  0.25775798868E+02  0.13239439103E+03  0.13817548313E+03  0.00000000000E+00 0.  1.
         22    1    3    3    0    0 -0.32832341949E+02 -0.28142315737E+02 -0.13646816697E+02  0.45345211642E+02  0.00000000000E+00 0.  1.
</event>
<event>
 7    1  0.5957303E-006  0.1361668E+03  0.7818608E-02  0.1311756E+00
          2   -1    0    0  502    0  0.00000000000E+00  0.00000000000E+00  0.32526879182E+03  0.32526879182E+03  0.00000000000E+00 0. -1.
          1   -1    0    0  501    0 -0.00000000000E+00 -0.00000000000E+00 -0.10671880078E+04  0.10671880078E+04  0.00000000000E+00 0. -1.
         25    2    1    2    0    0  0.64057117766E+02  0.14083613637E+03 -0.64583791975E+03  0.67577358501E+03  0.12500075186E+03 0.  0.
          2    1    1    2  501    0 -0.88109011859E+02 -0.91540994237E+02 -0.39388526940E+03  0.41387021764E+03  0.00000000000E+00 0. -1.
          1    1    1    2  502    0  0.24051894093E+02 -0.49295142131E+02  0.29780397321E+03  0.30281299693E+03  0.00000000000E+00 0. -1.
         22    1    3    3    0    0  0.94810251078E+02  0.74302408954E+02 -0.32327777516E+03  0.34499036450E+03  0.00000000000E+00 0. -1.
         22    1    3    3    0    0 -0.30753133312E+02  0.66533727413E+02 -0.32256014459E+03  0.33078322051E+03  0.00000000000E+00 0. -1.
</event>
<event>
 7    1  0.5957303E-006  0.2589690E+03  0.7818608E-02  0.1313292E+00
          2   -1    0    0  502    0  0.00000000000E+00  0.00000000000E+00  0.63607516552E+03  0.63607516552E+03  0.00000000000E+00 0. -1.
          1   -1    0    0  501    0 -0.00000000000E+00 -0.00000000000E+00 -0.11626589706E+04  0.11626589706E+04  0.00000000000E+00 0. -1.
         25    2    1    2    0    0 -0.27321598638E+03  0.75513047390E+02 -0.12008527068E+03  0.33225856000E+03  0.12500433160E+03 0.  0.
          2    1    1    2  501    0  0.25380282199E+02 -0.12838226260E+02 -0.90542429065E+03  0.90587092065E+03  0.00000000000E+00 0. -1.
          1    1    1    2  502    0  0.24783570418E+03 -0.62674821130E+02  0.49892575625E+03  0.56060465546E+03  0.00000000000E+00 0. -1.
         22    1    3    3    0    0 -0.73259138033E+02  0.63362819777E+01 -0.93589439521E+02  0.11902114503E+03  0.00000000000E+00 0. -1.
         22    1    3    3    0    0 -0.19995684835E+03  0.69176765413E+02 -0.26495831161E+02  0.21323741497E+03  0.00000000000E+00 0. -1.
</event>
<event>
 7    1  0.5957303E-006  0.3985653E+02  0.7818608E-02  0.1533559E+00
          2   -1    0    0  502    0  0.00000000000E+00  0.00000000000E+00  0.27458329956E+03  0.27458329956E+03  0.00000000000E+00 0. -1.
          1   -1    0    0  501    0 -0.00000000000E+00 -0.00000000000E+00 -0.75317344698E+03  0.75317344698E+03  0.00000000000E+00 0. -1.
         25    2    1    2    0    0  0.53933532496E+02 -0.48672337438E+02 -0.19714995654E+02  0.14590808331E+03  0.12499066110E+03 0.  0.
          2    1    1    2  501    0 -0.25478470954E+02  0.30261295688E+02 -0.66841551698E+03  0.66958509679E+03  0.00000000000E+00 0. -1.
          1    1    1    2  502    0 -0.28455061542E+02  0.18411041750E+02  0.20954036522E+03  0.21226356645E+03  0.00000000000E+00 0. -1.
         22    1    3    3    0    0  0.84887949158E+02 -0.67294655087E+02 -0.17347218450E+02  0.10970624642E+03  0.00000000000E+00 0.  1.
         22    1    3    3    0    0 -0.30954416662E+02  0.18622317649E+02 -0.23677772040E+01  0.36201836892E+02  0.00000000000E+00 0.  1.
</event>
<event>
 7    1  0.5957303E-006  0.6759022E+02  0.7818608E-02  0.1372724E+00
          2   -1    0    0  502    0  0.00000000000E+00  0.00000000000E+00  0.11205576115E+04  0.11205576115E+04  0.00000000000E+00 0. -1.
          1   -1    0    0  501    0 -0.00000000000E+00 -0.00000000000E+00 -0.76454958431E+03  0.76454958431E+03  0.00000000000E+00 0. -1.
         25    2    1    2    0    0  0.99442328257E+02  0.65497585053E+02 -0.11195360609E+03  0.20576016114E+03  0.12499969479E+03 0.  0.
          2    1    1    2  501    0 -0.64797467973E+02 -0.77708734075E+01 -0.60287452451E+03  0.60639656219E+03  0.00000000000E+00 0. -1.
          1    1    1    2  502    0 -0.34644860284E+02 -0.57726711646E+02  0.10708361578E+04  0.10729504725E+04  0.00000000000E+00 0. -1.
         22    1    3    3    0    0  0.27621348409E+02  0.12476828346E+02  0.27006774250E+02  0.40595270523E+02  0.00000000000E+00 0. -1.
         22    1    3    3    0    0  0.71820979848E+02  0.53020756708E+02 -0.13896038033E+03  0.16516489061E+03  0.00000000000E+00 0. -1.
</event>
<event>
 7    1  0.5957303E-006  0.7730081E+02  0.7818608E-02  0.1486600E+00
          2   -1    0    0  502    0  0.00000000000E+00  0.00000000000E+00  0.13281260465E+03  0.13281260465E+03  0.00000000000E+00 0. -1.
          1   -1    0    0  501    0 -0.00000000000E+00 -0.00000000000E+00 -0.10098735444E+04  0.10098735444E+04  0.00000000000E+00 0. -1.
         25    2    1    2    0    0  0.90949338492E+02 -0.28703891174E+02 -0.39552263116E+03  0.42562867808E+03  0.12500369715E+03 0.  0.
          2    1    1    2  501    0 -0.14779325218E+02  0.18940999040E+02 -0.58650621996E+03  0.58699807150E+03  0.00000000000E+00 0. -1.
          1    1    1    2  502    0 -0.76170013274E+02  0.97628921333E+01  0.10496791135E+03  0.13005939950E+03  0.00000000000E+00 0. -1.
         22    1    3    3    0    0  0.56738526973E+02  0.35722652435E+02 -0.94342300220E+02  0.11574039032E+03  0.00000000000E+00 0.  1.
         22    1    3    3    0    0  0.34210811519E+02 -0.64426543608E+02 -0.30118033094E+03  0.30988828776E+03  0.00000000000E+00 0.  1.
</event>
<event>
 7    1  0.5957303E-006  0.1291282E+03  0.7818608E-02  0.1284941E+00
          2   -1    0    0  502    0  0.00000000000E+00  0.00000000000E+00  0.28764034436E+04  0.28764034436E+04  0.00000000000E+00 0. -1.
          1   -1    0    0  501    0 -0.00000000000E+00 -0.00000000000E+00 -0.17206935610E+03  0.17206935610E+03  0.00000000000E+00 0. -1.
         25    2    1    2    0    0  0.99771908813E+02 -0.83542168099E+02  0.51560851697E+03  0.54626983564E+03  0.12499945166E+03 0.  0.
          2    1    1    2  501    0 -0.37972216432E+02  0.12444143858E+03 -0.12904441912E+03  0.18324852786E+03  0.00000000000E+00 0. -1.
          1    1    1    2  502    0 -0.61799692381E+02 -0.40899270480E+02  0.23177699896E+04  0.23189544362E+04  0.00000000000E+00 0. -1.
         22    1    3    3    0    0  0.90555945305E+02 -0.27600756153E+02  0.15796663267E+03  0.18416198850E+03  0.00000000000E+00 0. -1.
         22    1    3    3    0    0  0.92159635080E+01 -0.55941411945E+02  0.35764188430E+03  0.36210784714E+03  0.00000000000E+00 0. -1.
</event>
<event>
 7    1  0.5957303E-006  0.7449892E+02  0.7818608E-02  0.1384743E+00
          2   -1    0    0  502    0  0.00000000000E+00  0.00000000000E+00  0.22473432252E+03  0.22473432252E+03  0.00000000000E+00 0. -1.
          1   -1    0    0  501    0 -0.00000000000E+00 -0.00000000000E+00 -0.91381922998E+03  0.91381922998E+03  0.00000000000E+00 0. -1.
         25    2    1    2    0    0 -0.56058278774E+02  0.19057611959E+01  0.64591851010E+02  0.15146532468E+03  0.12499389913E+03 0.  0.
          2    1    1    2  501    0  0.50696080396E+02 -0.55308382169E+02 -0.86249597535E+03  0.86575309251E+03  0.00000000000E+00 0. -1.
          1    1    1    2  502    0  0.53621983783E+01  0.53402620973E+02  0.10881921688E+03  0.12133513531E+03  0.00000000000E+00 0. -1.
         22    1    3    3    0    0 -0.17929738474E+01  0.27878043340E+02 -0.28960943521E+02  0.40238492831E+02  0.00000000000E+00 0. -1.
         22    1    3    3    0    0 -0.54265304927E+02 -0.25972282144E+02  0.93552794531E+02  0.11122683185E+03  0.00000000000E+00 0. -1.
</event>
<event>
 7    1  0.5957303E-006  0.1233799E+03  0.7818608E-02  0.1358478E+00
          2   -1    0    0  502    0  0.00000000000E+00  0.00000000000E+00  0.11014391799E+04  0.11014391799E+04  0.00000000000E+00 0. -1.
          1   -1    0    0  501    0 -0.00000000000E+00 -0.00000000000E+00 -0.79687485788E+03  0.79687485788E+03  0.00000000000E+00 0. -1.
         25    2    1    2    0    0 -0.29919579785E+02  0.14245350879E+03  0.21100046248E+03  0.28518982259E+03  0.12499542520E+03 0.  0.
          2    1    1    2  501    0  0.54278820350E+02 -0.11040148595E+03 -0.75431949358E+03  0.76428566442E+03  0.00000000000E+00 0. -1.
          1    1    1    2  502    0 -0.24359240565E+02 -0.32052022845E+02  0.84788335308E+03  0.84883855072E+03  0.00000000000E+00 0. -1.
         22    1    3    3    0    0 -0.47559340690E+01  0.14748050534E+03  0.11865867168E+03  0.18934888098E+03  0.00000000000E+00 0. -1.
         22    1    3    3    0    0 -0.25163645716E+02 -0.50269965471E+01  0.92341790801E+02  0.95840941609E+02  0.00000000000E+00 0. -1.
</event>
<event>
 7    1  0.5957303E-006  0.3591097E+03  0.7818608E-02  0.1092397E+00
          2   -1    0    0  502    0  0.00000000000E+00  0.00000000000E+00  0.31606151458E+04  0.31606151458E+04  0.00000000000E+00 0. -1.
          1   -1    0    0  501    0 -0.00000000000E+00 -0.00000000000E+00 -0.68880867899E+03  0.68880867899E+03  0.00000000000E+00 0. -1.
         25    2    1    2    0    0  0.20215366981E+03 -0.50068825240E+02  0.83850911770E+01  0.24303955913E+03  0.12499969628E+03 0.  0.
          2    1    1    2  501    0  0.15714150154E+03  0.16513104147E+03 -0.53645544582E+03  0.58287748087E+03  0.00000000000E+00 0. -1.
          1    1    1    2  502    0 -0.35929517134E+03 -0.11506221623E+03  0.29998768214E+04  0.30235067848E+04  0.00000000000E+00 0. -1.
         22    1    3    3    0    0  0.43094255482E+02  0.38146149535E+02  0.19631506646E+02  0.60808220112E+02  0.00000000000E+00 0.  1.
         22    1    3    3    0    0  0.15905941432E+03 -0.88214974775E+02 -0.11246415469E+02  0.18223133902E+03  0.00000000000E+00 0.  1.
</event>
<event>
 7    1  0.5957303E-006  0.7494849E+02  0.7818608E-02  0.1421123E+00
          2   -1    0    0  502    0  0.00000000000E+00  0.00000000000E+00  0.30742094354E+04  0.30742094354E+04  0.00000000000E+00 0. -1.
          1   -1    0    0  501    0 -0.00000000000E+00 -0.00000000000E+00 -0.31826507343E+03  0.31826507343E+03  0.00000000000E+00 0. -1.
         25    2    1    2    0    0  0.22806834571E+02 -0.11226134247E+03  0.39984900033E+03  0.43431083668E+03  0.12499567621E+03 0.  0.
          2    1    1    2  501    0 -0.14977134320E+02  0.72989675012E+02 -0.29627009044E+03  0.30549594711E+03  0.00000000000E+00 0. -1.
          1    1    1    2  502    0 -0.78297002514E+01  0.39271667460E+02  0.26523654521E+04  0.26526677250E+04  0.00000000000E+00 0. -1.
         22    1    3    3    0    0  0.41727198898E+02 -0.11503970417E+03  0.39642531830E+03  0.41488350854E+03  0.00000000000E+00 0. -1.
         22    1    3    3    0    0 -0.18920364327E+02  0.27783617031E+01  0.34236820301E+01  0.19427328140E+02  0.00000000000E+00 0. -1.
</event>
<event>
 7    1  0.5957303E-006  0.4709372E+02  0.7818608E-02  0.1501380E+00
          2   -1    0    0  502    0  0.00000000000E+00  0.00000000000E+00  0.19366380203E+04  0.19366380203E+04  0.00000000000E+00 0. -1.
          1   -1    0    0  501    0 -0.00000000000E+00 -0.00000000000E+00 -0.93878406087E+02  0.93878406087E+02  0.00000000000E+00 0. -1.
         25    2    1    2    0    0  0.15021733966E+01  0.46451567100E+02  0.35577920075E+03  0.37995372836E+03  0.12500396553E+03 0.  0.
          2    1    1    2  501    0 -0.33683024014E+02 -0.11514083074E+02 -0.77540514087E+02  0.85320874003E+02  0.00000000000E+00 0. -1.
          1    1    1    2  502    0  0.32180850618E+02 -0.34937484026E+02  0.15645209275E+04  0.15652418240E+04  0.00000000000E+00 0. -1.
         22    1    3    3    0    0 -0.52787495823E+02  0.30454524986E+02  0.93286946580E+02  0.11142913537E+03  0.00000000000E+00 0. -1.
         22    1    3    3    0    0  0.54289669219E+02  0.15997042114E+02  0.26249225417E+03  0.26852459299E+03  0.00000000000E+00 0. -1.
</event>
<event>
 7    1  0.5957303E-006  0.1696024E+03  0.7818608E-02  0.1276756E+00
          2   -1    0    0  502    0  0.00000000000E+00  0.00000000000E+00  0.76288285001E+03  0.76288285001E+03  0.00000000000E+00 0. -1.
          1   -1    0    0  501    0 -0.00000000000E+00 -0.00000000000E+00 -0.60202062225E+03  0.60202062225E+03  0.00000000000E+00 0. -1.
         25    2    1    2    0    0 -0.59210943581E+02  0.93549555188E+02  0.39296304316E+03  0.42696858390E+03  0.12499905292E+03 0.  0.
          2    1    1    2  501    0  0.97751228961E+02 -0.14081438685E+03 -0.56966967770E+03  0.59490128256E+03  0.00000000000E+00 0. -1.
          1    1    1    2  502    0 -0.38540285380E+02  0.47264831664E+02  0.33756886230E+03  0.34303360580E+03  0.00000000000E+00 0. -1.
         22    1    3    3    0    0  0.28455403081E+01  0.38321690370E+02  0.17144882076E+02  0.42078450944E+02  0.00000000000E+00 0. -1.
         22    1    3    3    0    0 -0.62056483889E+02  0.55227864818E+02  0.37581816108E+03  0.38489013295E+03  0.00000000000E+00 0. -1.
</event>
<event>
 7    1  0.5957303E-006  0.3660922E+02  0.7818608E-02  0.1611703E+00
          2   -1    0    0  502    0  0.00000000000E+00  0.00000000000E+00  0.72534385853E+03  0.72534385853E+03  0.00000000000E+00 0. -1.
          1   -1    0    0  501    0 -0.00000000000E+00 -0.00000000000E+00 -0.12360138115E+04  0.12360138115E+04  0.00000000000E+00 0. -1.
         25    2    1    2    0    0 -0.30954889706E+02 -0.21651630029E+02  0.12744456001E+03  0.18246923351E+03  0.12500362804E+03 0.  0.
          2    1    1    2  501    0  0.18604028357E+02 -0.12940767799E+02 -0.12078037276E+04  0.12080163152E+04  0.00000000000E+00 0. -1.
          1    1    1    2  502    0  0.12350861349E+02  0.34592397829E+02  0.56968921457E+03  0.57087212138E+03  0.00000000000E+00 0. -1.
         22    1    3    3    0    0  0.46075431019E+02 -0.17776238645E+02  0.72700634772E+02  0.87888123772E+02  0.00000000000E+00 0.  1.
         22    1    3    3    0    0 -0.77030320725E+02 -0.38753913850E+01  0.54743925236E+02  0.94581109740E+02  0.00000000000E+00 0.  1.
</event>
<event>
 7    1  0.5957303E-006  0.9864328E+02  0.7818608E-02  0.1336420E+00
          2   -1    0    0  502    0  0.00000000000E+00  0.00000000000E+00  0.10979984250E+04  0.10979984250E+04  0.00000000000E+00 0. -1.
          1   -1    0    0  501    0 -0.00000000000E+00 -0.00000000000E+00 -0.70341186974E+03  0.70341186974E+03  0.00000000000E+00 0. -1.
         25    2    1    2    0    0 -0.57746678805E+02 -0.78986418400E+02  0.32326221908E+03  0.36013394437E+03  0.12499784956E+03 0.  0.
          2    1    1    2  501    0  0.56435636996E+02 -0.22686558482E+02 -0.68019513069E+03  0.68290927426E+03  0.00000000000E+00 0. -1.
          1    1    1    2  502    0  0.13110418094E+01  0.10167297688E+03  0.75151946685E+03  0.75836707610E+03  0.00000000000E+00 0. -1.
         22    1    3    3    0    0 -0.27924144720E+02 -0.34711919702E+02  0.29757874694E+03  0.30089497480E+03  0.00000000000E+00 0. -1.
         22    1    3    3    0    0 -0.29822534085E+02 -0.44274498698E+02  0.25683472140E+02  0.59238969567E+02  0.00000000000E+00 0. -1.
</event>
<event>
 7    1  0.5957303E-006  0.3840091E+02  0.7818608E-02  0.1553263E+00
          2   -1    0    0  502    0  0.00000000000E+00  0.00000000000E+00  0.21120262769E+04  0.21120262769E+04  0.00000000000E+00 0. -1.
          1   -1    0    0  501    0 -0.00000000000E+00 -0.00000000000E+00 -0.22009336685E+02  0.22009336685E+02  0.00000000000E+00 0. -1.
         25    2    1    2    0    0 -0.18116179036E+02  0.14955542923E+02  0.13464867631E+04  0.13524805745E+04  0.12500094745E+03 0.  0.
          2    1    1    2  501    0  0.14106360350E+02  0.27559958731E+02 -0.53834544688E+01  0.31424867694E+02  0.00000000000E+00 0. -1.
          1    1    1    2  502    0  0.40098186869E+01 -0.42515501654E+02  0.74891363159E+03  0.75013017144E+03  0.00000000000E+00 0. -1.
         22    1    3    3    0    0  0.39279485445E+02  0.24135346985E+02  0.10069290564E+04  0.10079838876E+04  0.00000000000E+00 0. -1.
         22    1    3    3    0    0 -0.57395664481E+02 -0.91798040620E+01  0.33955770670E+03  0.34449668690E+03  0.00000000000E+00 0. -1.
</event>
<event>
 7    1  0.5957303E-006  0.7141482E+02  0.7818608E-02  0.1447722E+00
          2   -1    0    0  502    0  0.00000000000E+00  0.00000000000E+00  0.10775506347E+04  0.10775506347E+04  0.00000000000E+00 0. -1.
          1   -1    0    0  501    0 -0.00000000000E+00 -0.00000000000E+00 -0.86582645493E+02  0.86582645493E+02  0.00000000000E+00 0. -1.
         25    2    1    2    0    0  0.57393888495E+02 -0.47238217779E+02  0.19250518861E+02  0.14669863517E+03  0.12499759769E+03 0.  0.
          2    1    1    2  501    0  0.12493735644E+02  0.32045772556E+02 -0.78337582055E+01  0.35275951251E+02  0.00000000000E+00 0. -1.
          1    1    1    2  502    0 -0.69887624140E+02  0.15192445223E+02  0.97955122855E+03  0.98215869378E+03  0.00000000000E+00 0. -1.
         22    1    3    3    0    0 -0.20983527665E+02 -0.38205405310E+02 -0.30704358153E+02  0.53317155192E+02  0.00000000000E+00 0.  1.
         22    1    3    3    0    0  0.78377416161E+02 -0.90328124692E+01  0.49954877014E+02  0.93381479976E+02  0.00000000000E+00 0.  1.
</event>
<event>
 7    1  0.5957303E-006  0.5404838E+02  0.7818608E-02  0.1495168E+00
          2   -1    0    0  502    0  0.00000000000E+00  0.00000000000E+00  0.28907053349E+03  0.28907053349E+03  0.00000000000E+00 0. -1.
          1   -1    0    0  501    0 -0.00000000000E+00 -0.00000000000E+00 -0.25446672821E+03  0.25446672821E+03  0.00000000000E+00 0. -1.
         25    2    1    2    0    0 -0.34797755194E+02  0.49015437556E+02 -0.16287763274E+02  0.13965566910E+03  0.12500007118E+03 0.  0.
          2    1    1    2  501    0  0.28363757684E+01 -0.54155650704E+02 -0.17112763481E+03  0.17951475407E+03  0.00000000000E+00 0. -1.
          1    1    1    2  502    0  0.31961379426E+02  0.51402131480E+01  0.22201920337E+03  0.22436683853E+03  0.00000000000E+00 0. -1.
         22    1    3    3    0    0 -0.38660318414E+02 -0.29875227241E+02  0.19924649330E+02  0.52764960661E+02  0.00000000000E+00 0.  1.
         22    1    3    3    0    0  0.38625632201E+01  0.78890664797E+02 -0.36212412604E+02  0.86890708440E+02  0.00000000000E+00 0.  1.
</event>
<event>
 7    1  0.5957303E-006  0.1073820E+03  0.7818608E-02  0.1355565E+00
          2   -1    0    0  502    0  0.00000000000E+00  0.00000000000E+00  0.13869268857E+04  0.13869268857E+04  0.00000000000E+00 0. -1.
          1   -1    0    0  501    0 -0.00000000000E+00 -0.00000000000E+00 -0.64507437692E+03  0.64507437692E+03  0.00000000000E+00 0. -1.
         25    2    1    2    0    0 -0.85743299802E+02 -0.47013973732E+02 -0.84575792786E+02  0.17983162122E+03  0.12499648027E+03 0.  0.
          2    1    1    2  501    0  0.23729297253E+02 -0.41041012932E+02 -0.50960351635E+03  0.51180385712E+03  0.00000000000E+00 0. -1.
          1    1    1    2  502    0  0.62014002548E+02  0.88054986663E+02  0.13360318179E+04  0.13403657843E+04  0.00000000000E+00 0. -1.
         22    1    3    3    0    0 -0.16497842842E+01 -0.45958142220E+02  0.16032629028E+02  0.48702338938E+02  0.00000000000E+00 0.  1.
         22    1    3    3    0    0 -0.84093515518E+02 -0.10558315115E+01 -0.10060842181E+03  0.13112928228E+03  0.00000000000E+00 0.  1.
</event>
<event>
 7    1  0.5957303E-006  0.4959758E+02  0.7818608E-02  0.1487585E+00
          2   -1    0    0  502    0  0.00000000000E+00  0.00000000000E+00  0.37676400109E+03  0.37676400109E+03  0.00000000000E+00 0. -1.
          1   -1    0    0  501    0 -0.00000000000E+00 -0.00000000000E+00 -0.58617793670E+03  0.58617793670E+03  0.00000000000E+00 0. -1.
         25    2    1    2    0    0 -0.51652610048E+02  0.59978340476E+02  0.24028348690E+03  0.28218053719E+03  0.12499723212E+03 0.  0.
          2    1    1    2  501    0  0.16907928399E+02 -0.33120868229E+02 -0.56041769617E+03  0.56165012609E+03  0.00000000000E+00 0. -1.
          1    1    1    2  502    0  0.34744681648E+02 -0.26857472247E+02  0.11072027365E+03  0.11911127451E+03  0.00000000000E+00 0. -1.
         22    1    3    3    0    0 -0.72605861252E+02  0.28607623256E+02  0.61219646235E+02  0.99185948005E+02  0.00000000000E+00 0.  1.
         22    1    3    3    0    0  0.20953251204E+02  0.31370717220E+02  0.17906384067E+03  0.18299458918E+03  0.00000000000E+00 0.  1.
</event>
<event>
 7    1  0.5957303E-006  0.1977984E+03  0.7818608E-02  0.1165669E+00
          2   -1    0    0  502    0  0.00000000000E+00  0.00000000000E+00  0.16822853722E+04  0.16822853722E+04  0.00000000000E+00 0. -1.
          1   -1    0    0  501    0 -0.00000000000E+00 -0.00000000000E+00 -0.53114604804E+03  0.53114604804E+03  0.00000000000E+00 0. -1.
         25    2    1    2    0    0 -0.61629414374E+02  0.62949005080E+02  0.59434512164E+02  0.16406791984E+03  0.12500023651E+03 0.  0.
          2    1    1    2  501    0 -0.15573707836E+03 -0.62671889594E+02 -0.45628500439E+03  0.48618700986E+03  0.00000000000E+00 0. -1.
          1    1    1    2  502    0  0.21736649274E+03 -0.27711548622E+00  0.15479898164E+04  0.15631764906E+04  0.00000000000E+00 0. -1.
         22    1    3    3    0    0 -0.24793228757E+02  0.91950960443E+02  0.67185365467E+02  0.11654851630E+03  0.00000000000E+00 0. -1.
         22    1    3    3    0    0 -0.36836185617E+02 -0.29001955363E+02 -0.77508533024E+01  0.47519403538E+02  0.00000000000E+00 0. -1.
</event>
<event>
 7    1  0.5957303E-006  0.4460345E+02  0.7818608E-02  0.1571886E+00
          2   -1    0    0  502    0  0.00000000000E+00  0.00000000000E+00  0.21904233907E+03  0.21904233907E+03  0.00000000000E+00 0. -1.
          1   -1    0    0  501    0 -0.00000000000E+00 -0.00000000000E+00 -0.72449168704E+03  0.72449168704E+03  0.00000000000E+00 0. -1.
         25    2    1    2    0    0  0.94943272746E+01 -0.40277105846E+02 -0.48084403065E+03  0.49854588721E+03  0.12499852931E+03 0.  0.
          2    1    1    2  501    0 -0.23604855829E+02 -0.20834868211E+01 -0.23181480312E+03  0.23302281666E+03  0.00000000000E+00 0. -1.
          1    1    1    2  502    0  0.14110528555E+02  0.42360592667E+02  0.20720948581E+03  0.21196532225E+03  0.00000000000E+00 0. -1.
         22    1    3    3    0    0  0.60079876239E+02  0.93110287095E+01 -0.21628142325E+03  0.22466406216E+03  0.00000000000E+00 0.  1.
         22    1    3    3    0    0 -0.50585548964E+02 -0.49588134555E+02 -0.26456260741E+03  0.27388182504E+03  0.00000000000E+00 0.  1.
</event>
<event>
 7    1  0.5957303E-006  0.9985215E+02  0.7818608E-02  0.1292987E+00
          2   -1    0    0  502    0  0.00000000000E+00  0.00000000000E+00  0.76860892642E+03  0.76860892642E+03  0.00000000000E+00 0. -1.
          1   -1    0    0  501    0 -0.00000000000E+00 -0.00000000000E+00 -0.94674544655E+03  0.94674544655E+03  0.00000000000E+00 0. -1.
         25    2    1    2    0    0 -0.13813926890E+02  0.23134198259E+01  0.35591909530E+03  0.37749455424E+03  0.12501023798E+03 0.  0.
          2    1    1    2  501    0  0.75786057992E+02 -0.66009124206E+02 -0.92829934408E+03  0.93372394383E+03  0.00000000000E+00 0. -1.
          1    1    1    2  502    0 -0.61972131103E+02  0.63695704380E+02  0.39424372865E+03  0.40413587489E+03  0.00000000000E+00 0. -1.
         22    1    3    3    0    0  0.49557287209E+02  0.18201559813E+02  0.96743182177E+02  0.11021100123E+03  0.00000000000E+00 0. -1.
         22    1    3    3    0    0 -0.63371214099E+02 -0.15888139987E+02  0.25917591312E+03  0.26728355301E+03  0.00000000000E+00 0. -1.
</event>
<event>
 7    1  0.5957303E-006  0.1605316E+03  0.7818608E-02  0.1298396E+00
          2   -1    0    0  502    0  0.00000000000E+00  0.00000000000E+00  0.44516353220E+03  0.44516353220E+03  0.00000000000E+00 0. -1.
          1   -1    0    0  501    0 -0.00000000000E+00 -0.00000000000E+00 -0.38155328829E+03  0.38155328829E+03  0.00000000000E+00 0. -1.
         25    2    1    2    0    0  0.25577764627E+02  0.15526371532E+03 -0.14646824287E+01  0.20096874328E+03  0.12500098857E+03 0.  0.
          2    1    1    2  501    0 -0.76852516131E+02 -0.14366221252E+03 -0.25433248085E+03  0.30204329385E+03  0.00000000000E+00 0. -1.
          1    1    1    2  502    0  0.51274751504E+02 -0.11601502800E+02  0.31940740718E+03  0.32370478336E+03  0.00000000000E+00 0. -1.
         22    1    3    3    0    0 -0.16363469711E+02  0.92491510697E+02  0.53027119252E+02  0.10786249612E+03  0.00000000000E+00 0.  1.
         22    1    3    3    0    0  0.41941234338E+02  0.62772204627E+02 -0.54491801681E+02  0.93106247169E+02  0.00000000000E+00 0.  1.
</event>
<event>
 7    1  0.5957303E-006  0.2010778E+03  0.7818608E-02  0.1258142E+00
          2   -1    0    0  502    0  0.00000000000E+00  0.00000000000E+00  0.30684696092E+04  0.30684696092E+04  0.00000000000E+00 0. -1.
          1   -1    0    0  501    0 -0.00000000000E+00 -0.00000000000E+00 -0.19737132993E+04  0.19737132993E+04  0.00000000000E+00 0. -1.
         25    2    1    2    0    0  0.15529795213E+03  0.11127934324E+03 -0.76493502934E+03  0.79828036381E+03  0.12500157581E+03 0.  0.
          2    1    1    2  501    0  0.36249634653E+02 -0.49842194870E+02 -0.11879911142E+04  0.11895886549E+04  0.00000000000E+00 0. -1.
          1    1    1    2  502    0 -0.19154758679E+03 -0.61437148365E+02  0.30476824533E+04  0.30543138898E+04  0.00000000000E+00 0. -1.
         22    1    3    3    0    0  0.96779375203E+02  0.88159225041E+02 -0.27782934348E+03  0.30712772672E+03  0.00000000000E+00 0.  1.
         22    1    3    3    0    0  0.58518576931E+02  0.23120118194E+02 -0.48710568587E+03  0.49115263708E+03  0.00000000000E+00 0.  1.
</event>
<event>
 7    1  0.5957303E-006  0.1020349E+03  0.7818608E-02  0.1289366E+00
          2   -1    0    0  502    0  0.00000000000E+00  0.00000000000E+00  0.93387374858E+03  0.93387374858E+03  0.00000000000E+00 0. -1.
          1   -1    0    0  501    0 -0.00000000000E+00 -0.00000000000E+00 -0.20750218445E+04  0.20750218445E+04  0.00000000000E+00 0. -1.
         25    2    1    2    0    0  0.28098588816E+02 -0.56428515563E+02  0.67626485953E+02  0.15547578618E+03  0.12500268167E+03 0.  0.
          2    1    1    2  501    0 -0.10267642751E+03  0.61172041123E+01 -0.20273290354E+04  0.20299366707E+04  0.00000000000E+00 0. -1.
          1    1    1    2  502    0  0.74577838690E+02  0.50311311450E+02  0.81855445361E+03  0.82348313620E+03  0.00000000000E+00 0. -1.
         22    1    3    3    0    0  0.17271553056E+02 -0.94546343208E+02  0.29625155519E+02  0.10057319423E+03  0.00000000000E+00 0. -1.
         22    1    3    3    0    0  0.10827035759E+02  0.38117827646E+02  0.38001330434E+02  0.54902591947E+02  0.00000000000E+00 0. -1.
</event>
<event>
 7    1  0.5957303E-006  0.4608925E+02  0.7818608E-02  0.1586674E+00
          2   -1    0    0  502    0  0.00000000000E+00  0.00000000000E+00  0.22114653068E+03  0.22114653068E+03  0.00000000000E+00 0. -1.
          1   -1    0    0  501    0 -0.00000000000E+00 -0.00000000000E+00 -0.26957224291E+03  0.26957224291E+03  0.00000000000E+00 0. -1.
         25    2    1    2    0    0 -0.21652938474E+02 -0.48231903759E+02 -0.12841186556E+02  0.13632779877E+03  0.12500082544E+03 0.  0.
          2    1    1    2  501    0  0.33782421398E+02  0.31175265127E+02 -0.19156972456E+03  0.19700788948E+03  0.00000000000E+00 0. -1.
          1    1    1    2  502    0 -0.12129482924E+02  0.17056638632E+02  0.15598519889E+03  0.15738308533E+03  0.00000000000E+00 0. -1.
         22    1    3    3    0    0 -0.57497714253E+01 -0.88145757176E+02  0.77704341565E+01  0.88674201584E+02  0.00000000000E+00 0.  1.
         22    1    3    3    0    0 -0.15903167049E+02  0.39913853416E+02 -0.20611620713E+02  0.47653597190E+02  0.00000000000E+00 0.  1.
</event>
<event>
 7    1  0.5957303E-006  0.1125188E+03  0.7818608E-02  0.1406738E+00
          2   -1    0    0  502    0  0.00000000000E+00  0.00000000000E+00  0.22643117803E+04  0.22643117803E+04  0.00000000000E+00 0. -1.
          1   -1    0    0  501    0 -0.00000000000E+00 -0.00000000000E+00 -0.41178576464E+03  0.41178576464E+03  0.00000000000E+00 0. -1.
         25    2    1    2    0    0  0.43710907067E+02  0.72677064267E+02 -0.26628454742E+03  0.30614590760E+03  0.12500102991E+03 0.  0.
          2    1    1    2  501    0  0.34848648283E+01  0.29618799543E+02 -0.12236473593E+03  0.12594660046E+03  0.00000000000E+00 0. -1.
          1    1    1    2  502    0 -0.47195771896E+02 -0.10229586381E+03  0.22411752990E+04  0.22440050368E+04  0.00000000000E+00 0. -1.
         22    1    3    3    0    0  0.21639274662E+02  0.42425444213E+02 -0.26439564902E+03  0.26865076912E+03  0.00000000000E+00 0. -1.
         22    1    3    3    0    0  0.22071632406E+02  0.30251620054E+02 -0.18888983997E+01  0.37495138486E+02  0.00000000000E+00 0. -1.
</event>
<event>
 7    1  0.5957303E-006  0.3917598E+02  0.7818608E-02  0.1564413E+00
          2   -1    0    0  502    0  0.00000000000E+00  0.00000000000E+00  0.30162816472E+03  0.30162816472E+03  0.00000000000E+00 0. -1.
          1   -1    0    0  501    0 -0.00000000000E+00 -0.00000000000E+00 -0.44773465876E+03  0.44773465876E+03  0.00000000000E+00 0. -1.
         25    2    1    2    0    0  0.64879941723E+01 -0.10155074182E+02 -0.16476337165E+03  0.20716368464E+03  0.12499841598E+03 0.  0.
          2    1    1    2  501    0  0.26763432156E+01 -0.28146999297E+02 -0.25961706337E+03  0.26115213186E+03  0.00000000000E+00 0. -1.
          1    1    1    2  502    0 -0.91643373879E+01  0.38302073479E+02  0.27827394097E+03  0.28104700699E+03  0.00000000000E+00 0. -1.
         22    1    3    3    0    0 -0.50021657839E+01 -0.20714879859E+02 -0.18238474757E+03  0.18362549947E+03  0.00000000000E+00 0. -1.
         22    1    3    3    0    0  0.11490159956E+02  0.10559805677E+02  0.17621375922E+02  0.23538185170E+02  0.00000000000E+00 0. -1.
</event>
<event>
 7    1  0.5957303E-006  0.5901956E+02  0.7818608E-02  0.1451377E+00
          2   -1    0    0  502    0  0.00000000000E+00  0.00000000000E+00  0.90962320444E+03  0.90962320444E+03  0.00000000000E+00 0. -1.
          1   -1    0    0  501    0 -0.00000000000E+00 -0.00000000000E+00 -0.20396282047E+04  0.20396282047E+04  0.00000000000E+00 0. -1.
         25    2    1    2    0    0 -0.43364541080E+02 -0.88650140548E+02  0.70889429837E+02  0.17432529176E+03  0.12499866096E+03 0.  0.
          2    1    1    2  501    0  0.16944502796E+02  0.36798640359E+02 -0.19866277035E+04  0.19870407365E+04  0.00000000000E+00 0. -1.
          1    1    1    2  502    0  0.26420038285E+02  0.51851500189E+02  0.78573327341E+03  0.78788538090E+03  0.00000000000E+00 0. -1.
         22    1    3    3    0    0 -0.78037139095E+02 -0.94765335128E+02  0.64027897178E+02  0.13845517483E+03  0.00000000000E+00 0.  1.
         22    1    3    3    0    0  0.34672598014E+02  0.61151945806E+01  0.68615326587E+01  0.35870116925E+02  0.00000000000E+00 0.  1.
</event>
<event>
 7    1  0.5957303E-006  0.5795897E+02  0.7818608E-02  0.1408679E+00
          2   -1    0    0  502    0  0.00000000000E+00  0.00000000000E+00  0.67658345445E+03  0.67658345445E+03  0.00000000000E+00 0. -1.
          1   -1    0    0  501    0 -0.00000000000E+00 -0.00000000000E+00 -0.31389537523E+02  0.31389537523E+02  0.00000000000E+00 0. -1.
         25    2    1    2    0    0  0.15111726193E+02  0.16659108062E+02  0.36433633389E+03  0.38583834988E+03  0.12499751156E+03 0.  0.
          2    1    1    2  501    0  0.18135867467E+02 -0.62987851094E+02  0.45063133650E+02  0.79542850644E+02  0.00000000000E+00 0. -1.
          1    1    1    2  502    0 -0.33247593660E+02  0.46328743032E+02  0.23579444939E+03  0.24259179144E+03  0.00000000000E+00 0. -1.
         22    1    3    3    0    0  0.47162923091E+02  0.57777833340E+02  0.22705851578E+03  0.23899411902E+03  0.00000000000E+00 0. -1.
         22    1    3    3    0    0 -0.32051196898E+02 -0.41118725278E+02  0.13727781811E+03  0.14684423086E+03  0.00000000000E+00 0. -1.
</event>
<event>
 7    1  0.5957303E-006  0.1454511E+03  0.7818608E-02  0.1278083E+00
          2   -1    0    0  502    0  0.00000000000E+00  0.00000000000E+00  0.27709866590E+04  0.27709866590E+04  0.00000000000E+00 0. -1.
          1   -1    0    0  501    0 -0.00000000000E+00 -0.00000000000E+00 -0.35732806466E+03  0.35732806466E+03  0.00000000000E+00 0. -1.
         25    2    1    2    0    0 -0.13670737132E+03  0.14959908174E+03  0.11606015884E+04  0.11847748135E+04  0.12500608376E+03 0.  0.
          2    1    1    2  501    0  0.47412822970E+02 -0.51792274330E+02 -0.33889283684E+03  0.34609069667E+03  0.00000000000E+00 0. -1.
          1    1    1    2  502    0  0.89294548348E+02 -0.97806807407E+02  0.15919498428E+04  0.15974492136E+04  0.00000000000E+00 0. -1.
         22    1    3    3    0    0 -0.60376501045E+02 -0.61908300429E+01  0.21555261062E+03  0.22393431225E+03  0.00000000000E+00 0.  1.
         22    1    3    3    0    0 -0.76330870273E+02  0.15578991178E+03  0.94504897777E+03  0.96084050121E+03  0.00000000000E+00 0.  1.
</event>
<event>
 7    1  0.5957303E-006  0.9883899E+02  0.7818608E-02  0.1373974E+00
          2   -1    0    0  502    0  0.00000000000E+00  0.00000000000E+00  0.26762293301E+04  0.26762293301E+04  0.00000000000E+00 0. -1.
          1   -1    0    0  501    0 -0.00000000000E+00 -0.00000000000E+00 -0.22904973923E+02  0.22904973923E+02  0.00000000000E+00 0. -1.
         25    2    1    2    0    0  0.64500305890E+02  0.66500180354E+02  0.85409319544E+03  0.86814903055E+03  0.12499995719E+03 0.  0.
          2    1    1    2  501    0 -0.31970429024E+02 -0.96381875826E+02  0.14986576435E+03  0.18102851058E+03  0.00000000000E+00 0. -1.
          1    1    1    2  502    0 -0.32529876866E+02  0.29881695472E+02  0.16493653964E+04  0.16499567629E+04  0.00000000000E+00 0. -1.
         22    1    3    3    0    0  0.47196212802E+02 -0.14839932977E+02  0.12668948185E+03  0.13600709881E+03  0.00000000000E+00 0.  1.
         22    1    3    3    0    0  0.17304093088E+02  0.81340113331E+02  0.72740371359E+03  0.73214193174E+03  0.00000000000E+00 0.  1.
</event>
<event>
 7    1  0.5957303E-006  0.1388952E+03  0.7818608E-02  0.1324974E+00
          2   -1    0    0  502    0  0.00000000000E+00  0.00000000000E+00  0.27950570981E+04  0.27950570981E+04  0.00000000000E+00 0. -1.
          1   -1    0    0  501    0 -0.00000000000E+00 -0.00000000000E+00 -0.19639854676E+04  0.19639854676E+04  0.00000000000E+00 0. -1.
         25    2    1    2    0    0  0.11098830789E+02 -0.13418469548E+03  0.81646013591E+02  0.20104581334E+03  0.12499852391E+03 0.  0.
          2    1    1    2  501    0 -0.47768429033E+02 -0.16782373513E+00 -0.19021583231E+04  0.19027580343E+04  0.00000000000E+00 0. -1.
          1    1    1    2  502    0  0.36669598243E+02  0.13435251921E+03  0.26515839400E+04  0.26552387180E+04  0.00000000000E+00 0. -1.
         22    1    3    3    0    0  0.19593620331E+02 -0.15691145994E+03  0.78617402463E+02  0.17659505143E+03  0.00000000000E+00 0.  1.
         22    1    3    3    0    0 -0.84947895417E+01  0.22726764465E+02  0.30286111283E+01  0.24450761906E+02  0.00000000000E+00 0.  1.
</event>
<event>
 7    1  0.5957303E-006  0.4639633E+03  0.7818608E-02  0.1166963E+00
          2   -1    0    0  502    0  0.00000000000E+00  0.00000000000E+00  0.50678787147E+03  0.50678787147E+03  0.00000000000E+00 0. -1.
          1   -1    0    0  501    0 -0.00000000000E+00 -0.00000000000E+00 -0.23748266607E+04  0.23748266607E+04  0.00000000000E+00 0. -1.
         25    2    1    2    0    0 -0.25247643085E+03  0.31189366073E+03  0.18306205045E+03  0.45843146039E+03  0.12500274326E+03 0.  0.
          2    1    1    2  501    0  0.27762921635E+03 -0.37776499598E+03 -0.22047951630E+04  0.22540865300E+04  0.00000000000E+00 0. -1.
          1    1    1    2  502    0 -0.25152785495E+02  0.65871335253E+02  0.15369432331E+03  0.16909654179E+03  0.00000000000E+00 0. -1.
         22    1    3    3    0    0 -0.28914731022E+02  0.75944835552E+02 -0.75666605712E+01  0.81614545697E+02  0.00000000000E+00 0.  1.
         22    1    3    3    0    0 -0.22356169983E+03  0.23594882518E+03  0.19062871103E+03  0.37681691470E+03  0.00000000000E+00 0.  1.
</event>
<event>
 7    1  0.5957303E-006  0.7388434E+02  0.7818608E-02  0.1473495E+00
          2   -1    0    0  502    0  0.00000000000E+00  0.00000000000E+00  0.22623505382E+04  0.22623505382E+04  0.00000000000E+00 0. -1.
          1   -1    0    0  501    0 -0.00000000000E+00 -0.00000000000E+00 -0.14835323831E+03  0.14835323831E+03  0.00000000000E+00 0. -1.
         25    2    1    2    0    0  0.40037958071E+02  0.86988827278E+02 -0.63614011439E+02  0.16982841928E+03  0.12499942154E+03 0.  0.
          2    1    1    2  501    0 -0.23002948928E+02 -0.15203956034E+02 -0.24885762417E+02  0.37142928122E+02  0.00000000000E+00 0. -1.
          1    1    1    2  502    0 -0.17035009144E+02 -0.71784871244E+02  0.22024970737E+04  0.22037324291E+04  0.00000000000E+00 0. -1.
         22    1    3    3    0    0  0.50898342049E+02  0.88841893109E+02 -0.93077469796E+02  0.13837246322E+03  0.00000000000E+00 0. -1.
         22    1    3    3    0    0 -0.10860383978E+02 -0.18530658316E+01  0.29463458357E+02  0.31455956057E+02  0.00000000000E+00 0. -1.
</event>
<event>
 7    1  0.5957303E-006  0.7496189E+02  0.7818608E-02  0.1452450E+00
          2   -1    0    0  502    0  0.00000000000E+00  0.00000000000E+00  0.42579021412E+03  0.42579021412E+03  0.00000000000E+00 0. -1.
          1   -1    0    0  501    0 -0.00000000000E+00 -0.00000000000E+00 -0.45702038896E+03  0.45702038896E+03  0.00000000000E+00 0. -1.
         25    2    1    2    0    0 -0.59689087601E+02 -0.38129204854E+02 -0.36581594477E+03  0.39301766340E+03  0.12499981943E+03 0.  0.
          2    1    1    2  501    0  0.51046419759E+02  0.68572327497E+02 -0.53219471904E+02  0.10069862590E+03  0.00000000000E+00 0. -1.
          1    1    1    2  502    0  0.86426678423E+01 -0.30443122643E+02  0.38780524183E+03  0.38909431378E+03  0.00000000000E+00 0. -1.
         22    1    3    3    0    0 -0.74466378074E+02  0.12852179634E+02 -0.29495303348E+03  0.30447941136E+03  0.00000000000E+00 0.  1.
         22    1    3    3    0    0  0.14777290473E+02 -0.50981384489E+02 -0.70862911293E+02  0.88538252044E+02  0.00000000000E+00 0.  1.
</event>
<event>
 7    1  0.5957303E-006  0.6584831E+02  0.7818608E-02  0.1385881E+00
          2   -1    0    0  502    0  0.00000000000E+00  0.00000000000E+00  0.70739659847E+03  0.70739659847E+03  0.00000000000E+00 0. -1.
          1   -1    0    0  501    0 -0.00000000000E+00 -0.00000000000E+00 -0.10341080818E+04  0.10341080818E+04  0.00000000000E+00 0. -1.
         25    2    1    2    0    0 -0.85916044575E+02  0.38158401620E+02  0.10798699190E+03  0.19006192997E+03  0.12499886590E+03 0.  0.
          2    1    1    2  501    0  0.63391454282E+02  0.17631550285E+02 -0.99035503609E+03  0.99253838492E+03  0.00000000000E+00 0. -1.
          1    1    1    2  502    0  0.22524590293E+02 -0.55789951905E+02  0.55565656090E+03  0.55890436532E+03  0.00000000000E+00 0. -1.
         22    1    3    3    0    0 -0.41976471698E+02 -0.11549233774E+02 -0.18443368000E+02  0.47281780848E+02  0.00000000000E+00 0. -1.
         22    1    3    3    0    0 -0.43939572877E+02  0.49707635394E+02  0.12643035990E+03  0.14278014913E+03  0.00000000000E+00 0. -1.
</event>
<event>
 7    1  0.5957303E-006  0.1657338E+03  0.7818608E-02  0.1269857E+00
          2   -1    0    0  502    0  0.00000000000E+00  0.00000000000E+00  0.93805467949E+03  0.93805467949E+03  0.00000000000E+00 0. -1.
          1   -1    0    0  501    0 -0.00000000000E+00 -0.00000000000E+00 -0.16288737428E+03  0.16288737428E+03  0.00000000000E+00 0. -1.
         25    2    1    2    0    0  0.62176131238E+02  0.15777347684E+03  0.19591726843E+03  0.28769439142E+03  0.12500458191E+03 0.  0.
          2    1    1    2  501    0  0.54735934000E+02 -0.38101715918E+02 -0.96384221677E+02  0.11720785560E+03  0.00000000000E+00 0. -1.
          1    1    1    2  502    0 -0.11691206524E+03 -0.11967176092E+03  0.67563425847E+03  0.69603980675E+03  0.00000000000E+00 0. -1.
         22    1    3    3    0    0  0.52719170640E+02  0.69462795489E+02  0.17637388197E+03  0.19675400162E+03  0.00000000000E+00 0. -1.
         22    1    3    3    0    0  0.94569605988E+01  0.88310681348E+02  0.19543386454E+02  0.90940389805E+02  0.00000000000E+00 0. -1.
</event>
<event>
 7    1  0.5957303E-006  0.1132749E+03  0.7818608E-02  0.1294502E+00
          2   -1    0    0  502    0  0.00000000000E+00  0.00000000000E+00  0.88349103187E+03  0.88349103187E+03  0.00000000000E+00 0. -1.
          1   -1    0    0  501    0 -0.00000000000E+00 -0.00000000000E+00 -0.55773335570E+03  0.55773335570E+03  0.00000000000E+00 0. -1.
         25    2    1    2    0    0 -0.58815865935E+02  0.63557670309E+02  0.47578305863E+02  0.15933587840E+03  0.12500137366E+03 0.  0.
          2    1    1    2  501    0  0.24472956443E+01 -0.11636603997E+03 -0.49315114684E+03  0.50670020539E+03  0.00000000000E+00 0. -1.
          1    1    1    2  502    0  0.56368570290E+02  0.52808369663E+02  0.77133051715E+03  0.77518830377E+03  0.00000000000E+00 0. -1.
         22    1    3    3    0    0 -0.55242333536E+02  0.47509752417E+02  0.88852796372E+02  0.11490740365E+03  0.00000000000E+00 0.  1.
         22    1    3    3    0    0 -0.35735323980E+01  0.16047917892E+02 -0.41274490509E+02  0.44428474757E+02  0.00000000000E+00 0.  1.
</event>
<event>
 7    1  0.5957303E-006  0.8894135E+02  0.7818608E-02  0.1487970E+00
          2   -1    0    0  502    0  0.00000000000E+00  0.00000000000E+00  0.38993338037E+04  0.38993338037E+04  0.00000000000E+00 0. -1.
          1   -1    0    0  501    0 -0.00000000000E+00 -0.00000000000E+00 -0.49055020997E+03  0.49055020997E+03  0.00000000000E+00 0. -1.
         25    2    1    2    0    0  0.31083427349E+02 -0.78071296121E+02 -0.37294163229E+03  0.40220317539E+03  0.12498250464E+03 0.  0.
          2    1    1    2  501    0 -0.18140070897E+02 -0.99327433819E+01 -0.10142493288E+03  0.10351202140E+03  0.00000000000E+00 0. -1.
          1    1    1    2  502    0 -0.12943356452E+02  0.88004039503E+02  0.38831501589E+04  0.38841688169E+04  0.00000000000E+00 0. -1.
         22    1    3    3    0    0  0.45537372993E+02  0.15116622680E+02 -0.69559076467E+02  0.84502246948E+02  0.00000000000E+00 0. -1.
         22    1    3    3    0    0 -0.14453945645E+02 -0.93187918801E+02 -0.30338255583E+03  0.31770092845E+03  0.00000000000E+00 0. -1.
</event>
<event>
 7    1  0.5957303E-006  0.1005313E+03  0.7818608E-02  0.1382082E+00
          2   -1    0    0  502    0  0.00000000000E+00  0.00000000000E+00  0.63929866641E+03  0.63929866641E+03  0.00000000000E+00 0. -1.
          1   -1    0    0  501    0 -0.00000000000E+00 -0.00000000000E+00 -0.10999740747E+04  0.10999740747E+04  0.00000000000E+00 0. -1.
         25    2    1    2    0    0 -0.33351069358E+02 -0.11769537984E+03 -0.25516303133E+03  0.30934985449E+03  0.12499865460E+03 0.  0.
          2    1    1    2  501    0  0.36702270881E+02  0.17454381977E+02 -0.81309880503E+03  0.81411386113E+03  0.00000000000E+00 0. -1.
          1    1    1    2  502    0 -0.33512015221E+01  0.10024099786E+03  0.60758642812E+03  0.61580902546E+03  0.00000000000E+00 0. -1.
         22    1    3    3    0    0  0.37372130149E+02 -0.68188962706E+02 -0.17518752714E+03  0.19166919526E+03  0.00000000000E+00 0. -1.
         22    1    3    3    0    0 -0.70723199508E+02 -0.49506417131E+02 -0.79975504192E+02  0.11768065923E+03  0.00000000000E+00 0. -1.
</event>
<event>
 7    1  0.5957303E-006  0.1100012E+03  0.7818608E-02  0.1307136E+00
          2   -1    0    0  502    0  0.00000000000E+00  0.00000000000E+00  0.37597977857E+02  0.37597977857E+02  0.00000000000E+00 0. -1.
          1   -1    0    0  501    0 -0.00000000000E+00 -0.00000000000E+00 -0.49033856822E+04  0.49033856822E+04  0.00000000000E+00 0. -1.
         25    2    1    2    0    0 -0.19318111480E+02 -0.15997768352E+02 -0.19086882290E+03  0.22953073577E+03  0.12499733231E+03 0.  0.
          2    1    1    2  501    0 -0.10722865591E+03  0.24541574962E+02 -0.44638615243E+04  0.44652166780E+04  0.00000000000E+00 0. -1.
          1    1    1    2  502    0  0.12654676739E+03 -0.85438066108E+01 -0.21105735712E+03  0.24623624624E+03  0.00000000000E+00 0. -1.
         22    1    3    3    0    0 -0.18603454566E+02 -0.68671001506E+02 -0.13589243568E+03  0.15339018562E+03  0.00000000000E+00 0.  1.
         22    1    3    3    0    0 -0.71465691350E+00  0.52673233155E+02 -0.54976387223E+02  0.76140550153E+02  0.00000000000E+00 0.  1.
</event>
<event>
 7    1  0.5957303E-006  0.8821723E+02  0.7818608E-02  0.1356590E+00
          2   -1    0    0  502    0  0.00000000000E+00  0.00000000000E+00  0.39098421869E+04  0.39098421869E+04  0.00000000000E+00 0. -1.
          1   -1    0    0  501    0 -0.00000000000E+00 -0.00000000000E+00 -0.40032418168E+03  0.40032418168E+03  0.00000000000E+00 0. -1.
         25    2    1    2    0    0  0.86591770146E+02 -0.12008159663E+02  0.66157357210E+03  0.67893097468E+03  0.12500138608E+03 0.  0.
          2    1    1    2  501    0 -0.89388562205E+01  0.56505479334E+02 -0.38893452691E+03  0.39311936937E+03  0.00000000000E+00 0. -1.
          1    1    1    2  502    0 -0.77652913925E+02 -0.44497319671E+02  0.32368789600E+04  0.32381160246E+04  0.00000000000E+00 0. -1.
         22    1    3    3    0    0 -0.49742733696E+01 -0.49999185230E+02  0.16188162791E+03  0.16950021644E+03  0.00000000000E+00 0.  1.
         22    1    3    3    0    0  0.91566043515E+02  0.37991025567E+02  0.49969194419E+03  0.50943075824E+03  0.00000000000E+00 0.  1.
</event>
<event>
 7    1  0.5957303E-006  0.7732473E+02  0.7818608E-02  0.1513154E+00
          2   -1    0    0  502    0  0.00000000000E+00  0.00000000000E+00  0.93354541070E+02  0.93354541070E+02  0.00000000000E+00 0. -1.
          1   -1    0    0  501    0 -0.00000000000E+00 -0.00000000000E+00 -0.50547707712E+03  0.50547707712E+03  0.00000000000E+00 0. -1.
         25    2    1    2    0    0  0.19133759782E+02 -0.73960229889E+02 -0.38040465017E+01  0.14654335424E+03  0.12499707010E+03 0.  0.
          2    1    1    2  501    0  0.19494035686E+02  0.45184320521E+01 -0.35729486442E+03  0.35785479429E+03  0.00000000000E+00 0. -1.
          1    1    1    2  502    0 -0.38627795468E+02  0.69441797837E+02 -0.51023625121E+02  0.94433469649E+02  0.00000000000E+00 0. -1.
         22    1    3    3    0    0  0.60135049166E+02  0.15360847633E+00  0.92550004855E+01  0.60843263947E+02  0.00000000000E+00 0. -1.
         22    1    3    3    0    0 -0.41001289384E+02 -0.74113838365E+02 -0.13059046987E+02  0.85700090295E+02  0.00000000000E+00 0. -1.
</event>
<event>
 7    1  0.5957303E-006  0.5117442E+02  0.7818608E-02  0.1466344E+00
          2   -1    0    0  502    0  0.00000000000E+00  0.00000000000E+00  0.74620417692E+03  0.74620417692E+03  0.00000000000E+00 0. -1.
          1   -1    0    0  501    0 -0.00000000000E+00 -0.00000000000E+00 -0.18530375409E+03  0.18530375409E+03  0.00000000000E+00 0. -1.
         25    2    1    2    0    0 -0.88614414995E+02 -0.26813613564E+02  0.37908430477E+03  0.40975831387E+03  0.12500192497E+03 0.  0.
          2    1    1    2  501    0  0.49159187394E+02  0.12703643478E+02 -0.16488497446E+03  0.17252554323E+03  0.00000000000E+00 0. -1.
          1    1    1    2  502    0  0.39455227601E+02  0.14109970086E+02  0.34670109253E+03  0.34922407391E+03  0.00000000000E+00 0. -1.
         22    1    3    3    0    0 -0.95291786596E+02 -0.17346367847E+02  0.13913035141E+03  0.16952485290E+03  0.00000000000E+00 0.  1.
         22    1    3    3    0    0  0.66773716007E+01 -0.94672457165E+01  0.23995395336E+03  0.24023346097E+03  0.00000000000E+00 0.  1.
</event>
<event>
 7    1  0.5957303E-006  0.1382398E+03  0.7818608E-02  0.1290144E+00
          2   -1    0    0  502    0  0.00000000000E+00  0.00000000000E+00  0.15897345428E+04  0.15897345428E+04  0.00000000000E+00 0. -1.
          1   -1    0    0  501    0 -0.00000000000E+00 -0.00000000000E+00 -0.13065558762E+04  0.13065558762E+04  0.00000000000E+00 0. -1.
         25    2    1    2    0    0  0.15801580587E+03  0.23530796067E+02  0.22775530085E+03  0.30499119679E+03  0.12499783912E+03 0.  0.
          2    1    1    2  501    0 -0.25713572252E+02 -0.60696285424E+02 -0.12635087917E+04  0.12652271313E+04  0.00000000000E+00 0. -1.
          1    1    1    2  502    0 -0.13230223362E+03  0.37165489357E+02  0.13189321575E+04  0.13260720910E+04  0.00000000000E+00 0. -1.
         22    1    3    3    0    0  0.16895167551E+03  0.32986578080E+02  0.23292975063E+03  0.28963606771E+03  0.00000000000E+00 0. -1.
         22    1    3    3    0    0 -0.10935869644E+02 -0.94557820127E+01 -0.51744497803E+01  0.15355129074E+02  0.00000000000E+00 0. -1.
</event>
<event>
 7    1  0.5957303E-006  0.7618909E+02  0.7818608E-02  0.1357739E+00
          2   -1    0    0  502    0  0.00000000000E+00  0.00000000000E+00  0.23504778282E+03  0.23504778282E+03  0.00000000000E+00 0. -1.
          1   -1    0    0  501    0 -0.00000000000E+00 -0.00000000000E+00 -0.40113443454E+03  0.40113443454E+03  0.00000000000E+00 0. -1.
         25    2    1    2    0    0 -0.16563416480E+02 -0.23547057626E+02 -0.13632512078E+03  0.18718391585E+03  0.12499787642E+03 0.  0.
          2    1    1    2  501    0  0.65608326004E+02  0.67113224713E+02 -0.22459554233E+03  0.24341691603E+03  0.00000000000E+00 0. -1.
          1    1    1    2  502    0 -0.49044909525E+02 -0.43566167088E+02  0.19483401138E+03  0.20558138548E+03  0.00000000000E+00 0. -1.
         22    1    3    3    0    0 -0.11278476845E+02 -0.55794263714E+02 -0.14292800311E+03  0.15384608535E+03  0.00000000000E+00 0. -1.
         22    1    3    3    0    0 -0.52849396345E+01  0.32247206088E+02  0.66028823362E+01  0.33337830502E+02  0.00000000000E+00 0. -1.
</event>
<event>
 7    1  0.5957303E-006  0.1357475E+03  0.7818608E-02  0.1272363E+00
          2   -1    0    0  502    0  0.00000000000E+00  0.00000000000E+00  0.74055353951E+03  0.74055353951E+03  0.00000000000E+00 0. -1.
          1   -1    0    0  501    0 -0.00000000000E+00 -0.00000000000E+00 -0.65983249571E+03  0.65983249571E+03  0.00000000000E+00 0. -1.
         25    2    1    2    0    0 -0.65968173194E+02  0.13688945272E+03  0.20510727903E+03  0.28422905780E+03  0.12500655682E+03 0.  0.
          2    1    1    2  501    0 -0.13492533930E+02 -0.13524116720E+03 -0.60955401024E+03  0.62452246812E+03  0.00000000000E+00 0. -1.
          1    1    1    2  502    0  0.79460707124E+02 -0.16482855140E+01  0.48516777501E+03  0.49163450929E+03  0.00000000000E+00 0. -1.
         22    1    3    3    0    0 -0.35966375736E+02  0.60494335473E+02  0.81424659065E+01  0.70848038498E+02  0.00000000000E+00 0. -1.
         22    1    3    3    0    0 -0.30001797458E+02  0.76395117243E+02  0.19696481313E+03  0.21338101930E+03  0.00000000000E+00 0. -1.
</event>
<event>
 7    1  0.5957303E-006  0.1930265E+03  0.7818608E-02  0.1217378E+00
          2   -1    0    0  502    0  0.00000000000E+00  0.00000000000E+00  0.26314085652E+04  0.26314085652E+04  0.00000000000E+00 0. -1.
          1   -1    0    0  501    0 -0.00000000000E+00 -0.00000000000E+00 -0.13116807783E+03  0.13116807783E+03  0.00000000000E+00 0. -1.
         25    2    1    2    0    0  0.12416307811E+03 -0.16811402021E+03  0.12146028759E+03  0.27213377517E+03  0.12500158548E+03 0.  0.
          2    1    1    2  501    0  0.49760029832E+02  0.83592829744E+02 -0.63476591835E+01  0.97489048260E+02  0.00000000000E+00 0. -1.
          1    1    1    2  502    0 -0.17392310794E+03  0.84521190466E+02  0.23851278589E+04  0.23929538196E+04  0.00000000000E+00 0. -1.
         22    1    3    3    0    0  0.69864601766E+02 -0.16892453486E+03  0.11829105955E+03  0.21773684995E+03  0.00000000000E+00 0.  1.
         22    1    3    3    0    0  0.54298476340E+02  0.81051465182E+00  0.31692280394E+01  0.54396925219E+02  0.00000000000E+00 0.  1.
</event>
<event>
 7    1  0.5957303E-006  0.5859165E+02  0.7818608E-02  0.1410313E+00
          2   -1    0    0  502    0  0.00000000000E+00  0.00000000000E+00  0.68312030926E+03  0.68312030926E+03  0.00000000000E+00 0. -1.
          1   -1    0    0  501    0 -0.00000000000E+00 -0.00000000000E+00 -0.13850186796E+04  0.13850186796E+04  0.00000000000E+00 0. -1.
         25    2    1    2    0    0  0.34448700765E+02 -0.87683388855E+01  0.26038040013E+03  0.29100939002E+03  0.12499966223E+03 0.  0.
          2    1    1    2  501    0  0.12239395274E+02  0.54331864504E+02 -0.13665219190E+04  0.13676563564E+04  0.00000000000E+00 0. -1.
          1    1    1    2  502    0 -0.46688096039E+02 -0.45563525619E+02  0.40424314847E+03  0.40947324243E+03  0.00000000000E+00 0. -1.
         22    1    3    3    0    0 -0.17628351727E+02 -0.86008792523E+01  0.22976259956E+03  0.23059832191E+03  0.00000000000E+00 0. -1.
         22    1    3    3    0    0  0.52077052493E+02 -0.16745963315E+00  0.30617800561E+02  0.60411068111E+02  0.00000000000E+00 0. -1.
</event>
<event>
 7    1  0.5957303E-006  0.3437078E+02  0.7818608E-02  0.1565086E+00
          2   -1    0    0  502    0  0.00000000000E+00  0.00000000000E+00  0.26477456503E+04  0.26477456503E+04  0.00000000000E+00 0. -1.
          1   -1    0    0  501    0 -0.00000000000E+00 -0.00000000000E+00 -0.24138177078E+02  0.24138177078E+02  0.00000000000E+00 0. -1.
         25    2    1    2    0    0 -0.33401724551E+02 -0.34694008764E+02  0.26419167159E+03  0.29621264484E+03  0.12500136869E+03 0.  0.
          2    1    1    2  501    0  0.13205319689E+01  0.33922213184E+02  0.27919519948E+02  0.43954066320E+02  0.00000000000E+00 0. -1.
          1    1    1    2  502    0  0.32081192582E+02  0.77179558070E+00  0.23314962817E+04  0.23317171162E+04  0.00000000000E+00 0. -1.
         22    1    3    3    0    0  0.19117280357E+02 -0.56141839976E+02  0.60308656266E+02  0.84584340305E+02  0.00000000000E+00 0. -1.
         22    1    3    3    0    0 -0.52519004908E+02  0.21447831212E+02  0.20388301533E+03  0.21162830453E+03  0.00000000000E+00 0. -1.
</event>
<event>
 7    1  0.5957303E-006  0.9557492E+02  0.7818608E-02  0.1400389E+00
          2   -1    0    0  502    0  0.00000000000E+00  0.00000000000E+00  0.14335265194E+04  0.14335265194E+04  0.00000000000E+00 0. -1.
          1   -1    0    0  501    0 -0.00000000000E+00 -0.00000000000E+00 -0.10393941606E+03  0.10393941606E+03  0.00000000000E+00 0. -1.
         25    2    1    2    0    0  0.41227710577E+02 -0.64596037069E+02  0.36314476876E+03  0.39162593567E+03  0.12499751313E+03 0.  0.
          2    1    1    2  501    0 -0.77635695509E+02  0.58523884103E+02 -0.62925868783E+02  0.11581023784E+03  0.00000000000E+00 0. -1.
          1    1    1    2  502    0  0.36407984932E+02  0.60721529662E+01  0.10293682033E+04  0.10300297619E+04  0.00000000000E+00 0. -1.
         22    1    3    3    0    0  0.30422512789E+02  0.21001248677E+02  0.23013342290E+03  0.23308362033E+03  0.00000000000E+00 0.  1.
         22    1    3    3    0    0  0.10805197788E+02 -0.85597285747E+02  0.13301134586E+03  0.15854231534E+03  0.00000000000E+00 0.  1.
</event>
<event>
 7    1  0.5957303E-006  0.1278623E+03  0.7818608E-02  0.1232259E+00
          2   -1    0    0  502    0  0.00000000000E+00  0.00000000000E+00  0.47642584531E+03  0.47642584531E+03  0.00000000000E+00 0. -1.
          1   -1    0    0  501    0 -0.00000000000E+00 -0.00000000000E+00 -0.71594406072E+03  0.71594406072E+03  0.00000000000E+00 0. -1.
         25    2    1    2    0    0  0.41635430643E+02  0.48718815537E+02 -0.93948499431E+02  0.16899276119E+03  0.12500080286E+03 0.  0.
          2    1    1    2  501    0 -0.10879035805E+03  0.67182027303E+02 -0.56696518986E+03  0.58120417524E+03  0.00000000000E+00 0. -1.
          1    1    1    2  502    0  0.67154927405E+02 -0.11590084284E+03  0.42139547388E+03  0.44217296961E+03  0.00000000000E+00 0. -1.
         22    1    3    3    0    0  0.65036148907E+02  0.33335519620E+02 -0.11339046210E+03  0.13490127660E+03  0.00000000000E+00 0.  1.
         22    1    3    3    0    0 -0.23400718264E+02  0.15383295917E+02  0.19441962674E+02  0.34091484584E+02  0.00000000000E+00 0.  1.
</event>
<event>
 7    1  0.5957303E-006  0.1669409E+03  0.7818608E-02  0.1235931E+00
          2   -1    0    0  502    0  0.00000000000E+00  0.00000000000E+00  0.12988545608E+04  0.12988545608E+04  0.00000000000E+00 0. -1.
          1   -1    0    0  501    0 -0.00000000000E+00 -0.00000000000E+00 -0.15731080312E+04  0.15731080312E+04  0.00000000000E+00 0. -1.
         25    2    1    2    0    0  0.34764406620E+02  0.77975175187E+02  0.50963773227E+00  0.15137304332E+03  0.12499938640E+03 0.  0.
          2    1    1    2  501    0 -0.26660928589E+02 -0.17039499928E+03 -0.14909385009E+04  0.15008806996E+04  0.00000000000E+00 0. -1.
          1    1    1    2  502    0 -0.81034780315E+01  0.92419824097E+02  0.12161753929E+04  0.12197088490E+04  0.00000000000E+00 0. -1.
         22    1    3    3    0    0  0.95170061012E+01 -0.25935365873E+02  0.29664161066E+02  0.40536145104E+02  0.00000000000E+00 0. -1.
         22    1    3    3    0    0  0.25247400519E+02  0.10391054106E+03 -0.29154523334E+02  0.11083689822E+03  0.00000000000E+00 0. -1.
</event>
<event>
 7    1  0.5957303E-006  0.5857089E+02  0.7818608E-02  0.1524600E+00
          2   -1    0    0  502    0  0.00000000000E+00  0.00000000000E+00  0.83504573092E+03  0.83504573092E+03  0.00000000000E+00 0. -1.
          1   -1    0    0  501    0 -0.00000000000E+00 -0.00000000000E+00 -0.11433234009E+04  0.11433234009E+04  0.00000000000E+00 0. -1.
         25    2    1    2    0    0 -0.44282282196E+02 -0.40636770807E+01 -0.39277410891E+03  0.41457745124E+03  0.12500211382E+03 0.  0.
          2    1    1    2  501    0  0.54435194019E+02  0.26326797658E+02 -0.73822960097E+03  0.74070185255E+03  0.00000000000E+00 0. -1.
          1    1    1    2  502    0 -0.10152911823E+02 -0.22263120577E+02  0.82272603994E+03  0.82308982800E+03  0.00000000000E+00 0. -1.
         22    1    3    3    0    0 -0.10801418834E+02  0.30786078051E+02 -0.19129431938E+02  0.37820476159E+02  0.00000000000E+00 0. -1.
         22    1    3    3    0    0 -0.33480863362E+02 -0.34849755132E+02 -0.37364467697E+03  0.37675697508E+03  0.00000000000E+00 0. -1.
</event>
<event>
 7    1  0.5957303E-006  0.1150602E+03  0.7818608E-02  0.1287658E+00
          2   -1    0    0  502    0  0.00000000000E+00  0.00000000000E+00  0.58205150419E+02  0.58205150419E+02  0.00000000000E+00 0. -1.
          1   -1    0    0  501    0 -0.00000000000E+00 -0.00000000000E+00 -0.34062907709E+04  0.34062907709E+04  0.00000000000E+00 0. -1.
         25    2    1    2    0    0  0.15390868380E+03 -0.11975139897E+02 -0.53965199679E+03  0.57505207444E+03  0.12501729385E+03 0.  0.
          2    1    1    2  501    0 -0.62037483914E+02 -0.52184494838E+02 -0.27696928665E+04  0.27708790023E+04  0.00000000000E+00 0. -1.
          1    1    1    2  502    0 -0.91871199882E+02  0.64159634735E+02 -0.38740757241E+02  0.11856484457E+03  0.00000000000E+00 0. -1.
         22    1    3    3    0    0  0.15659955073E+03  0.27447228043E+02 -0.42317833850E+03  0.45205826593E+03  0.00000000000E+00 0. -1.
         22    1    3    3    0    0 -0.26908669345E+01 -0.39422367940E+02 -0.11647365829E+03  0.12299380852E+03  0.00000000000E+00 0. -1.
</event>
<event>
 7    1  0.5957303E-006  0.1175051E+03  0.7818608E-02  0.1286484E+00
          2   -1    0    0  502    0  0.00000000000E+00  0.00000000000E+00  0.12032129699E+04  0.12032129699E+04  0.00000000000E+00 0. -1.
          1   -1    0    0  501    0 -0.00000000000E+00 -0.00000000000E+00 -0.37640602043E+02  0.37640602043E+02  0.00000000000E+00 0. -1.
         25    2    1    2    0    0  0.56460551694E+02  0.54663664834E+02  0.51838516198E+03  0.53899499129E+03  0.12496605269E+03 0.  0.
          2    1    1    2  501    0  0.57224733953E+02  0.56279189531E+02  0.81879442940E+02  0.11465714337E+03  0.00000000000E+00 0. -1.
          1    1    1    2  502    0 -0.11368528565E+03 -0.11094285436E+03  0.56530776294E+03  0.58720143728E+03  0.00000000000E+00 0. -1.
         22    1    3    3    0    0 -0.92956061520E+01  0.34606157385E+02  0.40367083855E+03  0.40525811568E+03  0.00000000000E+00 0.  1.
         22    1    3    3    0    0  0.65756157846E+02  0.20057507448E+02  0.11471432342E+03  0.13373687561E+03  0.00000000000E+00 0.  1.
</event>
<event>
 7    1  0.6827341E-006  0.1006189E+03  0.7818608E-02  0.1310661E+00
          2   -1    0    0  502    0  0.00000000000E+00  0.00000000000E+00  0.23761268808E+04  0.23761268808E+04  0.00000000000E+00 0. -1.
          1   -1    0    0  501    0 -0.00000000000E+00 -0.00000000000E+00 -0.66113024784E+03  0.66113024784E+03  0.00000000000E+00 0. -1.
         25    2    1    2    0    0 -0.10676762691E+03 -0.20132119489E+02  0.33860944434E+02  0.16904142453E+03  0.12499524495E+03 0.  0.
          2    1    1    2  501    0  0.20281498744E+02  0.72171739480E+02 -0.59004744848E+03  0.59479079568E+03  0.00000000000E+00 0. -1.
          1    1    1    2  502    0  0.86486128163E+02 -0.52039619991E+02  0.22711831370E+04  0.22734249084E+04  0.00000000000E+00 0. -1.
         22    1    3    3    0    0 -0.39182643135E+02 -0.19470837926E+02  0.77210509881E+02  0.88746019002E+02  0.00000000000E+00 0.  1.
         22    1    3    3    0    0 -0.67584983772E+02 -0.66128156383E+00 -0.43349565448E+02  0.80295405530E+02  0.00000000000E+00 0.  1.
</event>
<event>
 7    1  0.5957303E-006  0.3264468E+02  0.7818608E-02  0.1630138E+00
          2   -1    0    0  502    0  0.00000000000E+00  0.00000000000E+00  0.10117864341E+03  0.10117864341E+03  0.00000000000E+00 0. -1.
          1   -1    0    0  501    0 -0.00000000000E+00 -0.00000000000E+00 -0.10259851497E+04  0.10259851497E+04  0.00000000000E+00 0. -1.
         25    2    1    2    0    0  0.34013345737E+02 -0.40894807837E+02 -0.20168462285E+02  0.13733721941E+03  0.12500180786E+03 0.  0.
          2    1    1    2  501    0 -0.10751054167E+02  0.20120821503E+02 -0.94136647529E+03  0.94164285875E+03  0.00000000000E+00 0. -1.
          1    1    1    2  502    0 -0.23262291570E+02  0.20773986333E+02  0.36728431307E+02  0.48183714921E+02  0.00000000000E+00 0. -1.
         22    1    3    3    0    0  0.40956997418E+02 -0.81844695950E+02 -0.26599834375E+02  0.95307822771E+02  0.00000000000E+00 0. -1.
         22    1    3    3    0    0 -0.69436516810E+01  0.40949888113E+02  0.64313720905E+01  0.42029396642E+02  0.00000000000E+00 0. -1.
</event>
<event>
 7    1  0.5957303E-006  0.6786457E+02  0.7818608E-02  0.1422198E+00
          2   -1    0    0  502    0  0.00000000000E+00  0.00000000000E+00  0.15951097897E+04  0.15951097897E+04  0.00000000000E+00 0. -1.
          1   -1    0    0  501    0 -0.00000000000E+00 -0.00000000000E+00 -0.37918221865E+02  0.37918221865E+02  0.00000000000E+00 0. -1.
         25    2    1    2    0    0  0.25437443648E+02  0.39119169138E+02  0.35003067655E+03  0.37460470829E+03  0.12501935854E+03 0.  0.
          2    1    1    2  501    0 -0.67241968153E+02 -0.25845135720E+02  0.26209425639E+02  0.76657597887E+02  0.00000000000E+00 0. -1.
          1    1    1    2  502    0  0.41804524505E+02 -0.13274033417E+02  0.11809514656E+04  0.11817657054E+04  0.00000000000E+00 0. -1.
         22    1    3    3    0    0  0.63844551291E+02 -0.15108447634E+02  0.20083380066E+03  0.21127850673E+03  0.00000000000E+00 0.  1.
         22    1    3    3    0    0 -0.38407107643E+02  0.54227616772E+02  0.14919687590E+03  0.16332620156E+03  0.00000000000E+00 0.  1.
</event>
<event>
 7    1  0.5957303E-006  0.1136604E+03  0.7818608E-02  0.1281839E+00
          2   -1    0    0  502    0  0.00000000000E+00  0.00000000000E+00  0.10535932976E+04  0.10535932976E+04  0.00000000000E+00 0. -1.
          1   -1    0    0  501    0 -0.00000000000E+00 -0.00000000000E+00 -0.78517992355E+03  0.78517992355E+03  0.00000000000E+00 0. -1.
         25    2    1    2    0    0  0.11079422072E+03 -0.15151470303E+03 -0.32501262535E+03  0.39558741656E+03  0.12499653165E+03 0.  0.
          2    1    1    2  501    0 -0.58885211208E+02  0.82069707553E+02 -0.41699365301E+03  0.42905315713E+03  0.00000000000E+00 0. -1.
          1    1    1    2  502    0 -0.51909009513E+02  0.69444995474E+02  0.10104196524E+04  0.10141326475E+04  0.00000000000E+00 0. -1.
         22    1    3    3    0    0  0.56475046011E+02  0.48766878602E+01 -0.11459052966E+03  0.12784444608E+03  0.00000000000E+00 0. -1.
         22    1    3    3    0    0  0.54319174711E+02 -0.15639139089E+03 -0.21042209569E+03  0.26774297047E+03  0.00000000000E+00 0. -1.
</event>
<event>
 7    1  0.5957303E-006  0.1153022E+03  0.7818608E-02  0.1275112E+00
          2   -1    0    0  502    0  0.00000000000E+00  0.00000000000E+00  0.26542454972E+03  0.26542454972E+03  0.00000000000E+00 0. -1.
          1   -1    0    0  501    0 -0.00000000000E+00 -0.00000000000E+00 -0.80915868360E+03  0.80915868360E+03  0.00000000000E+00 0. -1.
         25    2    1    2    0    0  0.47099216967E+02 -0.12028957126E+03 -0.89863326998E+02  0.20097205625E+03  0.12500573051E+03 0.  0.
          2    1    1    2  501    0 -0.90429341961E+02  0.11286605305E+02 -0.64388795492E+03  0.65030496833E+03  0.00000000000E+00 0. -1.
          1    1    1    2  502    0  0.43330124994E+02  0.10900296596E+03  0.19001714803E+03  0.22330620875E+03  0.00000000000E+00 0. -1.
         22    1    3    3    0    0  0.21676380009E+02 -0.66094916617E+01  0.27485616257E+02  0.35623165655E+02  0.00000000000E+00 0.  1.
         22    1    3    3    0    0  0.25422836958E+02 -0.11368007960E+03 -0.11734894325E+03  0.16534889059E+03  0.00000000000E+00 0.  1.
</event>
<event>
 7    1  0.5957303E-006  0.6165767E+02  0.7818608E-02  0.1487393E+00
          2   -1    0    0  502    0  0.00000000000E+00  0.00000000000E+00  0.17427633788E+04  0.17427633788E+04  0.00000000000E+00 0. -1.
          1   -1    0    0  501    0 -0.00000000000E+00 -0.00000000000E+00 -0.34073299927E+02  0.34073299927E+02  0.00000000000E+00 0. -1.
         25    2    1    2    0    0 -0.25358611633E+02 -0.83055659430E+02  0.34712346938E+03  0.37902629363E+03  0.12499970609E+03 0.  0.
          2    1    1    2  501    0 -0.35809370718E+01  0.29738749300E+02 -0.45937521611E+01  0.30303776649E+02  0.00000000000E+00 0. -1.
          1    1    1    2  502    0  0.28939548705E+02  0.53316910130E+02  0.13661603617E+04  0.13675066085E+04  0.00000000000E+00 0. -1.
         22    1    3    3    0    0 -0.42888333569E+02 -0.70471309962E+02  0.94334863761E+02  0.12531831951E+03  0.00000000000E+00 0.  1.
         22    1    3    3    0    0  0.17529721936E+02 -0.12584349468E+02  0.25278860562E+03  0.25370797412E+03  0.00000000000E+00 0.  1.
</event>
<event>
 7    1  0.5957303E-006  0.3910039E+03  0.7818608E-02  0.1235914E+00
          2   -1    0    0  502    0  0.00000000000E+00  0.00000000000E+00  0.11607337391E+04  0.11607337391E+04  0.00000000000E+00 0. -1.
          1   -1    0    0  501    0 -0.00000000000E+00 -0.00000000000E+00 -0.11393737565E+04  0.11393737565E+04  0.00000000000E+00 0. -1.
         25    2    1    2    0    0  0.31437566164E+03  0.19453162731E+03  0.33579901985E+03  0.51484074101E+03  0.12500158488E+03 0.  0.
          2    1    1    2  501    0  0.39603131733E+02  0.10639724657E+01 -0.99382749800E+03  0.99461682866E+03  0.00000000000E+00 0. -1.
          1    1    1    2  502    0 -0.35397879337E+03 -0.19559559977E+03  0.67938846072E+03  0.79064992592E+03  0.00000000000E+00 0. -1.
         22    1    3    3    0    0  0.23900064803E+03  0.15821786678E+03  0.32017469667E+03  0.42972786681E+03  0.00000000000E+00 0. -1.
         22    1    3    3    0    0  0.75375013612E+02  0.36313760529E+02  0.15624323184E+02  0.85112874206E+02  0.00000000000E+00 0. -1.
</event>
<event>
 7    1  0.5957303E-006  0.1053649E+03  0.7818608E-02  0.1342301E+00
          2   -1    0    0  502    0  0.00000000000E+00  0.00000000000E+00  0.18551792574E+04  0.18551792574E+04  0.00000000000E+00 0. -1.
          1   -1    0    0  501    0 -0.00000000000E+00 -0.00000000000E+00 -0.76898227358E+02  0.76898227358E+02  0.00000000000E+00 0. -1.
         25    2    1    2    0    0 -0.13445126825E+03  0.30571711092E+02  0.11562022596E+03  0.21909423185E+03  0.12498989050E+03 0.  0.
          2    1    1    2  501    0  0.81127850729E+02 -0.39785444170E+02  0.57915315803E+02  0.10732564249E+03  0.00000000000E+00 0. -1.
          1    1    1    2  502    0  0.53323417522E+02  0.92137330775E+01  0.16047454883E+04  0.16056576104E+04  0.00000000000E+00 0. -1.
         22    1    3    3    0    0 -0.10905101050E+03 -0.35752129943E+02  0.77609789181E+02  0.13854103025E+03  0.00000000000E+00 0.  1.
         22    1    3    3    0    0 -0.25400257748E+02  0.66323841036E+02  0.38010436780E+02  0.80553201597E+02  0.00000000000E+00 0.  1.
</event>
<event>
 7    1  0.5957303E-006  0.7906891E+02  0.7818608E-02  0.1351029E+00
          2   -1    0    0  502    0  0.00000000000E+00  0.00000000000E+00  0.33327226229E+03  0.33327226229E+03  0.00000000000E+00 0. -1.
          1   -1    0    0  501    0 -0.00000000000E+00 -0.00000000000E+00 -0.76235601394E+03  0.76235601394E+03  0.00000000000E+00 0. -1.
         25    2    1    2    0    0 -0.27872773410E+02 -0.33595035910E+02 -0.82836841596E+02  0.15617766287E+03  0.12499600841E+03 0.  0.
          2    1    1    2  501    0 -0.53460625360E+02  0.40236295609E+02 -0.63544588248E+03  0.63895889344E+03  0.00000000000E+00 0. -1.
          1    1    1    2  502    0  0.81333398770E+02 -0.66412596988E+01  0.28919897242E+03  0.30049171991E+03  0.00000000000E+00 0. -1.
         22    1    3    3    0    0  0.10876096916E+02  0.33576811858E+02 -0.68864145399E+02  0.77381924894E+02  0.00000000000E+00 0.  1.
         22    1    3    3    0    0 -0.38748870326E+02 -0.67171847768E+02 -0.13972696197E+02  0.78795737976E+02  0.00000000000E+00 0.  1.
</event>
<event>
 7    1  0.5957303E-006  0.1292400E+03  0.7818608E-02  0.1344516E+00
          2   -1    0    0  502    0  0.00000000000E+00  0.00000000000E+00  0.10884168941E+04  0.10884168941E+04  0.00000000000E+00 0. -1.
          1   -1    0    0  501    0 -0.00000000000E+00 -0.00000000000E+00 -0.20033586506E+03  0.20033586506E+03  0.00000000000E+00 0. -1.
         25    2    1    2    0    0  0.10854293441E+03  0.20721252674E+02  0.59496694748E+03  0.61791663336E+03  0.12499743303E+03 0.  0.
          2    1    1    2  501    0  0.31598351244E+02  0.29579399504E+02 -0.17465664012E+03  0.17993981943E+03  0.00000000000E+00 0. -1.
          1    1    1    2  502    0 -0.14014128565E+03 -0.50300652178E+02  0.46777072171E+03  0.49089630641E+03  0.00000000000E+00 0. -1.
         22    1    3    3    0    0 -0.12765550389E+02  0.30288060099E+02  0.24928500470E+03  0.25144251714E+03  0.00000000000E+00 0. -1.
         22    1    3    3    0    0  0.12130848480E+03 -0.95668074257E+01  0.34568194279E+03  0.36647411621E+03  0.00000000000E+00 0. -1.
</event>
<event>
 7    1  0.5957303E-006  0.1102525E+03  0.7818608E-02  0.1264245E+00
          2   -1    0    0  502    0  0.00000000000E+00  0.00000000000E+00  0.56585765735E+03  0.56585765735E+03  0.00000000000E+00 0. -1.
          1   -1    0    0  501    0 -0.00000000000E+00 -0.00000000000E+00 -0.12281421448E+04  0.12281421448E+04  0.00000000000E+00 0. -1.
         25    2    1    2    0    0 -0.44107100222E+02 -0.53859000929E+02 -0.60385169419E+02  0.15529889929E+03  0.12500060465E+03 0.  0.
          2    1    1    2  501    0 -0.59092773591E+02  0.93078818670E+02 -0.11116641738E+04  0.11171181038E+04  0.00000000000E+00 0. -1.
          1    1    1    2  502    0  0.10319987381E+03 -0.39219817741E+02  0.50976485582E+03  0.52158279907E+03  0.00000000000E+00 0. -1.
         22    1    3    3    0    0  0.87789982049E+01 -0.40445417728E+02  0.29028960736E+02  0.50552776245E+02  0.00000000000E+00 0. -1.
         22    1    3    3    0    0 -0.52886098427E+02 -0.13413583201E+02 -0.89414130155E+02  0.10474612304E+03  0.00000000000E+00 0. -1.
</event>
<event>
 7    1  0.5957303E-006  0.1008191E+03  0.7818608E-02  0.1338223E+00
          2   -1    0    0  502    0  0.00000000000E+00  0.00000000000E+00  0.15545855694E+04  0.15545855694E+04  0.00000000000E+00 0. -1.
          1   -1    0    0  501    0 -0.00000000000E+00 -0.00000000000E+00 -0.42115540983E+03  0.42115540983E+03  0.00000000000E+00 0. -1.
         25    2    1    2    0    0  0.14929676198E+03  0.43764467363E+02  0.13496562954E+03  0.24092648014E+03  0.12499998374E+03 0.  0.
          2    1    1    2  501    0 -0.58412084270E+02 -0.45084083337E+01 -0.36403695353E+03  0.36872103394E+03  0.00000000000E+00 0. -1.
          1    1    1    2  502    0 -0.90884677714E+02 -0.39256059029E+02  0.13625014836E+04  0.13660934652E+04  0.00000000000E+00 0. -1.
         22    1    3    3    0    0  0.13808561097E+03  0.65537728187E+02  0.14836185654E+03  0.21301190166E+03  0.00000000000E+00 0. -1.
         22    1    3    3    0    0  0.11211151016E+02 -0.21773260824E+02 -0.13396227001E+02  0.27914578483E+02  0.00000000000E+00 0. -1.
</event>
<event>
 7    1  0.5957303E-006  0.6794831E+02  0.7818608E-02  0.1404919E+00
          2   -1    0    0  502    0  0.00000000000E+00  0.00000000000E+00  0.43082705780E+03  0.43082705780E+03  0.00000000000E+00 0. -1.
          1   -1    0    0  501    0 -0.00000000000E+00 -0.00000000000E+00 -0.44264923257E+04  0.44264923257E+04  0.00000000000E+00 0. -1.
         25    2    1    2    0    0  0.81103998015E+02 -0.57834084599E+02 -0.58680116295E+03  0.60818025305E+03  0.12499990211E+03 0.  0.
          2    1    1    2  501    0 -0.31046005254E+02  0.59780568789E+02 -0.38272108690E+04  0.38278036270E+04  0.00000000000E+00 0. -1.
          1    1    1    2  502    0 -0.50057992761E+02 -0.19464841894E+01  0.41834676409E+03  0.42133550345E+03  0.00000000000E+00 0. -1.
         22    1    3    3    0    0  0.82478264803E+02 -0.89670336026E+02 -0.38323092869E+03  0.40213104585E+03  0.00000000000E+00 0.  1.
         22    1    3    3    0    0 -0.13742667872E+01  0.31836251427E+02 -0.20357023426E+03  0.20604920721E+03  0.00000000000E+00 0.  1.
</event>
<event>
 7    1  0.5957303E-006  0.4598900E+02  0.7818608E-02  0.1520094E+00
          2   -1    0    0  502    0  0.00000000000E+00  0.00000000000E+00  0.50906188616E+03  0.50906188616E+03  0.00000000000E+00 0. -1.
          1   -1    0    0  501    0 -0.00000000000E+00 -0.00000000000E+00 -0.10156526540E+03  0.10156526540E+03  0.00000000000E+00 0. -1.
         25    2    1    2    0    0  0.71502392445E+02  0.27013102027E+02  0.58776458502E+02  0.15786819779E+03  0.12500158396E+03 0.  0.
          2    1    1    2  501    0 -0.27518046919E+02 -0.16553513270E+02 -0.45645533237E+02  0.55810181977E+02  0.00000000000E+00 0. -1.
          1    1    1    2  502    0 -0.43984345526E+02 -0.10459588756E+02  0.39436569550E+03  0.39694877180E+03  0.00000000000E+00 0. -1.
         22    1    3    3    0    0  0.36811672305E+02  0.67715820905E+02 -0.17559885322E+01  0.77094844928E+02  0.00000000000E+00 0.  1.
         22    1    3    3    0    0  0.34690720140E+02 -0.40702718878E+02  0.60532447034E+02  0.80773352858E+02  0.00000000000E+00 0.  1.
</event>
<event>
 7    1  0.5957303E-006  0.1311910E+03  0.7818608E-02  0.1271296E+00
          2   -1    0    0  502    0  0.00000000000E+00  0.00000000000E+00  0.72959515823E+03  0.72959515823E+03  0.00000000000E+00 0. -1.
          1   -1    0    0  501    0 -0.00000000000E+00 -0.00000000000E+00 -0.78639226796E+03  0.78639226796E+03  0.00000000000E+00 0. -1.
         25    2    1    2    0    0  0.34596301839E+02 -0.18126210799E+03 -0.25700549653E+03  0.34018874643E+03  0.12499480811E+03 0.  0.
          2    1    1    2  501    0 -0.63121637350E+02  0.54030997848E+02 -0.47800113882E+03  0.48516881448E+03  0.00000000000E+00 0. -1.
          1    1    1    2  502    0  0.28525335511E+02  0.12723111015E+03  0.67820952563E+03  0.69062986527E+03  0.00000000000E+00 0. -1.
         22    1    3    3    0    0  0.16451787770E+01 -0.14934346706E+03 -0.25344165937E+03  0.29417486716E+03  0.00000000000E+00 0.  1.
         22    1    3    3    0    0  0.32951123063E+02 -0.31918640933E+02 -0.35638371650E+01  0.46013879270E+02  0.00000000000E+00 0.  1.
</event>
<event>
 7    1  0.5957303E-006  0.8352164E+02  0.7818608E-02  0.1389678E+00
          2   -1    0    0  502    0  0.00000000000E+00  0.00000000000E+00  0.13520951870E+04  0.13520951870E+04  0.00000000000E+00 0. -1.
          1   -1    0    0  501    0 -0.00000000000E+00 -0.00000000000E+00 -0.21170434920E+03  0.21170434920E+03  0.00000000000E+00 0. -1.
         25    2    1    2    0    0  0.78513548469E+02 -0.90386178190E+02  0.30604866321E+02  0.17577888419E+03  0.12501007873E+03 0.  0.
          2    1    1    2  501    0 -0.90508247667E+01  0.45105396944E+02 -0.13389539241E+03  0.14157821291E+03  0.00000000000E+00 0. -1.
          1    1    1    2  502    0 -0.69462723703E+02  0.45280781246E+02  0.12436813638E+04  0.12464424391E+04  0.00000000000E+00 0. -1.
         22    1    3    3    0    0 -0.15982145833E+02  0.18516091984E+02  0.19290550184E+02  0.31151243541E+02  0.00000000000E+00 0.  1.
         22    1    3    3    0    0  0.94495694302E+02 -0.10890227017E+03  0.11314316137E+02  0.14462764065E+03  0.00000000000E+00 0.  1.
</event>
<event>
 7    1  0.5957303E-006  0.7206694E+02  0.7818608E-02  0.1362373E+00
          2   -1    0    0  502    0  0.00000000000E+00  0.00000000000E+00  0.39812569352E+04  0.39812569352E+04  0.00000000000E+00 0. -1.
          1   -1    0    0  501    0 -0.00000000000E+00 -0.00000000000E+00 -0.26028675123E+02  0.26028675123E+02  0.00000000000E+00 0. -1.
         25    2    1    2    0    0 -0.17771927078E+02 -0.21093179968E+00  0.22994966813E+04  0.23029600825E+04  0.12499707412E+03 0.  0.
          2    1    1    2  501    0  0.37050722947E+02 -0.63647033171E+02  0.33815241323E+02  0.81038086405E+02  0.00000000000E+00 0. -1.
          1    1    1    2  502    0 -0.19278795870E+02  0.63857964971E+02  0.16219163374E+04  0.16232874414E+04  0.00000000000E+00 0. -1.
         22    1    3    3    0    0  0.10372267231E+02 -0.27722742855E+02  0.13953836136E+03  0.14264322167E+03  0.00000000000E+00 0. -1.
         22    1    3    3    0    0 -0.28144194309E+02  0.27511811056E+02  0.21599583199E+04  0.21603168608E+04  0.00000000000E+00 0. -1.
</event>
<event>
 7    1  0.6441556E-006  0.4688593E+02  0.7818608E-02  0.1479416E+00
          2   -1    0    0  502    0  0.00000000000E+00  0.00000000000E+00  0.10574262636E+04  0.10574262636E+04  0.00000000000E+00 0. -1.
          1   -1    0    0  501    0 -0.00000000000E+00 -0.00000000000E+00 -0.71628427746E+03  0.71628427746E+03  0.00000000000E+00 0. -1.
         25    2    1    2    0    0  0.76279684573E+02 -0.40449138653E+02 -0.51397009529E+02  0.16037886130E+03  0.12500001387E+03 0.  0.
          2    1    1    2  501    0 -0.40252743475E+02  0.10746913733E+02 -0.60914095366E+03  0.61056406784E+03  0.00000000000E+00 0. -1.
          1    1    1    2  502    0 -0.36026941099E+02  0.29702224920E+02  0.10016799493E+04  0.10027676119E+04  0.00000000000E+00 0. -1.
         22    1    3    3    0    0 -0.31371398561E+02 -0.15930116706E+02  0.63939132439E+01  0.35760528415E+02  0.00000000000E+00 0. -1.
         22    1    3    3    0    0  0.10765108313E+03 -0.24519021947E+02 -0.57790922773E+02  0.12461833289E+03  0.00000000000E+00 0. -1.
</event>
<event>
 7    1  0.5957303E-006  0.1457978E+03  0.7818608E-02  0.1388355E+00
          2   -1    0    0  502    0  0.00000000000E+00  0.00000000000E+00  0.18306927735E+04  0.18306927735E+04  0.00000000000E+00 0. -1.
          1   -1    0    0  501    0 -0.00000000000E+00 -0.00000000000E+00 -0.43429650727E+03  0.43429650727E+03  0.00000000000E+00 0. -1.
         25    2    1    2    0    0  0.13678319522E+03  0.98653888237E+02  0.95218714920E+03  0.97505266616E+03  0.12500041004E+03 0.  0.
          2    1    1    2  501    0 -0.11043540256E+03 -0.94745666110E+02 -0.41013258235E+03  0.43517979559E+03  0.00000000000E+00 0. -1.
          1    1    1    2  502    0 -0.26347792657E+02 -0.39082221274E+01  0.85434169942E+03  0.85475681907E+03  0.00000000000E+00 0. -1.
         22    1    3    3    0    0  0.10204117678E+03  0.97885539898E+02  0.45064452731E+03  0.47230760176E+03  0.00000000000E+00 0. -1.
         22    1    3    3    0    0  0.34742018437E+02  0.76834833954E+00  0.50154262189E+03  0.50274506440E+03  0.00000000000E+00 0. -1.
</event>
<event>
 7    1  0.5957303E-006  0.8793261E+02  0.7818608E-02  0.1309606E+00
          2   -1    0    0  502    0  0.00000000000E+00  0.00000000000E+00  0.74385855736E+02  0.74385855736E+02  0.00000000000E+00 0. -1.
          1   -1    0    0  501    0 -0.00000000000E+00 -0.00000000000E+00 -0.81343154071E+03  0.81343154071E+03  0.00000000000E+00 0. -1.
         25    2    1    2    0    0 -0.88102430100E+01  0.30320317598E+02 -0.11375029185E+03  0.17193291896E+03  0.12499943074E+03 0.  0.
          2    1    1    2  501    0 -0.34581818673E+02  0.80847028171E+02 -0.58251149202E+03  0.58911101032E+03  0.00000000000E+00 0. -1.
          1    1    1    2  502    0  0.43392061683E+02 -0.11116734577E+03 -0.42783901100E+02  0.12677346716E+03  0.00000000000E+00 0. -1.
         22    1    3    3    0    0 -0.27747926771E+02  0.34587878696E+02 -0.13562301667E+03  0.14268802137E+03  0.00000000000E+00 0. -1.
         22    1    3    3    0    0  0.18937683761E+02 -0.42675610984E+01  0.21872724819E+02  0.29244897588E+02  0.00000000000E+00 0. -1.
</event>
<event>
 7    1  0.5957303E-006  0.1011329E+03  0.7818608E-02  0.1452600E+00
          2   -1    0    0  502    0  0.00000000000E+00  0.00000000000E+00  0.63616153243E+03  0.63616153243E+03  0.00000000000E+00 0. -1.
          1   -1    0    0  501    0 -0.00000000000E+00 -0.00000000000E+00 -0.70776755739E+03  0.70776755739E+03  0.00000000000E+00 0. -1.
         25    2    1    2    0    0  0.97451883221E+02 -0.75259594830E+02 -0.79356942015E+02  0.19256924734E+03  0.12499805846E+03 0.  0.
          2    1    1    2  501    0 -0.14857808116E+02  0.18117856236E+02 -0.56720960726E+03  0.56769335890E+03  0.00000000000E+00 0. -1.
          1    1    1    2  502    0 -0.82594075105E+02  0.57141738594E+02  0.57496052431E+03  0.58366648357E+03  0.00000000000E+00 0. -1.
         22    1    3    3    0    0  0.81369724301E+02 -0.95236052800E+02 -0.99489027052E+02  0.15996563471E+03  0.00000000000E+00 0. -1.
         22    1    3    3    0    0  0.16082158920E+02  0.19976457970E+02  0.20132085038E+02  0.32603612630E+02  0.00000000000E+00 0. -1.
</event>
<event>
 7    1  0.5957303E-006  0.1085550E+03  0.7818608E-02  0.1269523E+00
          2   -1    0    0  502    0  0.00000000000E+00  0.00000000000E+00  0.58452090352E+03  0.58452090352E+03  0.00000000000E+00 0. -1.
          1   -1    0    0  501    0 -0.00000000000E+00 -0.00000000000E+00 -0.74342948037E+03  0.74342948037E+03  0.00000000000E+00 0. -1.
         25    2    1    2    0    0  0.16888024190E+02  0.27058713818E+01 -0.18418515275E+02  0.12750345651E+03  0.12500145045E+03 0.  0.
          2    1    1    2  501    0  0.17723652228E+02 -0.10709841520E+03 -0.66028253965E+03  0.66914664354E+03  0.00000000000E+00 0. -1.
          1    1    1    2  502    0 -0.34611676418E+02  0.10439254382E+03  0.51979247808E+03  0.53130028384E+03  0.00000000000E+00 0. -1.
         22    1    3    3    0    0 -0.30557473704E+02  0.49275552891E+02  0.18187183869E+01  0.58009887506E+02  0.00000000000E+00 0. -1.
         22    1    3    3    0    0  0.47445497893E+02 -0.46569681509E+02 -0.20237233662E+02  0.69493569001E+02  0.00000000000E+00 0. -1.
</event>
<event>
 7    1  0.5957303E-006  0.1666639E+03  0.7818608E-02  0.1305233E+00
          2   -1    0    0  502    0  0.00000000000E+00  0.00000000000E+00  0.26943071463E+02  0.26943071463E+02  0.00000000000E+00 0. -1.
          1   -1    0    0  501    0 -0.00000000000E+00 -0.00000000000E+00 -0.21568472106E+04  0.21568472106E+04  0.00000000000E+00 0. -1.
         25    2    1    2    0    0 -0.10715452348E+03 -0.12694179712E+03 -0.56585987698E+03  0.60284145179E+03  0.12499641539E+03 0.  0.
          2    1    1    2  501    0  0.67986690150E+02  0.15390657471E+03 -0.14023435514E+04  0.14124010974E+04  0.00000000000E+00 0. -1.
          1    1    1    2  502    0  0.39167833327E+02 -0.26964777582E+02 -0.16170071068E+03  0.16854773280E+03  0.00000000000E+00 0. -1.
         22    1    3    3    0    0 -0.75514887464E+02 -0.13621582372E+03 -0.33256708421E+03  0.36723032876E+03  0.00000000000E+00 0.  1.
         22    1    3    3    0    0 -0.31639636014E+02  0.92740266010E+01 -0.23329279276E+03  0.23561112302E+03  0.00000000000E+00 0.  1.
</event>
<event>
 7    1  0.5957303E-006  0.5347870E+02  0.7818608E-02  0.1434774E+00
          2   -1    0    0  502    0  0.00000000000E+00  0.00000000000E+00  0.16194435502E+03  0.16194435502E+03  0.00000000000E+00 0. -1.
          1   -1    0    0  501    0 -0.00000000000E+00 -0.00000000000E+00 -0.37100956841E+03  0.37100956841E+03  0.00000000000E+00 0. -1.
         25    2    1    2    0    0  0.90202940227E+01 -0.30024390387E+02 -0.24320233084E+03  0.27523697569E+03  0.12500075737E+03 0.  0.
          2    1    1    2  501    0  0.44874476119E+02  0.23355894842E+02 -0.10051426596E+03  0.11252703716E+03  0.00000000000E+00 0. -1.
          1    1    1    2  502    0 -0.53894770142E+02  0.66684955445E+01  0.13465138341E+03  0.14518991058E+03  0.00000000000E+00 0. -1.
         22    1    3    3    0    0 -0.11292416200E+02 -0.55153423407E+02 -0.23534273195E+03  0.24198268587E+03  0.00000000000E+00 0.  1.
         22    1    3    3    0    0  0.20312710223E+02  0.25129033020E+02 -0.78595988823E+01  0.33254289824E+02  0.00000000000E+00 0.  1.
</event>
<event>
 7    1  0.5957303E-006  0.5815319E+02  0.7818608E-02  0.1474606E+00
          2   -1    0    0  502    0  0.00000000000E+00  0.00000000000E+00  0.47379419212E+03  0.47379419212E+03  0.00000000000E+00 0. -1.
          1   -1    0    0  501    0 -0.00000000000E+00 -0.00000000000E+00 -0.51739218897E+03  0.51739218897E+03  0.00000000000E+00 0. -1.
         25    2    1    2    0    0 -0.70479172047E+02  0.11861431097E+02 -0.17938624521E+03  0.23002742750E+03  0.12500074076E+03 0.  0.
          2    1    1    2  501    0  0.54375541965E+02  0.18939155212E+02 -0.30935144729E+03  0.31466443889E+03  0.00000000000E+00 0. -1.
          1    1    1    2  502    0  0.16103630083E+02 -0.30800586309E+02  0.44513969564E+03  0.44649451470E+03  0.00000000000E+00 0. -1.
         22    1    3    3    0    0 -0.87366680269E+02  0.42386661431E+02 -0.83768956005E+02  0.12824509300E+03  0.00000000000E+00 0. -1.
         22    1    3    3    0    0  0.16887508222E+02 -0.30525230334E+02 -0.95617289204E+02  0.10178233450E+03  0.00000000000E+00 0. -1.
</event>
<event>
 7    1  0.5957303E-006  0.1099164E+03  0.7818608E-02  0.1291849E+00
          2   -1    0    0  502    0  0.00000000000E+00  0.00000000000E+00  0.57237105629E+03  0.57237105629E+03  0.00000000000E+00 0. -1.
          1   -1    0    0  501    0 -0.00000000000E+00 -0.00000000000E+00 -0.92665567362E+02  0.92665567362E+02  0.00000000000E+00 0. -1.
         25    2    1    2    0    0  0.28721995501E+02 -0.11694244036E+03  0.20065073760E+03  0.26530595717E+03  0.12500418004E+03 0.  0.
          2    1    1    2  501    0 -0.80107461382E+02  0.15500341731E+02 -0.16331870924E+02  0.83211753802E+02  0.00000000000E+00 0. -1.
          1    1    1    2  502    0  0.51385465881E+02  0.10144209863E+03  0.29538662225E+03  0.31651891267E+03  0.00000000000E+00 0. -1.
         22    1    3    3    0    0  0.59026933428E+02 -0.15531107224E+02  0.40183879779E+02  0.73076250284E+02  0.00000000000E+00 0. -1.
         22    1    3    3    0    0 -0.30304937927E+02 -0.10141133314E+03  0.16046685782E+03  0.19222970689E+03  0.00000000000E+00 0. -1.
</event>
<event>
 7    1  0.1031353E-005  0.7009112E+02  0.7818608E-02  0.1377409E+00
          2   -1    0    0  502    0  0.00000000000E+00  0.00000000000E+00  0.99903716864E+03  0.99903716864E+03  0.00000000000E+00 0. -1.
          1   -1    0    0  501    0 -0.00000000000E+00 -0.00000000000E+00 -0.13438254794E+04  0.13438254794E+04  0.00000000000E+00 0. -1.
         25    2    1    2    0    0 -0.90558688313E+02 -0.93512567827E+02 -0.42939358424E+03  0.46577844186E+03  0.12500092138E+03 0.  0.
          2    1    1    2  501    0  0.45215298277E+02  0.40282906813E+02 -0.89396758793E+03  0.89601628560E+03  0.00000000000E+00 0. -1.
          1    1    1    2  502    0  0.45343390036E+02  0.53229661013E+02  0.97857286138E+03  0.98106792061E+03  0.00000000000E+00 0. -1.
         22    1    3    3    0    0 -0.10761871055E+03 -0.30884600824E+02 -0.22486648006E+03  0.25119828678E+03  0.00000000000E+00 0. -1.
         22    1    3    3    0    0  0.17060022233E+02 -0.62627967003E+02 -0.20452710418E+03  0.21458015508E+03  0.00000000000E+00 0. -1.
</event>
<event>
 7    1  0.5957303E-006  0.8303354E+02  0.7818608E-02  0.1487771E+00
          2   -1    0    0  502    0  0.00000000000E+00  0.00000000000E+00  0.14628146600E+03  0.14628146600E+03  0.00000000000E+00 0. -1.
          1   -1    0    0  501    0 -0.00000000000E+00 -0.00000000000E+00 -0.10443256158E+04  0.10443256158E+04  0.00000000000E+00 0. -1.
         25    2    1    2    0    0 -0.65114647431E+02 -0.46346259434E+02 -0.65707687698E+03  0.67361929636E+03  0.12500016439E+03 0.  0.
          2    1    1    2  501    0  0.12693890922E+02 -0.18192928841E+02 -0.36608817193E+03  0.36675968584E+03  0.00000000000E+00 0. -1.
          1    1    1    2  502    0  0.52420756509E+02  0.64539188274E+02  0.12512089908E+03  0.15022809964E+03  0.00000000000E+00 0. -1.
         22    1    3    3    0    0 -0.67365892514E+02 -0.27235445845E+02 -0.15513910833E+03  0.17131280139E+03  0.00000000000E+00 0.  1.
         22    1    3    3    0    0  0.22512450830E+01 -0.19110813589E+02 -0.50193776864E+03  0.50230649497E+03  0.00000000000E+00 0.  1.
</event>
<event>
 7    1  0.5957303E-006  0.6128993E+02  0.7818608E-02  0.1401214E+00
          2   -1    0    0  502    0  0.00000000000E+00  0.00000000000E+00  0.40940971759E+03  0.40940971759E+03  0.00000000000E+00 0. -1.
          1   -1    0    0  501    0 -0.00000000000E+00 -0.00000000000E+00 -0.20346860898E+04  0.20346860898E+04  0.00000000000E+00 0. -1.
         25    2    1    2    0    0  0.86570462888E+02  0.31850578760E+02 -0.23934949441E+02  0.15718572351E+03  0.12500226181E+03 0.  0.
          2    1    1    2  501    0 -0.58502880099E+02  0.17971331671E+02 -0.19412552605E+04  0.19422197461E+04  0.00000000000E+00 0. -1.
          1    1    1    2  502    0 -0.28067582789E+02 -0.49821910431E+02  0.33991383767E+03  0.34469033784E+03  0.00000000000E+00 0. -1.
         22    1    3    3    0    0  0.10880036881E+03  0.10056979027E+02 -0.46489415853E+02  0.11874312134E+03  0.00000000000E+00 0. -1.
         22    1    3    3    0    0 -0.22229905918E+02  0.21793599734E+02  0.22554466412E+02  0.38442602170E+02  0.00000000000E+00 0. -1.
</event>
<event>
 7    1  0.5957303E-006  0.4385338E+02  0.7818608E-02  0.1581933E+00
          2   -1    0    0  502    0  0.00000000000E+00  0.00000000000E+00  0.16265462016E+04  0.16265462016E+04  0.00000000000E+00 0. -1.
          1   -1    0    0  501    0 -0.00000000000E+00 -0.00000000000E+00 -0.23298287137E+03  0.23298287137E+03  0.00000000000E+00 0. -1.
         25    2    1    2    0    0 -0.14673541082E+02  0.16304030884E+02  0.67511438704E+03  0.68693917043E+03  0.12499941622E+03 0.  0.
          2    1    1    2  501    0  0.23254143812E+02 -0.37262034214E+02 -0.22480927219E+03  0.22905986829E+03  0.00000000000E+00 0. -1.
          1    1    1    2  502    0 -0.85806027296E+01  0.20958003330E+02  0.94325821536E+03  0.94353003423E+03  0.00000000000E+00 0. -1.
         22    1    3    3    0    0  0.61163687462E+01 -0.37459035781E+02  0.52127773056E+03  0.52265769075E+03  0.00000000000E+00 0.  1.
         22    1    3    3    0    0 -0.20789909828E+02  0.53763066665E+02  0.15383665648E+03  0.16428147968E+03  0.00000000000E+00 0.  1.
</event>
<event>
 7    1  0.5957303E-006  0.8799484E+02  0.7818608E-02  0.1393480E+00
          2   -1    0    0  502    0  0.00000000000E+00  0.00000000000E+00  0.51703751706E+03  0.51703751706E+03  0.00000000000E+00 0. -1.
          1   -1    0    0  501    0 -0.00000000000E+00 -0.00000000000E+00 -0.27261621787E+03  0.27261621787E+03  0.00000000000E+00 0. -1.
         25    2    1    2    0    0  0.41500510018E+02 -0.12076852125E+03 -0.96117184292E+02  0.20290780181E+03  0.12500293941E+03 0.  0.
          2    1    1    2  501    0 -0.22344365602E+02  0.35981625227E+02 -0.11522727465E+03  0.12276511252E+03  0.00000000000E+00 0. -1.
          1    1    1    2  502    0 -0.19156144415E+02  0.84786896019E+02  0.45576575813E+03  0.46398082061E+03  0.00000000000E+00 0. -1.
         22    1    3    3    0    0 -0.55215118510E+01 -0.11238841442E+03 -0.21877804723E+02  0.11463106529E+03  0.00000000000E+00 0. -1.
         22    1    3    3    0    0  0.47022021869E+02 -0.83801068216E+01 -0.74239379569E+02  0.88276736515E+02  0.00000000000E+00 0. -1.
</event>
<event>
 7    1  0.5957303E-006  0.4622414E+02  0.7818608E-02  0.1474466E+00
          2   -1    0    0  502    0  0.00000000000E+00  0.00000000000E+00  0.51149059483E+02  0.51149059483E+02  0.00000000000E+00 0. -1.
          1   -1    0    0  501    0 -0.00000000000E+00 -0.00000000000E+00 -0.15595418865E+04  0.15595418865E+04  0.00000000000E+00 0. -1.
         25    2    1    2    0    0  0.15424792452E+02 -0.28241451034E+02 -0.14629620372E+03  0.19509939753E+03  0.12500276764E+03 0.  0.
          2    1    1    2  501    0 -0.41137331965E+02 -0.14949301956E+02 -0.13645641742E+04  0.13652659621E+04  0.00000000000E+00 0. -1.
          1    1    1    2  502    0  0.25712539512E+02  0.43190752990E+02  0.24675509378E+01  0.50325586331E+02  0.00000000000E+00 0. -1.
         22    1    3    3    0    0 -0.12063240390E+02 -0.35060937058E+02 -0.15957041684E+03  0.16382157675E+03  0.00000000000E+00 0. -1.
         22    1    3    3    0    0  0.27488032843E+02  0.68194860237E+01  0.13274213124E+02  0.31277820788E+02  0.00000000000E+00 0. -1.
</event>
<event>
 7    1  0.5957303E-006  0.1459471E+03  0.7818608E-02  0.1212720E+00
          2   -1    0    0  502    0  0.00000000000E+00  0.00000000000E+00  0.28562064122E+03  0.28562064122E+03  0.00000000000E+00 0. -1.
          1   -1    0    0  501    0 -0.00000000000E+00 -0.00000000000E+00 -0.73438476177E+03  0.73438476177E+03  0.00000000000E+00 0. -1.
         25    2    1    2    0    0  0.13727954545E+03  0.78190886913E+02 -0.13397951405E+03  0.24193835036E+03  0.12499666712E+03 0.  0.
          2    1    1    2  501    0  0.32978072275E+01 -0.13512660364E+03 -0.51184849179E+03  0.52939489334E+03  0.00000000000E+00 0. -1.
          1    1    1    2  502    0 -0.14057735268E+03  0.56935716723E+02  0.19706388529E+03  0.24867215930E+03  0.00000000000E+00 0. -1.
         22    1    3    3    0    0 -0.45777799781E+01 -0.14238045842E+02  0.11376050396E+02  0.18790756811E+02  0.00000000000E+00 0.  1.
         22    1    3    3    0    0  0.14185732543E+03  0.92428932755E+02 -0.14535556445E+03  0.22314759355E+03  0.00000000000E+00 0.  1.
</event>
<event>
 7    1  0.5957303E-006  0.1064275E+03  0.7818608E-02  0.1340337E+00
          2   -1    0    0  502    0  0.00000000000E+00  0.00000000000E+00  0.53292930593E+03  0.53292930593E+03  0.00000000000E+00 0. -1.
          1   -1    0    0  501    0 -0.00000000000E+00 -0.00000000000E+00 -0.15314927119E+03  0.15314927119E+03  0.00000000000E+00 0. -1.
         25    2    1    2    0    0 -0.62618540046E+02  0.56323113107E+02  0.63200953558E+02  0.16343858109E+03  0.12499773851E+03 0.  0.
          2    1    1    2  501    0  0.25215287099E+02  0.48305207035E+02 -0.87766125360E+02  0.10330583958E+03  0.00000000000E+00 0. -1.
          1    1    1    2  502    0  0.37403252947E+02 -0.10462832014E+03  0.40434520655E+03  0.41933415645E+03  0.00000000000E+00 0. -1.
         22    1    3    3    0    0 -0.48436375376E+02  0.86067992850E+02  0.79162990972E+01  0.99077997781E+02  0.00000000000E+00 0. -1.
         22    1    3    3    0    0 -0.14182164670E+02 -0.29744879743E+02  0.55284654461E+02  0.64360583314E+02  0.00000000000E+00 0. -1.
</event>
<event>
 7    1  0.5957303E-006  0.8052431E+02  0.7818608E-02  0.1424783E+00
          2   -1    0    0  502    0  0.00000000000E+00  0.00000000000E+00  0.44889339557E+03  0.44889339557E+03  0.00000000000E+00 0. -1.
          1   -1    0    0  501    0 -0.00000000000E+00 -0.00000000000E+00 -0.27551585676E+03  0.27551585676E+03  0.00000000000E+00 0. -1.
         25    2    1    2    0    0  0.42383975608E+02 -0.69008749776E+02  0.11383551986E+03  0.18746307686E+03  0.12500108267E+03 0.  0.
          2    1    1    2  501    0  0.26240159585E+02  0.24998219642E+02 -0.23169587687E+03  0.23451319007E+03  0.00000000000E+00 0. -1.
          1    1    1    2  502    0 -0.68624135193E+02  0.44010530134E+02  0.29123789582E+03  0.30243298540E+03  0.00000000000E+00 0. -1.
         22    1    3    3    0    0  0.21928869559E+02  0.33924818944E+02  0.14383813529E+02  0.42879630971E+02  0.00000000000E+00 0. -1.
         22    1    3    3    0    0  0.20455106049E+02 -0.10293356872E+03  0.99451706327E+02  0.14458344589E+03  0.00000000000E+00 0. -1.
</event>
<event>
 7    1  0.5957303E-006  0.4572806E+02  0.7818608E-02  0.1471028E+00
          2   -1    0    0  502    0  0.00000000000E+00  0.00000000000E+00  0.67397556533E+02  0.67397556533E+02  0.00000000000E+00 0. -1.
          1   -1    0    0  501    0 -0.00000000000E+00 -0.00000000000E+00 -0.71590114732E+03  0.71590114732E+03  0.00000000000E+00 0. -1.
         25    2    1    2    0    0  0.61515965454E+01 -0.43578399366E+02 -0.55585626334E+03  0.57143583733E+03  0.12500324660E+03 0.  0.
          2    1    1    2  501    0  0.39221237755E+02  0.37889668495E+02 -0.13743256195E+03  0.14785682789E+03  0.00000000000E+00 0. -1.
          1    1    1    2  502    0 -0.45372834300E+02  0.56887308713E+01  0.44785234505E+02  0.64006038630E+02  0.00000000000E+00 0. -1.
         22    1    3    3    0    0  0.48317983459E+02 -0.64983274716E+01 -0.91327498899E+02  0.10352568686E+03  0.00000000000E+00 0. -1.
         22    1    3    3    0    0 -0.42166386913E+02 -0.37080071895E+02 -0.46452876444E+03  0.46791015047E+03  0.00000000000E+00 0. -1.
</event>
<event>
 7    1  0.5957303E-006  0.8822931E+02  0.7818608E-02  0.1378679E+00
          2   -1    0    0  502    0  0.00000000000E+00  0.00000000000E+00  0.77157619565E+03  0.77157619565E+03  0.00000000000E+00 0. -1.
          1   -1    0    0  501    0 -0.00000000000E+00 -0.00000000000E+00 -0.69723591593E+02  0.69723591593E+02  0.00000000000E+00 0. -1.
         25    2    1    2    0    0 -0.51155287227E+01 -0.74937667917E+02  0.52534254226E+03  0.54520756132E+03  0.12499870200E+03 0.  0.
          2    1    1    2  501    0  0.37293664584E+02 -0.29595992060E+02 -0.34244803857E+02  0.58646796633E+02  0.00000000000E+00 0. -1.
          1    1    1    2  502    0 -0.32178135862E+02  0.10453365998E+03  0.21075486565E+03  0.23744542929E+03  0.00000000000E+00 0. -1.
         22    1    3    3    0    0 -0.34339782123E+02 -0.82610733646E+02  0.49258418385E+03  0.50064251930E+03  0.00000000000E+00 0.  1.
         22    1    3    3    0    0  0.29224253400E+02  0.76730657288E+01  0.32758358413E+02  0.44565042022E+02  0.00000000000E+00 0.  1.
</event>
<event>
 7    1  0.5957303E-006  0.1001771E+03  0.7818608E-02  0.1336594E+00
          2   -1    0    0  502    0  0.00000000000E+00  0.00000000000E+00  0.30323286567E+03  0.30323286567E+03  0.00000000000E+00 0. -1.
          1   -1    0    0  501    0 -0.00000000000E+00 -0.00000000000E+00 -0.11161808350E+03  0.11161808350E+03  0.00000000000E+00 0. -1.
         25    2    1    2    0    0  0.23496578670E+02  0.11228813995E+03  0.17684415810E+03  0.24507080390E+03  0.12500050835E+03 0.  0.
          2    1    1    2  501    0 -0.68500444135E+02 -0.72905203422E+02 -0.17913691351E+02  0.10162863706E+03  0.00000000000E+00 0. -1.
          1    1    1    2  502    0  0.45003865465E+02 -0.39382936531E+02  0.32684315428E+02  0.68151508212E+02  0.00000000000E+00 0. -1.
         22    1    3    3    0    0  0.96516908816E+01 -0.27089153959E+02  0.21492113187E+02  0.35901090907E+02  0.00000000000E+00 0. -1.
         22    1    3    3    0    0  0.13844887788E+02  0.13937729391E+03  0.15535204491E+03  0.20916971299E+03  0.00000000000E+00 0. -1.
</event>
<event>
 7    1  0.5957303E-006  0.6342505E+02  0.7818608E-02  0.1487924E+00
          2   -1    0    0  502    0  0.00000000000E+00  0.00000000000E+00  0.14135245945E+04  0.14135245945E+04  0.00000000000E+00 0. -1.
          1   -1    0    0  501    0 -0.00000000000E+00 -0.00000000000E+00 -0.17952806203E+03  0.17952806203E+03  0.00000000000E+00 0. -1.
         25    2    1    2    0    0 -0.60398763742E+02 -0.56537557572E+02 -0.95937210649E+02  0.17800770366E+03  0.12505314110E+03 0.  0.
          2    1    1    2  501    0  0.34512730145E+01  0.28805028753E+02 -0.36791030196E+02  0.46853184200E+02  0.00000000000E+00 0. -1.
          1    1    1    2  502    0  0.56947490727E+02  0.27732528819E+02  0.13667247734E+04  0.13681917687E+04  0.00000000000E+00 0. -1.
         22    1    3    3    0    0 -0.65512339976E+02  0.19962676363E+02 -0.67706769046E+02  0.96304629751E+02  0.00000000000E+00 0.  1.
         22    1    3    3    0    0  0.51135762342E+01 -0.76500233934E+02 -0.28230441602E+02  0.81703073914E+02  0.00000000000E+00 0.  1.
</event>
<event>
 7    1  0.5957303E-006  0.1390231E+03  0.7818608E-02  0.1379555E+00
          2   -1    0    0  502    0  0.00000000000E+00  0.00000000000E+00  0.84908622027E+03  0.84908622027E+03  0.00000000000E+00 0. -1.
          1   -1    0    0  501    0 -0.00000000000E+00 -0.00000000000E+00 -0.30731860467E+03  0.30731860467E+03  0.00000000000E+00 0. -1.
         25    2    1    2    0    0 -0.34943612058E+02  0.15687471508E+03  0.25764211023E+02  0.20522716581E+03  0.12499465092E+03 0.  0.
          2    1    1    2  501    0  0.22455578508E+02 -0.19893304618E+02 -0.21006436713E+03  0.21219574669E+03  0.00000000000E+00 0. -1.
          1    1    1    2  502    0  0.12488033550E+02 -0.13698141047E+03  0.72606777172E+03  0.73898191244E+03  0.00000000000E+00 0. -1.
         22    1    3    3    0    0 -0.53825966968E+02  0.11687017139E+03  0.66722409000E+02  0.14494051036E+03  0.00000000000E+00 0. -1.
         22    1    3    3    0    0  0.18882354910E+02  0.40004543695E+02 -0.40958197977E+02  0.60286655445E+02  0.00000000000E+00 0. -1.
</event>
<event>
 7    1  0.5957303E-006  0.1225004E+03  0.7818608E-02  0.1345286E+00
          2   -1    0    0  502    0  0.00000000000E+00  0.00000000000E+00  0.26104350058E+03  0.26104350058E+03  0.00000000000E+00 0. -1.
          1   -1    0    0  501    0 -0.00000000000E+00 -0.00000000000E+00 -0.29775912356E+03  0.29775912356E+03  0.00000000000E+00 0. -1.
         25    2    1    2    0    0 -0.94334883047E+02 -0.54111568647E+02  0.81228208226E+02  0.18453423865E+03  0.12501092512E+03 0.  0.
          2    1    1    2  501    0  0.12346044243E+03  0.19334181542E+02 -0.22534768983E+03  0.25767784680E+03  0.00000000000E+00 0. -1.
          1    1    1    2  502    0 -0.29125559387E+02  0.34777387105E+02  0.10740385862E+03  0.11659053868E+03  0.00000000000E+00 0. -1.
         22    1    3    3    0    0 -0.79686588874E+02 -0.20342508189E+02 -0.13099568332E+02  0.83278861521E+02  0.00000000000E+00 0. -1.
         22    1    3    3    0    0 -0.14648294174E+02 -0.33769060458E+02  0.94327776558E+02  0.10125537712E+03  0.00000000000E+00 0. -1.
</event>
<event>
 7    1  0.5957303E-006  0.4770094E+02  0.7818608E-02  0.1532314E+00
          2   -1    0    0  502    0  0.00000000000E+00  0.00000000000E+00  0.15475139695E+04  0.15475139695E+04  0.00000000000E+00 0. -1.
          1   -1    0    0  501    0 -0.00000000000E+00 -0.00000000000E+00 -0.43229448982E+03  0.43229448982E+03  0.00000000000E+00 0. -1.
         25    2    1    2    0    0 -0.16864960508E+01 -0.63589615276E+02  0.38025558921E+03  0.40529559451E+03  0.12499488936E+03 0.  0.
          2    1    1    2  501    0 -0.18867646280E+02  0.43773138723E+02 -0.41824407490E+03  0.42095151970E+03  0.00000000000E+00 0. -1.
          1    1    1    2  502    0  0.20554142331E+02  0.19816476553E+02  0.11532079653E+04  0.11535613451E+04  0.00000000000E+00 0. -1.
         22    1    3    3    0    0  0.86999567536E+01 -0.10054947615E+03  0.25343880825E+03  0.27279500716E+03  0.00000000000E+00 0. -1.
         22    1    3    3    0    0 -0.10386452804E+02  0.36959860870E+02  0.12681678096E+03  0.13250058736E+03  0.00000000000E+00 0. -1.
</event>
<event>
 7    1  0.5957303E-006  0.5964110E+02  0.7818608E-02  0.1509024E+00
          2   -1    0    0  502    0  0.00000000000E+00  0.00000000000E+00  0.24277088683E+04  0.24277088683E+04  0.00000000000E+00 0. -1.
          1   -1    0    0  501    0 -0.00000000000E+00 -0.00000000000E+00 -0.12069809634E+03  0.12069809634E+03  0.00000000000E+00 0. -1.
         25    2    1    2    0    0  0.69912090396E+02  0.59360040876E+01  0.55289800294E+03  0.57117765173E+03  0.12499908660E+03 0.  0.
          2    1    1    2  501    0 -0.13142473080E+02 -0.23217972165E+02 -0.10948408166E+03  0.11268790072E+03  0.00000000000E+00 0. -1.
          1    1    1    2  502    0 -0.56769617316E+02  0.17281968077E+02  0.18635968507E+04  0.18645414122E+04  0.00000000000E+00 0. -1.
         22    1    3    3    0    0  0.84140734738E+02  0.35658691993E+02  0.24442924424E+03  0.26095375260E+03  0.00000000000E+00 0. -1.
         22    1    3    3    0    0 -0.14228644343E+02 -0.29722687905E+02  0.30846875870E+03  0.31022389913E+03  0.00000000000E+00 0. -1.
</event>
<event>
 7    1  0.5957303E-006  0.9233279E+02  0.7818608E-02  0.1392783E+00
          2   -1    0    0  502    0  0.00000000000E+00  0.00000000000E+00  0.16210336733E+04  0.16210336733E+04  0.00000000000E+00 0. -1.
          1   -1    0    0  501    0 -0.00000000000E+00 -0.00000000000E+00 -0.29120184092E+03  0.29120184092E+03  0.00000000000E+00 0. -1.
         25    2    1    2    0    0  0.30763599289E+02 -0.11820721541E+03 -0.13418500389E+03  0.22033896659E+03  0.12499720042E+03 0.  0.
          2    1    1    2  501    0 -0.15230780180E+02  0.80706059113E+02 -0.98841584765E+02  0.12851110272E+03  0.00000000000E+00 0. -1.
          1    1    1    2  502    0 -0.15532819109E+02  0.37501156297E+02  0.15628584211E+04  0.15633854449E+04  0.00000000000E+00 0. -1.
         22    1    3    3    0    0  0.32284412999E+02 -0.13202587258E+03 -0.14786061079E+03  0.20083793112E+03  0.00000000000E+00 0.  1.
         22    1    3    3    0    0 -0.15208137104E+01  0.13818657166E+02  0.13675606902E+02  0.19501035469E+02  0.00000000000E+00 0.  1.
</event>
<event>
 7    1  0.5957303E-006  0.3092314E+03  0.7818608E-02  0.1256281E+00
          2   -1    0    0  502    0  0.00000000000E+00  0.00000000000E+00  0.77241833732E+03  0.77241833732E+03  0.00000000000E+00 0. -1.
          1   -1    0    0  501    0 -0.00000000000E+00 -0.00000000000E+00 -0.32827155754E+03  0.32827155754E+03  0.00000000000E+00 0. -1.
         25    2    1    2    0    0 -0.31645938871E+03  0.42380697269E+02 -0.25170993182E+02  0.34380663101E+03  0.12500700950E+03 0.  0.
          2    1    1    2  501    0  0.89245784717E+01 -0.39830579952E+02 -0.10099517917E+03  0.10893185675E+03  0.00000000000E+00 0. -1.
          1    1    1    2  502    0  0.30753481024E+03 -0.25501173168E+01  0.57031295213E+03  0.64795140711E+03  0.00000000000E+00 0. -1.
         22    1    3    3    0    0 -0.12747089457E+03  0.56380995460E+02  0.37267223569E+02  0.14427921390E+03  0.00000000000E+00 0. -1.
         22    1    3    3    0    0 -0.18898849414E+03 -0.14000298191E+02 -0.62438216751E+02  0.19952741711E+03  0.00000000000E+00 0. -1.
</event>
<event>
 7    1  0.5957303E-006  0.4919007E+02  0.7818608E-02  0.1511579E+00
          2   -1    0    0  502    0  0.00000000000E+00  0.00000000000E+00  0.25179098572E+03  0.25179098572E+03  0.00000000000E+00 0. -1.
          1   -1    0    0  501    0 -0.00000000000E+00 -0.00000000000E+00 -0.35406334550E+03  0.35406334550E+03  0.00000000000E+00 0. -1.
         25    2    1    2    0    0  0.76347772576E+02  0.19020095843E+02 -0.90748886835E+02  0.17334786782E+03  0.12499350540E+03 0.  0.
          2    1    1    2  501    0 -0.44733897925E+02 -0.15651176502E+02 -0.21825665916E+03  0.22334289829E+03  0.00000000000E+00 0. -1.
          1    1    1    2  502    0 -0.31613874651E+02 -0.33689193403E+01  0.20673318621E+03  0.20916356511E+03  0.00000000000E+00 0. -1.
         22    1    3    3    0    0  0.12982891312E+01  0.32293498697E+02  0.20664134337E+02  0.38360944470E+02  0.00000000000E+00 0.  1.
         22    1    3    3    0    0  0.75049483445E+02 -0.13273402855E+02 -0.11141302117E+03  0.13498692335E+03  0.00000000000E+00 0.  1.
</event>
<event>
 7    1  0.5957303E-006  0.9310217E+02  0.7818608E-02  0.1343623E+00
          2   -1    0    0  502    0  0.00000000000E+00  0.00000000000E+00  0.67276932360E+03  0.67276932360E+03  0.00000000000E+00 0. -1.
          1   -1    0    0  501    0 -0.00000000000E+00 -0.00000000000E+00 -0.79380962762E+02  0.79380962762E+02  0.00000000000E+00 0. -1.
         25    2    1    2    0    0 -0.11099595745E+03  0.13350434475E+02  0.23600770288E+03  0.28952215693E+03  0.12500042744E+03 0.  0.
          2    1    1    2  501    0  0.83202637079E+02  0.40440443923E+02 -0.74480386239E+01  0.92809383151E+02  0.00000000000E+00 0. -1.
          1    1    1    2  502    0  0.27793320373E+02 -0.53790878399E+02  0.36482869658E+03  0.36981874629E+03  0.00000000000E+00 0. -1.
         22    1    3    3    0    0 -0.38848568649E+02 -0.39135282443E+02  0.25232881803E+02  0.60642229033E+02  0.00000000000E+00 0.  1.
         22    1    3    3    0    0 -0.72147388803E+02  0.52485716919E+02  0.21077482108E+03  0.22887992789E+03  0.00000000000E+00 0.  1.
</event>
<event>
 7    1  0.5957303E-006  0.8069638E+02  0.7818608E-02  0.1393562E+00
          2   -1    0    0  502    0  0.00000000000E+00  0.00000000000E+00  0.20572581547E+04  0.20572581547E+04  0.00000000000E+00 0. -1.
          1   -1    0    0  501    0 -0.00000000000E+00 -0.00000000000E+00 -0.16836423237E+02  0.16836423237E+02  0.00000000000E+00 0. -1.
         25    2    1    2    0    0  0.35383874795E+02  0.87865663504E+02  0.67880313229E+03  0.69668604855E+03  0.12500145768E+03 0.  0.
          2    1    1    2  501    0  0.26972073087E+02 -0.37454635360E+02  0.73459500555E+02  0.86756213947E+02  0.00000000000E+00 0. -1.
          1    1    1    2  502    0 -0.62355947882E+02 -0.50411028144E+02  0.12881590986E+04  0.12906523154E+04  0.00000000000E+00 0. -1.
         22    1    3    3    0    0  0.64376701442E+02  0.16421451931E+02  0.45831582256E+03  0.46310626964E+03  0.00000000000E+00 0.  1.
         22    1    3    3    0    0 -0.28992826647E+02  0.71444211573E+02  0.22048730973E+03  0.23357977891E+03  0.00000000000E+00 0.  1.
</event>
<event>
 7    1  0.5957303E-006  0.1075087E+03  0.7818608E-02  0.1419828E+00
          2   -1    0    0  502    0  0.00000000000E+00  0.00000000000E+00  0.22109691952E+03  0.22109691952E+03  0.00000000000E+00 0. -1.
          1   -1    0    0  501    0 -0.00000000000E+00 -0.00000000000E+00 -0.84559843047E+03  0.84559843047E+03  0.00000000000E+00 0. -1.
         25    2    1    2    0    0 -0.94393714837E+02 -0.56052015602E+02 -0.28441937318E+02  0.16877970396E+03  0.12500257124E+03 0.  0.
          2    1    1    2  501    0  0.10349026457E+03  0.29363673491E+02 -0.74175592130E+03  0.74951604850E+03  0.00000000000E+00 0. -1.
          1    1    1    2  502    0 -0.90965497359E+01  0.26688342111E+02  0.14569634767E+03  0.14839959753E+03  0.00000000000E+00 0. -1.
         22    1    3    3    0    0 -0.10143631495E+03 -0.87603619688E+02 -0.22213197344E+02  0.13585708046E+03  0.00000000000E+00 0.  1.
         22    1    3    3    0    0  0.70426001157E+01  0.31551604086E+02 -0.62287399735E+01  0.32922623505E+02  0.00000000000E+00 0.  1.
</event>
<event>
 7    1  0.5957303E-006  0.1072199E+03  0.7818608E-02  0.1340699E+00
          2   -1    0    0  502    0  0.00000000000E+00  0.00000000000E+00  0.76623555127E+03  0.76623555127E+03  0.00000000000E+00 0. -1.
          1   -1    0    0  501    0 -0.00000000000E+00 -0.00000000000E+00 -0.38009454380E+03  0.38009454380E+03  0.00000000000E+00 0. -1.
         25    2    1    2    0    0  0.73307968885E+02  0.17879073542E+01  0.91904497267E+02  0.17160563915E+03  0.12499921542E+03 0.  0.
          2    1    1    2  501    0  0.30401837711E+02 -0.44530141249E+02 -0.33310131627E+03  0.33743694540E+03  0.00000000000E+00 0. -1.
          1    1    1    2  502    0 -0.10370980660E+03  0.42742233895E+02  0.62733782648E+03  0.63728751053E+03  0.00000000000E+00 0. -1.
         22    1    3    3    0    0  0.69201099112E+02 -0.40362880796E+02  0.11774939723E+02  0.80972856377E+02  0.00000000000E+00 0. -1.
         22    1    3    3    0    0  0.41068697731E+01  0.42150788150E+02  0.80129557545E+02  0.90632782774E+02  0.00000000000E+00 0. -1.
</event>
<event>
 7    1  0.5957303E-006  0.5172492E+02  0.7818608E-02  0.1557707E+00
          2   -1    0    0  502    0  0.00000000000E+00  0.00000000000E+00  0.23450079389E+04  0.23450079389E+04  0.00000000000E+00 0. -1.
          1   -1    0    0  501    0 -0.00000000000E+00 -0.00000000000E+00 -0.27860987521E+02  0.27860987521E+02  0.00000000000E+00 0. -1.
         25    2    1    2    0    0 -0.28469770227E+02  0.58158885837E+02  0.43808118907E+03  0.46014411959E+03  0.12499799501E+03 0.  0.
          2    1    1    2  501    0 -0.72079444908E+01 -0.21148282316E+02 -0.89066086928E+01  0.24052691889E+02  0.00000000000E+00 0. -1.
          1    1    1    2  502    0  0.35677714718E+02 -0.37010603521E+02  0.18879723710E+04  0.18886721150E+04  0.00000000000E+00 0. -1.
         22    1    3    3    0    0 -0.76516085934E+02  0.19683474904E+02  0.23357317212E+03  0.24657367525E+03  0.00000000000E+00 0.  1.
         22    1    3    3    0    0  0.48046315707E+02  0.38475410933E+02  0.20450801695E+03  0.21357044434E+03  0.00000000000E+00 0.  1.
</event>
<event>
 7    1  0.5957303E-006  0.1222277E+03  0.7818608E-02  0.1247202E+00
          2   -1    0    0  502    0  0.00000000000E+00  0.00000000000E+00  0.15913777019E+04  0.15913777019E+04  0.00000000000E+00 0. -1.
          1   -1    0    0  501    0 -0.00000000000E+00 -0.00000000000E+00 -0.51466499386E+03  0.51466499386E+03  0.00000000000E+00 0. -1.
         25    2    1    2    0    0  0.56745819616E+01 -0.18462127417E+02  0.80924097380E+02  0.15016554241E+03  0.12501171770E+03 0.  0.
          2    1    1    2  501    0 -0.12221242413E+02 -0.11238003665E+03 -0.47042810080E+03  0.48381941820E+03  0.00000000000E+00 0. -1.
          1    1    1    2  502    0  0.65466604515E+01  0.13084216407E+03  0.14662167115E+04  0.14720577352E+04  0.00000000000E+00 0. -1.
         22    1    3    3    0    0  0.17468379741E+02 -0.24969400410E+02  0.11211915775E+03  0.11618657746E+03  0.00000000000E+00 0. -1.
         22    1    3    3    0    0 -0.11793797779E+02  0.65072729928E+01 -0.31195060368E+02  0.33978964952E+02  0.00000000000E+00 0. -1.
</event>
<event>
 7    1  0.5957303E-006  0.1298037E+03  0.7818608E-02  0.1363934E+00
          2   -1    0    0  502    0  0.00000000000E+00  0.00000000000E+00  0.10685777053E+04  0.10685777053E+04  0.00000000000E+00 0. -1.
          1   -1    0    0  501    0 -0.00000000000E+00 -0.00000000000E+00 -0.53995032246E+02  0.53995032246E+02  0.00000000000E+00 0. -1.
         25    2    1    2    0    0 -0.10011138891E+03 -0.65255068039E+01  0.23519169543E+03  0.28461362196E+03  0.12499963110E+03 0.  0.
          2    1    1    2  501    0 -0.36285958886E+02 -0.44179619032E+01 -0.91108366375E+01  0.37672225099E+02  0.00000000000E+00 0. -1.
          1    1    1    2  502    0  0.13639734780E+03  0.10943468707E+02  0.78850181430E+03  0.80028689053E+03  0.00000000000E+00 0. -1.
         22    1    3    3    0    0 -0.90574646868E+02  0.53697995706E+01  0.24839317117E+03  0.26444615499E+03  0.00000000000E+00 0. -1.
         22    1    3    3    0    0 -0.95367420473E+01 -0.11895306375E+02 -0.13201475737E+02  0.20167466977E+02  0.00000000000E+00 0. -1.
</event>
<event>
 7    1  0.5957303E-006  0.9135061E+02  0.7818608E-02  0.1425615E+00
          2   -1    0    0  502    0  0.00000000000E+00  0.00000000000E+00  0.41437619169E+03  0.41437619169E+03  0.00000000000E+00 0. -1.
          1   -1    0    0  501    0 -0.00000000000E+00 -0.00000000000E+00 -0.21459271704E+04  0.21459271704E+04  0.00000000000E+00 0. -1.
         25    2    1    2    0    0  0.93273286783E+02 -0.50931469176E+02 -0.12237827271E+03  0.20468877068E+03  0.12500852224E+03 0.  0.
          2    1    1    2  501    0 -0.28827297741E+02 -0.13292208762E+02 -0.19767193672E+04  0.19769742417E+04  0.00000000000E+00 0. -1.
          1    1    1    2  502    0 -0.64445989043E+02  0.64223677938E+02  0.36754666114E+03  0.37864034971E+03  0.00000000000E+00 0. -1.
         22    1    3    3    0    0  0.10125307611E+03 -0.81190015510E+02 -0.11282641045E+03  0.17197035482E+03  0.00000000000E+00 0.  1.
         22    1    3    3    0    0 -0.79797893312E+01  0.30258546335E+02 -0.95518622513E+01  0.32718415862E+02  0.00000000000E+00 0.  1.
</event>
<event>
 7    1  0.5957303E-006  0.6979536E+02  0.7818608E-02  0.1380575E+00
          2   -1    0    0  502    0  0.00000000000E+00  0.00000000000E+00  0.47457265602E+03  0.47457265602E+03  0.00000000000E+00 0. -1.
          1   -1    0    0  501    0 -0.00000000000E+00 -0.00000000000E+00 -0.32179911818E+04  0.32179911818E+04  0.00000000000E+00 0. -1.
         25    2    1    2    0    0 -0.59531983216E+02  0.65753958134E+02 -0.20814568650E+03  0.25846189244E+03  0.12494111813E+03 0.  0.
          2    1    1    2  501    0  0.41235434218E+00 -0.69847620649E+02 -0.29823230968E+04  0.29831409477E+04  0.00000000000E+00 0. -1.
          1    1    1    2  502    0  0.59119628873E+02  0.40936625152E+01  0.44705025756E+03  0.45096099762E+03  0.00000000000E+00 0. -1.
         22    1    3    3    0    0 -0.38222912080E+02  0.98404744479E+02 -0.10814138156E+03  0.15112591819E+03  0.00000000000E+00 0. -1.
         22    1    3    3    0    0 -0.21309071136E+02 -0.32650786345E+02 -0.10000430494E+03  0.10733597425E+03  0.00000000000E+00 0. -1.
</event>
<event>
 7    1  0.5957303E-006  0.6162881E+02  0.7818608E-02  0.1544834E+00
          2   -1    0    0  502    0  0.00000000000E+00  0.00000000000E+00  0.38900392345E+03  0.38900392345E+03  0.00000000000E+00 0. -1.
          1   -1    0    0  501    0 -0.00000000000E+00 -0.00000000000E+00 -0.15392674515E+03  0.15392674515E+03  0.00000000000E+00 0. -1.
         25    2    1    2    0    0 -0.16354474844E+02  0.65322522671E+02  0.38360729038E+02  0.14706174937E+03  0.12498444615E+03 0.  0.
          2    1    1    2  501    0  0.32019185975E+02 -0.52307467624E+02 -0.89737023017E+02  0.10869237664E+03  0.00000000000E+00 0. -1.
          1    1    1    2  502    0 -0.15664711131E+02 -0.13015055047E+02  0.28645347228E+03  0.28717654259E+03  0.00000000000E+00 0. -1.
         22    1    3    3    0    0 -0.38215673294E+02 -0.25204931936E+02  0.27239997868E+02  0.53270477406E+02  0.00000000000E+00 0.  1.
         22    1    3    3    0    0  0.21861198450E+02  0.90527454606E+02  0.11120731170E+02  0.93791271966E+02  0.00000000000E+00 0.  1.
</event>
<event>
 7    1  0.5957303E-006  0.8743867E+02  0.7818608E-02  0.1359042E+00
          2   -1    0    0  502    0  0.00000000000E+00  0.00000000000E+00  0.44036884461E+03  0.44036884461E+03  0.00000000000E+00 0. -1.
          1   -1    0    0  501    0 -0.00000000000E+00 -0.00000000000E+00 -0.82483226924E+02  0.82483226924E+02  0.00000000000E+00 0. -1.
         25    2    1    2    0    0  0.95967455758E+02 -0.82696679343E+02  0.11965749211E+03  0.21445689159E+03  0.12500139836E+03 0.  0.
          2    1    1    2  501    0 -0.70152575766E+02  0.32397516271E+02  0.15769693984E+02  0.78864860333E+02  0.00000000000E+00 0. -1.
          1    1    1    2  502    0 -0.25814879993E+02  0.50299163072E+02  0.22245843159E+03  0.22953031961E+03  0.00000000000E+00 0. -1.
         22    1    3    3    0    0  0.61427765706E+02 -0.56116436281E+02  0.14267997735E+03  0.16516658487E+03  0.00000000000E+00 0. -1.
         22    1    3    3    0    0  0.34539690052E+02 -0.26580243062E+02 -0.23022485238E+02  0.49290306721E+02  0.00000000000E+00 0. -1.
</event>
<event>
 7    1  0.5957303E-006  0.4631708E+02  0.7818608E-02  0.1527785E+00
          2   -1    0    0  502    0  0.00000000000E+00  0.00000000000E+00  0.60981843965E+03  0.60981843965E+03  0.00000000000E+00 0. -1.
          1   -1    0    0  501    0 -0.00000000000E+00 -0.00000000000E+00 -0.17557179096E+04  0.17557179096E+04  0.00000000000E+00 0. -1.
         25    2    1    2    0    0 -0.73174924048E+02 -0.20697926193E+02  0.57022634444E+02  0.15703416822E+03  0.12500070196E+03 0.  0.
          2    1    1    2  501    0  0.43162916942E+02  0.16560907569E+02 -0.17049421467E+04  0.17055688273E+04  0.00000000000E+00 0. -1.
          1    1    1    2  502    0  0.30012007106E+02  0.41370186240E+01  0.50202004227E+03  0.50293335377E+03  0.00000000000E+00 0. -1.
         22    1    3    3    0    0  0.99093958399E+01  0.30824336137E+02 -0.14923090696E+02  0.35651570234E+02  0.00000000000E+00 0. -1.
         22    1    3    3    0    0 -0.83084319888E+02 -0.51522262330E+02  0.71945725140E+02  0.12138259798E+03  0.00000000000E+00 0. -1.
</event>
<event>
 7    1  0.5957303E-006  0.1782394E+03  0.7818608E-02  0.1311759E+00
          2   -1    0    0  502    0  0.00000000000E+00  0.00000000000E+00  0.12454720253E+04  0.12454720253E+04  0.00000000000E+00 0. -1.
          1   -1    0    0  501    0 -0.00000000000E+00 -0.00000000000E+00 -0.86642542091E+03  0.86642542091E+03  0.00000000000E+00 0. -1.
         25    2    1    2    0    0 -0.90313129014E+02 -0.10633288883E+03 -0.27304458164E+01  0.18733813243E+03  0.12499990404E+03 0.  0.
          2    1    1    2  501    0 -0.31007048873E+02 -0.28183441634E+02 -0.76369955691E+03  0.76484819192E+03  0.00000000000E+00 0. -1.
          1    1    1    2  502    0  0.12132017789E+03  0.13451633047E+03  0.11454766072E+04  0.11597111219E+04  0.00000000000E+00 0. -1.
         22    1    3    3    0    0 -0.18395208213E+02 -0.94313821142E+02  0.38564995573E+02  0.10354100360E+03  0.00000000000E+00 0. -1.
         22    1    3    3    0    0 -0.71917920802E+02 -0.12019067690E+02 -0.41295441390E+02  0.83797128830E+02  0.00000000000E+00 0. -1.
</event>
<event>
 7    1  0.5957303E-006  0.7835857E+02  0.7818608E-02  0.1381459E+00
          2   -1    0    0  502    0  0.00000000000E+00  0.00000000000E+00  0.61088268318E+02  0.61088268318E+02  0.00000000000E+00 0. -1.
          1   -1    0    0  501    0 -0.00000000000E+00 -0.00000000000E+00 -0.10825161495E+04  0.10825161495E+04  0.00000000000E+00 0. -1.
         25    2    1    2    0    0  0.35945786596E+02 -0.18305998878E+02 -0.53208740323E+03  0.54805832320E+03  0.12499484705E+03 0.  0.
          2    1    1    2  501    0  0.37478678382E+01 -0.52271955159E+02 -0.50942876617E+03  0.51211724401E+03  0.00000000000E+00 0. -1.
          1    1    1    2  502    0 -0.39693654435E+02  0.70577954036E+02  0.20088288177E+02  0.83428850647E+02  0.00000000000E+00 0. -1.
         22    1    3    3    0    0  0.16360656338E+02 -0.43698092922E+01 -0.15812072193E+01  0.17007837174E+02  0.00000000000E+00 0. -1.
         22    1    3    3    0    0  0.19585130258E+02 -0.13936189586E+02 -0.53050619601E+03  0.53105048603E+03  0.00000000000E+00 0. -1.
</event>
<event>
 7    1  0.5957303E-006  0.5012772E+02  0.7818608E-02  0.1515495E+00
          2   -1    0    0  502    0  0.00000000000E+00  0.00000000000E+00  0.56475366394E+03  0.56475366394E+03  0.00000000000E+00 0. -1.
          1   -1    0    0  501    0 -0.00000000000E+00 -0.00000000000E+00 -0.77221982478E+02  0.77221982478E+02  0.00000000000E+00 0. -1.
         25    2    1    2    0    0  0.45036207532E+02 -0.52460487279E+02  0.99642928668E+02  0.17417390402E+03  0.12500989119E+03 0.  0.
          2    1    1    2  501    0 -0.15334541660E+02  0.46053358520E+02 -0.24446918424E+02  0.54348061781E+02  0.00000000000E+00 0. -1.
          1    1    1    2  502    0 -0.29701665872E+02  0.64071287589E+01  0.41233567122E+03  0.41345368061E+03  0.00000000000E+00 0. -1.
         22    1    3    3    0    0  0.58774090711E+02 -0.63139802575E+02  0.11974930145E+03  0.14758361565E+03  0.00000000000E+00 0. -1.
         22    1    3    3    0    0 -0.13737883179E+02  0.10679315296E+02 -0.20106372786E+02  0.26590288378E+02  0.00000000000E+00 0. -1.
</event>
<event>
 7    1  0.5957303E-006  0.6850931E+02  0.7818608E-02  0.1475414E+00
          2   -1    0    0  502    0  0.00000000000E+00  0.00000000000E+00  0.47022996074E+03  0.47022996074E+03  0.00000000000E+00 0. -1.
          1   -1    0    0  501    0 -0.00000000000E+00 -0.00000000000E+00 -0.15395534316E+04  0.15395534316E+04  0.00000000000E+00 0. -1.
         25    2    1    2    0    0 -0.45743899676E+02 -0.53161396756E+01 -0.44698208192E+02  0.14051132584E+03  0.12499894869E+03 0.  0.
          2    1    1    2  501    0 -0.22100631927E+02  0.19287411559E+02 -0.14439584190E+04  0.14442563339E+04  0.00000000000E+00 0. -1.
          1    1    1    2  502    0  0.67844531603E+02 -0.13971271883E+02  0.41933315637E+03  0.42501573258E+03  0.00000000000E+00 0. -1.
         22    1    3    3    0    0  0.20849241213E+02  0.25270263278E+01  0.32225577547E+02  0.38465108468E+02  0.00000000000E+00 0. -1.
         22    1    3    3    0    0 -0.66593140889E+02 -0.78431660033E+01 -0.76923785739E+02  0.10204621737E+03  0.00000000000E+00 0. -1.
</event>
<event>
 7    1  0.5957303E-006  0.6893141E+02  0.7818608E-02  0.1455574E+00
          2   -1    0    0  502    0  0.00000000000E+00  0.00000000000E+00  0.10247538695E+03  0.10247538695E+03  0.00000000000E+00 0. -1.
          1   -1    0    0  501    0 -0.00000000000E+00 -0.00000000000E+00 -0.27515558485E+04  0.27515558485E+04  0.00000000000E+00 0. -1.
         25    2    1    2    0    0  0.67214246063E+02  0.50136740905E+02 -0.17837432555E+03  0.23339699574E+03  0.12500123976E+03 0.  0.
          2    1    1    2  501    0 -0.34851907631E+02 -0.59305454567E+02 -0.25414081374E+04  0.25423389060E+04  0.00000000000E+00 0. -1.
          1    1    1    2  502    0 -0.32362338432E+02  0.91687136619E+01  0.70702001436E+02  0.78295333616E+02  0.00000000000E+00 0. -1.
         22    1    3    3    0    0  0.73425507264E+02 -0.64092772843E+01 -0.15550173096E+03  0.17208478226E+03  0.00000000000E+00 0.  1.
         22    1    3    3    0    0 -0.62112612010E+01  0.56546018190E+02 -0.22872594587E+02  0.61312213481E+02  0.00000000000E+00 0.  1.
</event>
<event>
 7    1  0.5957303E-006  0.6976295E+02  0.7818608E-02  0.1406907E+00
          2   -1    0    0  502    0  0.00000000000E+00  0.00000000000E+00  0.15527254180E+03  0.15527254180E+03  0.00000000000E+00 0. -1.
          1   -1    0    0  501    0 -0.00000000000E+00 -0.00000000000E+00 -0.22920226697E+03  0.22920226697E+03  0.00000000000E+00 0. -1.
         25    2    1    2    0    0  0.73034335238E+02 -0.21012007493E+02 -0.54892492072E+02  0.15624923992E+03  0.12500048283E+03 0.  0.
          2    1    1    2  501    0 -0.66143333901E+02 -0.26528551797E+02 -0.10667265354E+03  0.12828780025E+03  0.00000000000E+00 0. -1.
          1    1    1    2  502    0 -0.68910013370E+01  0.47540559290E+02  0.87635420439E+02  0.99937768599E+02  0.00000000000E+00 0. -1.
         22    1    3    3    0    0  0.57971001364E+02 -0.71974639984E+02 -0.42286502899E+02  0.10163234784E+03  0.00000000000E+00 0. -1.
         22    1    3    3    0    0  0.15063333875E+02  0.50962632491E+02 -0.12605989173E+02  0.54616892083E+02  0.00000000000E+00 0. -1.
</event>
<event>
 7    1  0.5957303E-006  0.5206603E+02  0.7818608E-02  0.1481603E+00
          2   -1    0    0  502    0  0.00000000000E+00  0.00000000000E+00  0.19189228227E+04  0.19189228227E+04  0.00000000000E+00 0. -1.
          1   -1    0    0  501    0 -0.00000000000E+00 -0.00000000000E+00 -0.12117100595E+03  0.12117100595E+03  0.00000000000E+00 0. -1.
         25    2    1    2    0    0  0.79745352505E+02  0.37745192575E+02  0.14275990569E+03  0.20925898846E+03  0.12499965108E+03 0.  0.
          2    1    1    2  501    0 -0.34898783118E+02 -0.12119021284E+02 -0.83640199455E+02  0.91435653357E+02  0.00000000000E+00 0. -1.
          1    1    1    2  502    0 -0.44846569387E+02 -0.25626171291E+02  0.17386321105E+04  0.17393991868E+04  0.00000000000E+00 0. -1.
         22    1    3    3    0    0  0.10037687835E+03 -0.61558958943E+01  0.72895865566E+02  0.12420636046E+03  0.00000000000E+00 0. -1.
         22    1    3    3    0    0 -0.20631525846E+02  0.43901088470E+02  0.69864040126E+02  0.85052628003E+02  0.00000000000E+00 0. -1.
</event>
<event>
 7    1  0.5957303E-006  0.1539453E+03  0.7818608E-02  0.1396017E+00
          2   -1    0    0  502    0  0.00000000000E+00  0.00000000000E+00  0.11263409763E+04  0.11263409763E+04  0.00000000000E+00 0. -1.
          1   -1    0    0  501    0 -0.00000000000E+00 -0.00000000000E+00 -0.10216409725E+04  0.10216409725E+04  0.00000000000E+00 0. -1.
         25    2    1    2    0    0 -0.14408401893E+03  0.59229949161E+02  0.27493562693E+03  0.33982744689E+03  0.12499881326E+03 0.  0.
          2    1    1    2  501    0  0.13180843967E+03 -0.79532171404E+02 -0.98303150035E+03  0.99501244301E+03  0.00000000000E+00 0. -1.
          1    1    1    2  502    0  0.12275579255E+02  0.20302222243E+02  0.81279587717E+03  0.81314205894E+03  0.00000000000E+00 0. -1.
         22    1    3    3    0    0 -0.16479552367E+03  0.64594532732E+02  0.25614488090E+03  0.31135224150E+03  0.00000000000E+00 0. -1.
         22    1    3    3    0    0  0.20711504738E+02 -0.53645835712E+01  0.18790746029E+02  0.28475205386E+02  0.00000000000E+00 0. -1.
</event>
<event>
 7    1  0.5957303E-006  0.1981112E+03  0.7818608E-02  0.1354890E+00
          2   -1    0    0  502    0  0.00000000000E+00  0.00000000000E+00  0.72783432705E+03  0.72783432705E+03  0.00000000000E+00 0. -1.
          1   -1    0    0  501    0 -0.00000000000E+00 -0.00000000000E+00 -0.10315852857E+04  0.10315852857E+04  0.00000000000E+00 0. -1.
         25    2    1    2    0    0 -0.58961711336E+02  0.19551058395E+03 -0.43488281269E+03  0.49643642126E+03  0.12500075095E+03 0.  0.
          2    1    1    2  501    0  0.78643887989E+02 -0.17876280288E+03 -0.54882394268E+03  0.58253645454E+03  0.00000000000E+00 0. -1.
          1    1    1    2  502    0 -0.19682176654E+02 -0.16747781077E+02  0.67995579675E+03  0.68044673692E+03  0.00000000000E+00 0. -1.
         22    1    3    3    0    0 -0.27214415390E+02  0.67520397753E+02 -0.46757579274E+02  0.86521094176E+02  0.00000000000E+00 0.  1.
         22    1    3    3    0    0 -0.31747295945E+02  0.12799018620E+03 -0.38812523342E+03  0.40991532709E+03  0.00000000000E+00 0.  1.
</event>
<event>
 7    1  0.5957303E-006  0.1166293E+03  0.7818608E-02  0.1387098E+00
          2   -1    0    0  502    0  0.00000000000E+00  0.00000000000E+00  0.30868618102E+04  0.30868618102E+04  0.00000000000E+00 0. -1.
          1   -1    0    0  501    0 -0.00000000000E+00 -0.00000000000E+00 -0.41501957659E+02  0.41501957659E+02  0.00000000000E+00 0. -1.
         25    2    1    2    0    0  0.60995563476E+02 -0.83029746429E+02  0.82699474029E+03  0.84270965225E+03  0.12499943987E+03 0.  0.
          2    1    1    2  501    0  0.32674129950E+02  0.79907831461E+01 -0.23210419101E+02  0.40867773834E+02  0.00000000000E+00 0. -1.
          1    1    1    2  502    0 -0.93669693426E+02  0.75038963283E+02  0.22415755313E+04  0.22447863418E+04  0.00000000000E+00 0. -1.
         22    1    3    3    0    0  0.41580269458E+02  0.23234592628E+02  0.15712832864E+03  0.16418914935E+03  0.00000000000E+00 0. -1.
         22    1    3    3    0    0  0.19415294018E+02 -0.10626433906E+03  0.66986641165E+03  0.67852050290E+03  0.00000000000E+00 0. -1.
</event>
<event>
 7    1  0.5957303E-006  0.4772778E+02  0.7818608E-02  0.1493112E+00
          2   -1    0    0  502    0  0.00000000000E+00  0.00000000000E+00  0.33595435396E+03  0.33595435396E+03  0.00000000000E+00 0. -1.
          1   -1    0    0  501    0 -0.00000000000E+00 -0.00000000000E+00 -0.72484281432E+02  0.72484281432E+02  0.00000000000E+00 0. -1.
         25    2    1    2    0    0 -0.57042823568E+01 -0.33723695017E+02  0.30005105966E+02  0.13302596510E+03  0.12500309822E+03 0.  0.
          2    1    1    2  501    0  0.36973666509E+02 -0.39584091998E+01  0.32541681811E+00  0.37186380768E+02  0.00000000000E+00 0. -1.
          1    1    1    2  502    0 -0.31269384152E+02  0.37682104216E+02  0.23313954974E+03  0.23822628952E+03  0.00000000000E+00 0. -1.
         22    1    3    3    0    0  0.26758252798E+02 -0.35905387904E+02 -0.37293453688E+02  0.58275231971E+02  0.00000000000E+00 0.  1.
         22    1    3    3    0    0 -0.32462535155E+02  0.21816928874E+01  0.67298559654E+02  0.74750733134E+02  0.00000000000E+00 0.  1.
</event>
<event>
 7    1  0.5957303E-006  0.1070701E+03  0.7818608E-02  0.1333686E+00
          2   -1    0    0  502    0  0.00000000000E+00  0.00000000000E+00  0.23998020439E+04  0.23998020439E+04  0.00000000000E+00 0. -1.
          1   -1    0    0  501    0 -0.00000000000E+00 -0.00000000000E+00 -0.20461651272E+03  0.20461651272E+03  0.00000000000E+00 0. -1.
         25    2    1    2    0    0 -0.53163479364E+02  0.92998220881E+02  0.30257623811E+02  0.16737453408E+03  0.12499474483E+03 0.  0.
          2    1    1    2  501    0  0.55575637769E+02  0.14320000473E+02 -0.12869436494E+03  0.14091115461E+03  0.00000000000E+00 0. -1.
          1    1    1    2  502    0 -0.24121584054E+01 -0.10731822135E+03  0.22936222723E+04  0.22961328680E+04  0.00000000000E+00 0. -1.
         22    1    3    3    0    0 -0.16263891244E+02 -0.23487356200E+02 -0.20394832730E+02  0.35101556401E+02  0.00000000000E+00 0.  1.
         22    1    3    3    0    0 -0.36899588120E+02  0.11648557708E+03  0.50652456540E+02  0.13227297768E+03  0.00000000000E+00 0.  1.
</event>
<event>
 7    1  0.5957303E-006  0.4275512E+02  0.7818608E-02  0.1569599E+00
          2   -1    0    0  502    0  0.00000000000E+00  0.00000000000E+00  0.82383613564E+03  0.82383613564E+03  0.00000000000E+00 0. -1.
          1   -1    0    0  501    0 -0.00000000000E+00 -0.00000000000E+00 -0.89467231784E+03  0.89467231784E+03  0.00000000000E+00 0. -1.
         25    2    1    2    0    0  0.14997847492E+02 -0.15632102625E+02  0.43308256578E+03  0.45128128747E+03  0.12499997432E+03 0.  0.
          2    1    1    2  501    0  0.10090543527E+02 -0.22957212138E+02 -0.88400675429E+03  0.88436236594E+03  0.00000000000E+00 0. -1.
          1    1    1    2  502    0 -0.25088391019E+02  0.38589314763E+02  0.38008800632E+03  0.38286480007E+03  0.00000000000E+00 0. -1.
         22    1    3    3    0    0 -0.27365675857E+02 -0.10784316964E+02  0.38842132695E+03  0.38953345035E+03  0.00000000000E+00 0. -1.
         22    1    3    3    0    0  0.42363523349E+02 -0.48477856608E+01  0.44661238827E+02  0.61747837127E+02  0.00000000000E+00 0. -1.
</event>
<event>
 7    1  0.5957303E-006  0.9975390E+02  0.7818608E-02  0.1403839E+00
          2   -1    0    0  502    0  0.00000000000E+00  0.00000000000E+00  0.33931960618E+04  0.33931960618E+04  0.00000000000E+00 0. -1.
          1   -1    0    0  501    0 -0.00000000000E+00 -0.00000000000E+00 -0.23669727832E+03  0.23669727832E+03  0.00000000000E+00 0. -1.
         25    2    1    2    0    0 -0.83574819037E+02  0.13658263127E+01  0.17944242551E+03  0.23411875824E+03  0.12500157210E+03 0.  0.
          2    1    1    2  501    0 -0.11888045489E+02 -0.32295836264E+02 -0.20714908871E+03  0.20998831305E+03  0.00000000000E+00 0. -1.
          1    1    1    2  502    0  0.95462864526E+02  0.30930009952E+02  0.31842054467E+04  0.31857862689E+04  0.00000000000E+00 0. -1.
         22    1    3    3    0    0 -0.49581896307E+02  0.60645026505E+02  0.69772709048E+02  0.10490192853E+03  0.00000000000E+00 0.  1.
         22    1    3    3    0    0 -0.33992922730E+02 -0.59279200192E+02  0.10966971646E+03  0.12921682971E+03  0.00000000000E+00 0.  1.
</event>
<event>
 7    1  0.5957303E-006  0.1047329E+03  0.7818608E-02  0.1272356E+00
          2   -1    0    0  502    0  0.00000000000E+00  0.00000000000E+00  0.12719485265E+04  0.12719485265E+04  0.00000000000E+00 0. -1.
          1   -1    0    0  501    0 -0.00000000000E+00 -0.00000000000E+00 -0.21573146667E+03  0.21573146667E+03  0.00000000000E+00 0. -1.
         25    2    1    2    0    0 -0.28843847697E+01 -0.16644536498E+02  0.20325714012E+03  0.23921413483E+03  0.12499830807E+03 0.  0.
          2    1    1    2  501    0 -0.64211592436E+02 -0.82739606203E+02 -0.18017058937E+03  0.20839964566E+03  0.00000000000E+00 0. -1.
          1    1    1    2  502    0  0.67095977205E+02  0.99384142702E+02  0.10331305091E+04  0.10400662127E+04  0.00000000000E+00 0. -1.
         22    1    3    3    0    0 -0.43817501718E+02 -0.14029868937E+02  0.17892074653E+02  0.49365342242E+02  0.00000000000E+00 0. -1.
         22    1    3    3    0    0  0.40933116949E+02 -0.26146675613E+01  0.18536506547E+03  0.18984879258E+03  0.00000000000E+00 0. -1.
</event>
<event>
 7    1  0.5957303E-006  0.1922771E+03  0.7818608E-02  0.1253877E+00
          2   -1    0    0  502    0  0.00000000000E+00  0.00000000000E+00  0.16630450185E+04  0.16630450185E+04  0.00000000000E+00 0. -1.
          1   -1    0    0  501    0 -0.00000000000E+00 -0.00000000000E+00 -0.52022480310E+03  0.52022480310E+03  0.00000000000E+00 0. -1.
         25    2    1    2    0    0 -0.39998403356E+02 -0.23920879604E+03  0.27192672216E+03  0.38521386917E+03  0.12499944962E+03 0.  0.
          2    1    1    2  501    0 -0.52460272168E+01  0.18948375463E+03 -0.44330884819E+03  0.48213519780E+03  0.00000000000E+00 0. -1.
          1    1    1    2  502    0  0.45244430573E+02  0.49725041413E+02  0.13142023415E+04  0.13159207547E+04  0.00000000000E+00 0. -1.
         22    1    3    3    0    0  0.32893436743E+02 -0.16005356934E+03  0.18545980388E+03  0.24717293965E+03  0.00000000000E+00 0.  1.
         22    1    3    3    0    0 -0.72891840100E+02 -0.79155226699E+02  0.86466918280E+02  0.13804092952E+03  0.00000000000E+00 0.  1.
</event>
<event>
 7    1  0.5957303E-006  0.6969116E+02  0.7818608E-02  0.1415808E+00
          2   -1    0    0  502    0  0.00000000000E+00  0.00000000000E+00  0.31020537457E+03  0.31020537457E+03  0.00000000000E+00 0. -1.
          1   -1    0    0  501    0 -0.00000000000E+00 -0.00000000000E+00 -0.33597391189E+03  0.33597391189E+03  0.00000000000E+00 0. -1.
         25    2    1    2    0    0  0.22247500366E+01  0.28226809757E+02  0.77011029256E+02  0.14952437757E+03  0.12500055424E+03 0.  0.
          2    1    1    2  501    0  0.14769769833E+02 -0.69750244676E+02 -0.29282780588E+03  0.30138242588E+03  0.00000000000E+00 0. -1.
          1    1    1    2  502    0 -0.16994519869E+02  0.41523434919E+02  0.19004823931E+03  0.19527248300E+03  0.00000000000E+00 0. -1.
         22    1    3    3    0    0 -0.49945864367E+02  0.16187377366E+02  0.80233714041E+02  0.95885710209E+02  0.00000000000E+00 0.  1.
         22    1    3    3    0    0  0.52170614404E+02  0.12039432391E+02 -0.32226847849E+01  0.53638667366E+02  0.00000000000E+00 0.  1.
</event>
<event>
 7    1  0.5957303E-006  0.6051874E+02  0.7818608E-02  0.1415445E+00
          2   -1    0    0  502    0  0.00000000000E+00  0.00000000000E+00  0.13918797121E+03  0.13918797121E+03  0.00000000000E+00 0. -1.
          1   -1    0    0  501    0 -0.00000000000E+00 -0.00000000000E+00 -0.42319851891E+04  0.42319851891E+04  0.00000000000E+00 0. -1.
         25    2    1    2    0    0  0.74470704283E+02 -0.65720427663E+02 -0.87187101335E+03  0.88636979116E+03  0.12500912906E+03 0.  0.
          2    1    1    2  501    0 -0.23910414752E+02  0.54400506086E+02 -0.33475042923E+04  0.33480316769E+04  0.00000000000E+00 0. -1.
          1    1    1    2  502    0 -0.50560289531E+02  0.11319921578E+02  0.12657808772E+03  0.13677169222E+03  0.00000000000E+00 0. -1.
         22    1    3    3    0    0 -0.34734198475E+02 -0.16364103134E+02 -0.16470548115E+03  0.16912168381E+03  0.00000000000E+00 0.  1.
         22    1    3    3    0    0  0.10920490276E+03 -0.49356324530E+02 -0.70716553220E+03  0.71724810734E+03  0.00000000000E+00 0.  1.
</event>
<event>
 7    1  0.5957303E-006  0.7481744E+02  0.7818608E-02  0.1514435E+00
          2   -1    0    0  502    0  0.00000000000E+00  0.00000000000E+00  0.15200964330E+04  0.15200964330E+04  0.00000000000E+00 0. -1.
          1   -1    0    0  501    0 -0.00000000000E+00 -0.00000000000E+00 -0.10768962070E+03  0.10768962070E+03  0.00000000000E+00 0. -1.
         25    2    1    2    0    0 -0.62929882932E+02  0.43741214212E+02  0.79434178665E+03  0.80776080188E+03  0.12500070019E+03 0.  0.
          2    1    1    2  501    0  0.70626549001E+02 -0.24737066073E+02 -0.86946382163E+02  0.11471575843E+03  0.00000000000E+00 0. -1.
          1    1    1    2  502    0 -0.76966660686E+01 -0.19004148139E+02  0.70501140777E+03  0.70530949335E+03  0.00000000000E+00 0. -1.
         22    1    3    3    0    0  0.54997615559E+00  0.26420759836E+02  0.27639240105E+02  0.38239856402E+02  0.00000000000E+00 0.  1.
         22    1    3    3    0    0 -0.63479859088E+02  0.17320454376E+02  0.76670254655E+03  0.76952094548E+03  0.00000000000E+00 0.  1.
</event>
<event>
 7    1  0.5957303E-006  0.1010618E+03  0.7818608E-02  0.1429803E+00
          2   -1    0    0  502    0  0.00000000000E+00  0.00000000000E+00  0.36879743855E+03  0.36879743855E+03  0.00000000000E+00 0. -1.
          1   -1    0    0  501    0 -0.00000000000E+00 -0.00000000000E+00 -0.14561303289E+04  0.14561303289E+04  0.00000000000E+00 0. -1.
         25    2    1    2    0    0 -0.57413790823E+02  0.51142166810E+02 -0.16202816854E+03  0.21860707260E+03  0.12499624070E+03 0.  0.
          2    1    1    2  501    0 -0.91087380694E+01  0.26259530415E+02 -0.12580081594E+04  0.12583151676E+04  0.00000000000E+00 0. -1.
          1    1    1    2  502    0  0.66522528892E+02 -0.77401697225E+02  0.33270343758E+03  0.34800552720E+03  0.00000000000E+00 0. -1.
         22    1    3    3    0    0 -0.44406671176E+02 -0.29333072995E+02 -0.10916662034E+03  0.12144847720E+03  0.00000000000E+00 0. -1.
         22    1    3    3    0    0 -0.13007119647E+02  0.80475239805E+02 -0.52861548196E+02  0.97158595404E+02  0.00000000000E+00 0. -1.
</event>
<event>
 7    1  0.5957303E-006  0.6945818E+02  0.7818608E-02  0.1366639E+00
          2   -1    0    0  502    0  0.00000000000E+00  0.00000000000E+00  0.88680175580E+02  0.88680175580E+02  0.00000000000E+00 0. -1.
          1   -1    0    0  501    0 -0.00000000000E+00 -0.00000000000E+00 -0.20330405410E+04  0.20330405410E+04  0.00000000000E+00 0. -1.
         25    2    1    2    0    0  0.24464303908E+02  0.72848809031E+02 -0.17120330836E+04  0.17183095043E+04  0.12499928860E+03 0.  0.
          2    1    1    2  501    0 -0.72045770327E+02 -0.25978927517E+02 -0.29923075878E+03  0.30887626114E+03  0.00000000000E+00 0. -1.
          1    1    1    2  502    0  0.47581466419E+02 -0.46869881514E+02  0.66903477004E+02  0.94534951076E+02  0.00000000000E+00 0. -1.
         22    1    3    3    0    0  0.25277076862E+02  0.10816350107E+03 -0.13462919206E+04  0.13508664660E+04  0.00000000000E+00 0.  1.
         22    1    3    3    0    0 -0.81277295374E+00 -0.35314692035E+02 -0.36574116305E+03  0.36744303834E+03  0.00000000000E+00 0.  1.
</event>
<event>
 7    1  0.5957303E-006  0.2361018E+03  0.7818608E-02  0.1263010E+00
          2   -1    0    0  502    0  0.00000000000E+00  0.00000000000E+00  0.21481023893E+04  0.21481023893E+04  0.00000000000E+00 0. -1.
          1   -1    0    0  501    0 -0.00000000000E+00 -0.00000000000E+00 -0.66267591342E+03  0.66267591342E+03  0.00000000000E+00 0. -1.
         25    2    1    2    0    0 -0.13366335650E+03  0.17351012900E+03 -0.93542999690E+02  0.26897425138E+03  0.12500078952E+03 0.  0.
          2    1    1    2  501    0  0.10926930130E+03 -0.21719956703E+03 -0.45039056030E+03  0.51182720613E+03  0.00000000000E+00 0. -1.
          1    1    1    2  502    0  0.24394055199E+02  0.43689438022E+02  0.20293600359E+04  0.20299768453E+04  0.00000000000E+00 0. -1.
         22    1    3    3    0    0 -0.88117991227E+01 -0.70872306879E+01  0.19111496380E+02  0.22206439077E+02  0.00000000000E+00 0. -1.
         22    1    3    3    0    0 -0.12485155737E+03  0.18059735969E+03 -0.11265449607E+03  0.24676781231E+03  0.00000000000E+00 0. -1.
</event>
<event>
 7    1  0.5957303E-006  0.1100991E+03  0.7818608E-02  0.1378875E+00
          2   -1    0    0  502    0  0.00000000000E+00  0.00000000000E+00  0.55209259446E+03  0.55209259446E+03  0.00000000000E+00 0. -1.
          1   -1    0    0  501    0 -0.00000000000E+00 -0.00000000000E+00 -0.25033249218E+04  0.25033249218E+04  0.00000000000E+00 0. -1.
         25    2    1    2    0    0 -0.11746052333E+03  0.71726235874E+02 -0.10950670193E+04  0.11107379650E+04  0.12500169016E+03 0.  0.
          2    1    1    2  501    0  0.79782235354E+02 -0.66126457036E+02 -0.13978357408E+04  0.14016713850E+04  0.00000000000E+00 0. -1.
          1    1    1    2  502    0  0.37678287975E+02 -0.55997788386E+01  0.54167043277E+03  0.54300816628E+03  0.00000000000E+00 0. -1.
         22    1    3    3    0    0 -0.60784734065E+02  0.86615322507E+02 -0.41971019193E+03  0.43284367062E+03  0.00000000000E+00 0.  1.
         22    1    3    3    0    0 -0.56675789265E+02 -0.14889086633E+02 -0.67535682739E+03  0.67789429434E+03  0.00000000000E+00 0.  1.
</event>
<event>
 7    1  0.5957303E-006  0.7103137E+02  0.7818608E-02  0.1499463E+00
          2   -1    0    0  502    0  0.00000000000E+00  0.00000000000E+00  0.10668626937E+03  0.10668626937E+03  0.00000000000E+00 0. -1.
          1   -1    0    0  501    0 -0.00000000000E+00 -0.00000000000E+00 -0.14489898500E+04  0.14489898500E+04  0.00000000000E+00 0. -1.
         25    2    1    2    0    0  0.49717138127E+02 -0.11674502963E+02 -0.53858815009E+03  0.55525711414E+03  0.12500071819E+03 0.  0.
          2    1    1    2  501    0 -0.73580104188E+02  0.13224281594E+02 -0.89903889748E+03  0.90214181399E+03  0.00000000000E+00 0. -1.
          1    1    1    2  502    0  0.23862966061E+02 -0.15497786304E+01  0.95323466957E+02  0.98277191228E+02  0.00000000000E+00 0. -1.
         22    1    3    3    0    0 -0.42341227222E+02 -0.40221820236E+01 -0.15897318810E+03  0.16456437040E+03  0.00000000000E+00 0.  1.
         22    1    3    3    0    0  0.92058365349E+02 -0.76523209397E+01 -0.37961496199E+03  0.39069274374E+03  0.00000000000E+00 0.  1.
</event>
<event>
 7    1  0.5957303E-006  0.7166328E+02  0.7818608E-02  0.1464976E+00
          2   -1    0    0  502    0  0.00000000000E+00  0.00000000000E+00  0.15867749253E+03  0.15867749253E+03  0.00000000000E+00 0. -1.
          1   -1    0    0  501    0 -0.00000000000E+00 -0.00000000000E+00 -0.22006459977E+03  0.22006459977E+03  0.00000000000E+00 0. -1.
         25    2    1    2    0    0  0.33329715629E+02 -0.83647423686E+02 -0.10535348908E+03  0.18663278026E+03  0.12499870229E+03 0.  0.
          2    1    1    2  501    0  0.10477602250E+02  0.28344112766E+02 -0.59583971803E+02  0.66808821073E+02  0.00000000000E+00 0. -1.
          1    1    1    2  502    0 -0.43807317879E+02  0.55303310920E+02  0.10355035365E+03  0.12530049098E+03  0.00000000000E+00 0. -1.
         22    1    3    3    0    0  0.74041911098E+02 -0.41745061519E+02 -0.94690287108E+02  0.12724427387E+03  0.00000000000E+00 0.  1.
         22    1    3    3    0    0 -0.40712195469E+02 -0.41902362167E+02 -0.10663201976E+02  0.59388506391E+02  0.00000000000E+00 0.  1.
</event>
<event>
 7    1  0.5957303E-006  0.1319826E+03  0.7818608E-02  0.1346010E+00
          2   -1    0    0  502    0  0.00000000000E+00  0.00000000000E+00  0.17448016462E+04  0.17448016462E+04  0.00000000000E+00 0. -1.
          1   -1    0    0  501    0 -0.00000000000E+00 -0.00000000000E+00 -0.42333034725E+03  0.42333034725E+03  0.00000000000E+00 0. -1.
         25    2    1    2    0    0  0.34709774832E+02 -0.90247929957E+02 -0.66573741758E+01  0.15817459248E+03  0.12500169497E+03 0.  0.
          2    1    1    2  501    0  0.34675321254E+02 -0.23418796906E+02 -0.33696192402E+03  0.33954993181E+03  0.00000000000E+00 0. -1.
          1    1    1    2  502    0 -0.69385096086E+02  0.11366672686E+03  0.16650905971E+04  0.16704074692E+04  0.00000000000E+00 0. -1.
         22    1    3    3    0    0 -0.23349026470E+02 -0.93673567824E+02 -0.19797883175E+02  0.98548823048E+02  0.00000000000E+00 0. -1.
         22    1    3    3    0    0  0.58058801302E+02  0.34256378665E+01  0.13140508999E+02  0.59625769431E+02  0.00000000000E+00 0. -1.
</event>
<event>
 7    1  0.5957303E-006  0.6327550E+02  0.7818608E-02  0.1448638E+00
          2   -1    0    0  502    0  0.00000000000E+00  0.00000000000E+00  0.88846687822E+03  0.88846687822E+03  0.00000000000E+00 0. -1.
          1   -1    0    0  501    0 -0.00000000000E+00 -0.00000000000E+00 -0.20710134547E+03  0.20710134547E+03  0.00000000000E+00 0. -1.
         25    2    1    2    0    0 -0.42011040208E+02 -0.55117095697E+02 -0.95702721877E+02  0.17200853434E+03  0.12500041270E+03 0.  0.
          2    1    1    2  501    0  0.60475838265E+02  0.21268222168E+02 -0.58688620562E+02  0.86913856614E+02  0.00000000000E+00 0. -1.
          1    1    1    2  502    0 -0.18464798057E+02  0.33848873528E+02  0.83575687519E+03  0.83664583273E+03  0.00000000000E+00 0. -1.
         22    1    3    3    0    0  0.13933219915E+02 -0.46533716573E+02  0.12269967312E+02  0.50100633660E+02  0.00000000000E+00 0. -1.
         22    1    3    3    0    0 -0.55944260123E+02 -0.85833791235E+01 -0.10797268919E+03  0.12190790068E+03  0.00000000000E+00 0. -1.
</event>
<event>
 7    1  0.5957303E-006  0.4329459E+02  0.7818608E-02  0.1486367E+00
          2   -1    0    0  502    0  0.00000000000E+00  0.00000000000E+00  0.33958102866E+03  0.33958102866E+03  0.00000000000E+00 0. -1.
          1   -1    0    0  501    0 -0.00000000000E+00 -0.00000000000E+00 -0.90549075708E+02  0.90549075708E+02  0.00000000000E+00 0. -1.
         25    2    1    2    0    0  0.34873661246E+02 -0.27148815785E+02  0.87389160083E+01  0.13287055916E+03  0.12499994556E+03 0.  0.
          2    1    1    2  501    0  0.62527003017E+01  0.42508060525E+02 -0.91950961834E+01  0.43938380313E+02  0.00000000000E+00 0. -1.
          1    1    1    2  502    0 -0.41126361548E+02 -0.15359244741E+02  0.24948813313E+03  0.25332116490E+03  0.00000000000E+00 0. -1.
         22    1    3    3    0    0 -0.25014573253E+02  0.32891446215E+02 -0.16342243382E+02  0.44436978158E+02  0.00000000000E+00 0. -1.
         22    1    3    3    0    0  0.59888234498E+02 -0.60040261999E+02  0.25081159390E+02  0.88433581001E+02  0.00000000000E+00 0. -1.
</event>
<event>
 7    1  0.5957303E-006  0.9335990E+02  0.7818608E-02  0.1391836E+00
          2   -1    0    0  502    0  0.00000000000E+00  0.00000000000E+00  0.16630834090E+04  0.16630834090E+04  0.00000000000E+00 0. -1.
          1   -1    0    0  501    0 -0.00000000000E+00 -0.00000000000E+00 -0.14244737645E+03  0.14244737645E+03  0.00000000000E+00 0. -1.
         25    2    1    2    0    0 -0.10517093495E+03 -0.73744196700E+02  0.31426895451E+03  0.36178695953E+03  0.12500278481E+03 0.  0.
          2    1    1    2  501    0  0.82168634495E+02  0.40471210427E+02 -0.10065728403E+03  0.13609368904E+03  0.00000000000E+00 0. -1.
          1    1    1    2  502    0  0.23002300458E+02  0.33272986274E+02  0.13070243621E+04  0.13076501369E+04  0.00000000000E+00 0. -1.
         22    1    3    3    0    0 -0.75740073222E+02 -0.53405151170E+02  0.31251748154E+03  0.32596908616E+03  0.00000000000E+00 0. -1.
         22    1    3    3    0    0 -0.29430861731E+02 -0.20339045530E+02  0.17514729740E+01  0.35817873372E+02  0.00000000000E+00 0. -1.
</event>
<event>
 7    1  0.5957303E-006  0.2417603E+02  0.7818608E-02  0.1676549E+00
          2   -1    0    0  502    0  0.00000000000E+00  0.00000000000E+00  0.60755625342E+03  0.60755625342E+03  0.00000000000E+00 0. -1.
          1   -1    0    0  501    0 -0.00000000000E+00 -0.00000000000E+00 -0.15378999201E+03  0.15378999201E+03  0.00000000000E+00 0. -1.
         25    2    1    2    0    0 -0.74092422743E+01 -0.30525650990E+01  0.53760718103E+02  0.13630264989E+03  0.12499593006E+03 0.  0.
          2    1    1    2  501    0 -0.31977590747E+01  0.24276900939E+02 -0.11090822431E+03  0.11357916975E+03  0.00000000000E+00 0. -1.
          1    1    1    2  502    0  0.10607001349E+02 -0.21224335840E+02  0.51091376761E+03  0.51146442579E+03  0.00000000000E+00 0. -1.
         22    1    3    3    0    0 -0.14062622733E+02  0.37597644260E+02  0.78560710577E+02  0.88222023658E+02  0.00000000000E+00 0.  1.
         22    1    3    3    0    0  0.66533804582E+01 -0.40650209359E+02 -0.24799992474E+02  0.48080626235E+02  0.00000000000E+00 0.  1.
</event>
<event>
 7    1  0.5957303E-006  0.8203524E+02  0.7818608E-02  0.1404365E+00
          2   -1    0    0  502    0  0.00000000000E+00  0.00000000000E+00  0.32580700013E+03  0.32580700013E+03  0.00000000000E+00 0. -1.
          1   -1    0    0  501    0 -0.00000000000E+00 -0.00000000000E+00 -0.24411759791E+03  0.24411759791E+03  0.00000000000E+00 0. -1.
         25    2    1    2    0    0  0.76742994943E+02  0.27618628420E+02 -0.99046186025E+02  0.17913000449E+03  0.12500054254E+03 0.  0.
          2    1    1    2  501    0 -0.84360157995E+02  0.13353901500E+02 -0.85774170543E+02  0.12104615349E+03  0.00000000000E+00 0. -1.
          1    1    1    2  502    0  0.76171630522E+01 -0.40972529921E+02  0.26650975879E+03  0.26974844006E+03  0.00000000000E+00 0. -1.
         22    1    3    3    0    0  0.10497008807E+03  0.55280412938E+01 -0.45147139693E+02  0.11440079917E+03  0.00000000000E+00 0. -1.
         22    1    3    3    0    0 -0.28227093124E+02  0.22090587127E+02 -0.53899046332E+02  0.64729205320E+02  0.00000000000E+00 0. -1.
</event>
<event>
 7    1  0.5957303E-006  0.1172654E+03  0.7818608E-02  0.1321884E+00
          2   -1    0    0  502    0  0.00000000000E+00  0.00000000000E+00  0.71738163342E+02  0.71738163342E+02  0.00000000000E+00 0. -1.
          1   -1    0    0  501    0 -0.00000000000E+00 -0.00000000000E+00 -0.91268592259E+03  0.91268592259E+03  0.00000000000E+00 0. -1.
         25    2    1    2    0    0 -0.51634690074E+02  0.11370954202E+03 -0.24971721680E+03  0.30590652170E+03  0.12499644189E+03 0.  0.
          2    1    1    2  501    0  0.57991881652E+02  0.43478693583E+01 -0.55036023649E+03  0.55342420639E+03  0.00000000000E+00 0. -1.
          1    1    1    2  502    0 -0.63571915778E+01 -0.11805741138E+03 -0.40870305954E+02  0.12509335784E+03  0.00000000000E+00 0. -1.
         22    1    3    3    0    0 -0.30359683197E+02  0.13761556113E+02 -0.17792683942E+03  0.18102223890E+03  0.00000000000E+00 0.  1.
         22    1    3    3    0    0 -0.21275006878E+02  0.99947985911E+02 -0.71790377373E+02  0.12488428279E+03  0.00000000000E+00 0.  1.
</event>
<event>
 7    1  0.5957303E-006  0.7141586E+02  0.7818608E-02  0.1395071E+00
          2   -1    0    0  502    0  0.00000000000E+00  0.00000000000E+00  0.85420852219E+03  0.85420852219E+03  0.00000000000E+00 0. -1.
          1   -1    0    0  501    0 -0.00000000000E+00 -0.00000000000E+00 -0.11976217208E+04  0.11976217208E+04  0.00000000000E+00 0. -1.
         25    2    1    2    0    0  0.95636875317E+02 -0.25142461867E+02 -0.19758371112E+03  0.25385466855E+03  0.12499725810E+03 0.  0.
          2    1    1    2  501    0 -0.26851364120E+02  0.43979843779E+02 -0.96967787578E+03  0.97104603660E+03  0.00000000000E+00 0. -1.
          1    1    1    2  502    0 -0.68785511197E+02 -0.18837381912E+02  0.82384838834E+03  0.82692953779E+03  0.00000000000E+00 0. -1.
         22    1    3    3    0    0  0.35269584350E+02  0.27280613154E+02 -0.44312694274E+01  0.44808610590E+02  0.00000000000E+00 0.  1.
         22    1    3    3    0    0  0.60367290967E+02 -0.52423075021E+02 -0.19315244170E+03  0.20904605796E+03  0.00000000000E+00 0.  1.
</event>
<event>
 7    1  0.5957303E-006  0.6161331E+02  0.7818608E-02  0.1461397E+00
          2   -1    0    0  502    0  0.00000000000E+00  0.00000000000E+00  0.10384361541E+04  0.10384361541E+04  0.00000000000E+00 0. -1.
          1   -1    0    0  501    0 -0.00000000000E+00 -0.00000000000E+00 -0.18647389618E+04  0.18647389618E+04  0.00000000000E+00 0. -1.
         25    2    1    2    0    0  0.76999446590E+02 -0.38845436186E+02  0.70071622598E+02  0.16725423319E+03  0.12500425408E+03 0.  0.
          2    1    1    2  501    0 -0.61193360108E+02  0.64238088892E+01 -0.18152725929E+04  0.18163150826E+04  0.00000000000E+00 0. -1.
          1    1    1    2  502    0 -0.15806086482E+02  0.32421627296E+02  0.91889816266E+03  0.91960580012E+03  0.00000000000E+00 0. -1.
         22    1    3    3    0    0 -0.30681271288E+02 -0.26134940023E+02  0.45328296185E+01  0.40557638519E+02  0.00000000000E+00 0.  1.
         22    1    3    3    0    0  0.10768071788E+03 -0.12710496162E+02  0.65538792980E+02  0.12669659467E+03  0.00000000000E+00 0.  1.
</event>
<event>
 7    1  0.5957303E-006  0.3553302E+02  0.7818608E-02  0.1544894E+00
          2   -1    0    0  502    0  0.00000000000E+00  0.00000000000E+00  0.22556718548E+03  0.22556718548E+03  0.00000000000E+00 0. -1.
          1   -1    0    0  501    0 -0.00000000000E+00 -0.00000000000E+00 -0.11053056143E+03  0.11053056143E+03  0.00000000000E+00 0. -1.
         25    2    1    2    0    0 -0.22252138478E+02  0.38910508805E+02  0.10775701359E+02  0.13323263224E+03  0.12500253274E+03 0.  0.
          2    1    1    2  501    0 -0.12678437745E+02 -0.33753358668E+02 -0.40287964652E+02  0.54066182599E+02  0.00000000000E+00 0. -1.
          1    1    1    2  502    0  0.34930576223E+02 -0.51571501372E+01  0.14454888735E+03  0.14879893207E+03  0.00000000000E+00 0. -1.
         22    1    3    3    0    0  0.89994217339E+01 -0.41797385189E+01  0.59949688075E+02  0.60765326510E+02  0.00000000000E+00 0.  1.
         22    1    3    3    0    0 -0.31251560212E+02  0.43090247324E+02 -0.49173986716E+02  0.72467305729E+02  0.00000000000E+00 0.  1.
</event>
<event>
 7    1  0.5957303E-006  0.6010074E+02  0.7818608E-02  0.1467990E+00
          2   -1    0    0  502    0  0.00000000000E+00  0.00000000000E+00  0.17231069999E+04  0.17231069999E+04  0.00000000000E+00 0. -1.
          1   -1    0    0  501    0 -0.00000000000E+00 -0.00000000000E+00 -0.82127884335E+02  0.82127884335E+02  0.00000000000E+00 0. -1.
         25    2    1    2    0    0  0.19028269799E+01 -0.62798723582E+02  0.18601827115E+03  0.23275616202E+03  0.12500133328E+03 0.  0.
          2    1    1    2  501    0  0.31575691028E+02  0.51735896498E+02 -0.42866005559E+02  0.74236929374E+02  0.00000000000E+00 0. -1.
          1    1    1    2  502    0 -0.33478518008E+02  0.11062827084E+02  0.14978268500E+04  0.14982417928E+04  0.00000000000E+00 0. -1.
         22    1    3    3    0    0 -0.32463973276E+01 -0.99361299454E+02  0.15684980384E+03  0.18570155597E+03  0.00000000000E+00 0.  1.
         22    1    3    3    0    0  0.51492243075E+01  0.36562575872E+02  0.29168467307E+02  0.47054606049E+02  0.00000000000E+00 0.  1.
</event>
<event>
 7    1  0.5957303E-006  0.3569624E+02  0.7818608E-02  0.1572121E+00
          2   -1    0    0  502    0  0.00000000000E+00  0.00000000000E+00  0.17070496649E+04  0.17070496649E+04  0.00000000000E+00 0. -1.
          1   -1    0    0  501    0 -0.00000000000E+00 -0.00000000000E+00 -0.66308211656E+02  0.66308211656E+02  0.00000000000E+00 0. -1.
         25    2    1    2    0    0  0.14936269136E+02 -0.17886168659E+02  0.11899000603E+03  0.17414412214E+03  0.12499818629E+03 0.  0.
          2    1    1    2  501    0 -0.24392191200E+02 -0.16708594644E+02 -0.32851589936E+02  0.44197093658E+02  0.00000000000E+00 0. -1.
          1    1    1    2  502    0  0.94559220638E+01  0.34594763303E+02  0.15546030372E+04  0.15550166608E+04  0.00000000000E+00 0. -1.
         22    1    3    3    0    0 -0.34328069543E+02  0.32920275003E+02  0.18060017430E+02  0.50875584462E+02  0.00000000000E+00 0.  1.
         22    1    3    3    0    0  0.49264338679E+02 -0.50806443662E+02  0.10092998860E+03  0.12326853768E+03  0.00000000000E+00 0.  1.
</event>
<event>
 7    1  0.5957303E-006  0.8876529E+02  0.7818608E-02  0.1338306E+00
          2   -1    0    0  502    0  0.00000000000E+00  0.00000000000E+00  0.22936344964E+04  0.22936344964E+04  0.00000000000E+00 0. -1.
          1   -1    0    0  501    0 -0.00000000000E+00 -0.00000000000E+00 -0.89092537437E+02  0.89092537437E+02  0.00000000000E+00 0. -1.
         25    2    1    2    0    0 -0.21532903951E+02  0.14756560348E+03  0.11122104512E+04  0.11291040226E+04  0.12499813121E+03 0.  0.
          2    1    1    2  501    0 -0.65607555881E+01 -0.87298303584E+02 -0.55638494104E+02  0.10372887423E+03  0.00000000000E+00 0. -1.
          1    1    1    2  502    0  0.28093659539E+02 -0.60267299894E+02  0.11479700018E+04  0.11498941370E+04  0.00000000000E+00 0. -1.
         22    1    3    3    0    0 -0.43343409648E+02  0.16169707088E+03  0.91491857065E+03  0.93010783504E+03  0.00000000000E+00 0. -1.
         22    1    3    3    0    0  0.21810505697E+02 -0.14131467406E+02  0.19729188054E+03  0.19899618754E+03  0.00000000000E+00 0. -1.
</event>
<event>
 7    1  0.5957303E-006  0.6505981E+02  0.7818608E-02  0.1383327E+00
          2   -1    0    0  502    0  0.00000000000E+00  0.00000000000E+00  0.17545555514E+04  0.17545555514E+04  0.00000000000E+00 0. -1.
          1   -1    0    0  501    0 -0.00000000000E+00 -0.00000000000E+00 -0.95291531413E+02  0.95291531413E+02  0.00000000000E+00 0. -1.
         25    2    1    2    0    0  0.18981358043E+02  0.14769738120E+02  0.25008891840E+03  0.28062033491E+03  0.12499947257E+03 0.  0.
          2    1    1    2  501    0 -0.60233167025E+02  0.31739198373E+02 -0.64770065835E+02  0.93971126158E+02  0.00000000000E+00 0. -1.
          1    1    1    2  502    0  0.41251808982E+02 -0.46508936493E+02  0.14739451674E+04  0.14752556217E+04  0.00000000000E+00 0. -1.
         22    1    3    3    0    0 -0.31058188948E+02  0.48545911228E+02  0.17515256402E+03  0.18439017675E+03  0.00000000000E+00 0.  1.
         22    1    3    3    0    0  0.50039546991E+02 -0.33776173108E+02  0.74936354375E+02  0.96230158162E+02  0.00000000000E+00 0.  1.
</event>
<event>
 7    1  0.5957303E-006  0.7699727E+02  0.7818608E-02  0.1458859E+00
          2   -1    0    0  502    0  0.00000000000E+00  0.00000000000E+00  0.35623063246E+03  0.35623063246E+03  0.00000000000E+00 0. -1.
          1   -1    0    0  501    0 -0.00000000000E+00 -0.00000000000E+00 -0.26533652884E+03  0.26533652884E+03  0.00000000000E+00 0. -1.
         25    2    1    2    0    0  0.62519553421E+00  0.66036940786E+02 -0.39427878640E+02  0.14676730421E+03  0.12499926221E+03 0.  0.
          2    1    1    2  501    0  0.27492662259E+02 -0.74623543131E+02 -0.16228300901E+03  0.18072159440E+03  0.00000000000E+00 0. -1.
          1    1    1    2  502    0 -0.28117857793E+02  0.85866023448E+01  0.29260499127E+03  0.29407826268E+03  0.00000000000E+00 0. -1.
         22    1    3    3    0    0  0.14561977891E+02 -0.31146551044E+02 -0.34131130850E+02  0.48446805211E+02  0.00000000000E+00 0.  1.
         22    1    3    3    0    0 -0.13936782357E+02  0.97183491830E+02 -0.52967477898E+01  0.98320499002E+02  0.00000000000E+00 0.  1.
</event>
<event>
 7    1  0.5957303E-006  0.1314598E+03  0.7818608E-02  0.1279605E+00
          2   -1    0    0  502    0  0.00000000000E+00  0.00000000000E+00  0.13364741140E+04  0.13364741140E+04  0.00000000000E+00 0. -1.
          1   -1    0    0  501    0 -0.00000000000E+00 -0.00000000000E+00 -0.12797568060E+04  0.12797568060E+04  0.00000000000E+00 0. -1.
         25    2    1    2    0    0 -0.12407139436E+03  0.16283387793E+03 -0.20736408009E+02  0.24075561150E+03  0.12499873260E+03 0.  0.
          2    1    1    2  501    0  0.55133587892E+02 -0.53135357533E+02 -0.11443060674E+04  0.11468650551E+04  0.00000000000E+00 0. -1.
          1    1    1    2  502    0  0.68937806473E+02 -0.10969852039E+03  0.12217597834E+04  0.12286102534E+04  0.00000000000E+00 0. -1.
         22    1    3    3    0    0 -0.28972299623E+02 -0.18219288551E+02 -0.11249859444E+02  0.36026323130E+02  0.00000000000E+00 0. -1.
         22    1    3    3    0    0 -0.95099094742E+02  0.18105316648E+03 -0.94865485654E+01  0.20472928837E+03  0.00000000000E+00 0. -1.
</event>
<event>
 7    1  0.5957303E-006  0.2311879E+03  0.7818608E-02  0.1187112E+00
          2   -1    0    0  502    0  0.00000000000E+00  0.00000000000E+00  0.25213962879E+04  0.25213962879E+04  0.00000000000E+00 0. -1.
          1   -1    0    0  501    0 -0.00000000000E+00 -0.00000000000E+00 -0.22844010578E+03  0.22844010578E+03  0.00000000000E+00 0. -1.
         25    2    1    2    0    0  0.16542191088E+03 -0.60384188303E+01  0.37435338932E+03  0.42798105084E+03  0.12500579457E+03 0.  0.
          2    1    1    2  501    0  0.74062827532E+02  0.84940304443E+02 -0.17771116370E+03  0.21043149822E+03  0.00000000000E+00 0. -1.
          1    1    1    2  502    0 -0.23948473841E+03 -0.78901885613E+02  0.20963139565E+04  0.21114238446E+04  0.00000000000E+00 0. -1.
         22    1    3    3    0    0 -0.63995123938E+01 -0.13838379409E+02  0.11980046035E+03  0.12076673715E+03  0.00000000000E+00 0.  1.
         22    1    3    3    0    0  0.17182142327E+03  0.77999605784E+01  0.25455292898E+03  0.30721431368E+03  0.00000000000E+00 0.  1.
</event>
<event>
 7    1  0.5957303E-006  0.7127062E+02  0.7818608E-02  0.1445225E+00
          2   -1    0    0  502    0  0.00000000000E+00  0.00000000000E+00  0.36191057628E+03  0.36191057628E+03  0.00000000000E+00 0. -1.
          1   -1    0    0  501    0 -0.00000000000E+00 -0.00000000000E+00 -0.33237539012E+03  0.33237539012E+03  0.00000000000E+00 0. -1.
         25    2    1    2    0    0 -0.83475130857E+02  0.37165680247E+02  0.11497455126E+03  0.19285879597E+03  0.12500392988E+03 0.  0.
          2    1    1    2  501    0  0.50634144389E+02 -0.49576450184E+02 -0.28761998585E+03  0.29622102770E+03  0.00000000000E+00 0. -1.
          1    1    1    2  502    0  0.32840986469E+02  0.12410769937E+02  0.20218062075E+03  0.20520614272E+03  0.00000000000E+00 0. -1.
         22    1    3    3    0    0 -0.98546972545E+02  0.53494405233E+02  0.12547881403E+03  0.16827979664E+03  0.00000000000E+00 0. -1.
         22    1    3    3    0    0  0.15071841688E+02 -0.16328724986E+02 -0.10504262769E+02  0.24578999326E+02  0.00000000000E+00 0. -1.
</event>
<event>
 7    1  0.5957303E-006  0.6044343E+02  0.7818608E-02  0.1465067E+00
          2   -1    0    0  502    0  0.00000000000E+00  0.00000000000E+00  0.20655634333E+03  0.20655634333E+03  0.00000000000E+00 0. -1.
          1   -1    0    0  501    0 -0.00000000000E+00 -0.00000000000E+00 -0.26958655087E+03  0.26958655087E+03  0.00000000000E+00 0. -1.
         25    2    1    2    0    0 -0.25359477343E+02 -0.26103214909E+02  0.47097977236E+02  0.13844892581E+03  0.12500161871E+03 0.  0.
          2    1    1    2  501    0  0.14234577691E+02  0.60135544419E+02 -0.21666286048E+03  0.22530357746E+03  0.00000000000E+00 0. -1.
          1    1    1    2  502    0  0.11124899652E+02 -0.34032329511E+02  0.10653467571E+03  0.11239039093E+03  0.00000000000E+00 0. -1.
         22    1    3    3    0    0  0.68872008643E+00  0.31092861190E+02 -0.27071688669E+02  0.41232471182E+02  0.00000000000E+00 0. -1.
         22    1    3    3    0    0 -0.26048197429E+02 -0.57196076099E+02  0.74169665905E+02  0.97216454630E+02  0.00000000000E+00 0. -1.
</event>
<event>
 7    1  0.5957303E-006  0.1357017E+03  0.7818608E-02  0.1326436E+00
          2   -1    0    0  502    0  0.00000000000E+00  0.00000000000E+00  0.16319834725E+04  0.16319834725E+04  0.00000000000E+00 0. -1.
          1   -1    0    0  501    0 -0.00000000000E+00 -0.00000000000E+00 -0.46743589204E+03  0.46743589204E+03  0.00000000000E+00 0. -1.
         25    2    1    2    0    0  0.13055533846E+02  0.90316925245E+02  0.25431269181E+03  0.29770587140E+03  0.12500498671E+03 0.  0.
          2    1    1    2  501    0 -0.25053732153E+01 -0.13741329117E+03 -0.43470213164E+03  0.45591077278E+03  0.00000000000E+00 0. -1.
          1    1    1    2  502    0 -0.10550160630E+02  0.47096365923E+02  0.13449370203E+04  0.13458027204E+04  0.00000000000E+00 0. -1.
         22    1    3    3    0    0  0.64852085425E+02  0.70667591285E+02  0.18989413287E+03  0.21274276284E+03  0.00000000000E+00 0.  1.
         22    1    3    3    0    0 -0.51796551580E+02  0.19649333960E+02  0.64418558940E+02  0.84963108563E+02  0.00000000000E+00 0.  1.
</event>
<event>
 7    1  0.5957303E-006  0.1602824E+03  0.7818608E-02  0.1198484E+00
          2   -1    0    0  502    0  0.00000000000E+00  0.00000000000E+00  0.15992637122E+04  0.15992637122E+04  0.00000000000E+00 0. -1.
          1   -1    0    0  501    0 -0.00000000000E+00 -0.00000000000E+00 -0.13673676298E+03  0.13673676298E+03  0.00000000000E+00 0. -1.
         25    2    1    2    0    0  0.22911372090E+01 -0.56865538089E+02  0.37576990623E+03  0.40008344948E+03  0.12499922156E+03 0.  0.
          2    1    1    2  501    0  0.15705781987E+03  0.39592303946E+02 -0.63921963384E+02  0.17412847762E+03  0.00000000000E+00 0. -1.
          1    1    1    2  502    0 -0.15934895708E+03  0.17273234144E+02  0.11506790063E+04  0.11617885480E+04  0.00000000000E+00 0. -1.
         22    1    3    3    0    0  0.27687507185E+01 -0.30900225857E+02  0.37263611921E+03  0.37392534987E+03  0.00000000000E+00 0.  1.
         22    1    3    3    0    0 -0.47761350949E+00 -0.25965312232E+02  0.31337870168E+01  0.26158099607E+02  0.00000000000E+00 0.  1.
</event>
<event>
 7    1  0.5957303E-006  0.5314344E+02  0.7818608E-02  0.1514158E+00
          2   -1    0    0  502    0  0.00000000000E+00  0.00000000000E+00  0.40657017674E+03  0.40657017674E+03  0.00000000000E+00 0. -1.
          1   -1    0    0  501    0 -0.00000000000E+00 -0.00000000000E+00 -0.86611245927E+03  0.86611245927E+03  0.00000000000E+00 0. -1.
         25    2    1    2    0    0 -0.23637160495E+02  0.40294925112E+02  0.12410683513E+03  0.18223572185E+03  0.12499982178E+03 0.  0.
          2    1    1    2  501    0  0.25228469073E+02  0.14137808290E+02 -0.83386877097E+03  0.83437011001E+03  0.00000000000E+00 0. -1.
          1    1    1    2  502    0 -0.15913085773E+01 -0.54432733401E+02  0.25021965330E+03  0.25607680416E+03  0.00000000000E+00 0. -1.
         22    1    3    3    0    0 -0.28247176094E+02  0.34507490399E+02 -0.11798684603E+02  0.46128936789E+02  0.00000000000E+00 0.  1.
         22    1    3    3    0    0  0.46100155984E+01  0.57874347127E+01  0.13590551974E+03  0.13610678506E+03  0.00000000000E+00 0.  1.
</event>
<event>
 7    1  0.5957303E-006  0.8104577E+02  0.7818608E-02  0.1380152E+00
          2   -1    0    0  502    0  0.00000000000E+00  0.00000000000E+00  0.13222050331E+03  0.13222050331E+03  0.00000000000E+00 0. -1.
          1   -1    0    0  501    0 -0.00000000000E+00 -0.00000000000E+00 -0.39138952069E+03  0.39138952069E+03  0.00000000000E+00 0. -1.
         25    2    1    2    0    0 -0.37114548078E+02  0.77389145220E+02 -0.10750776034E+03  0.18587482608E+03  0.12499985184E+03 0.  0.
          2    1    1    2  501    0 -0.13934659210E+02 -0.81453769919E+02 -0.22985827943E+03  0.24426158106E+03  0.00000000000E+00 0. -1.
          1    1    1    2  502    0  0.51049207289E+02  0.40646246992E+01  0.78197022391E+02  0.93473616864E+02  0.00000000000E+00 0. -1.
         22    1    3    3    0    0  0.36216796908E+02  0.25754042133E+02 -0.80937462587E+02  0.92335258241E+02  0.00000000000E+00 0.  1.
         22    1    3    3    0    0 -0.73331344986E+02  0.51635103087E+02 -0.26570297750E+02  0.93539567835E+02  0.00000000000E+00 0.  1.
</event>
<event>
 7    1  0.5957303E-006  0.9446022E+02  0.7818608E-02  0.1368866E+00
          2   -1    0    0  502    0  0.00000000000E+00  0.00000000000E+00  0.11201911128E+03  0.11201911128E+03  0.00000000000E+00 0. -1.
          1   -1    0    0  501    0 -0.00000000000E+00 -0.00000000000E+00 -0.24087052435E+04  0.24087052435E+04  0.00000000000E+00 0. -1.
         25    2    1    2    0    0 -0.58318971229E+02  0.42179028497E+02 -0.25212781552E+03  0.29047191536E+03  0.12500130160E+03 0.  0.
          2    1    1    2  501    0  0.40862368355E+02 -0.87118719831E+02 -0.21299866210E+04  0.21321590959E+04  0.00000000000E+00 0. -1.
          1    1    1    2  502    0  0.17456602874E+02  0.44939691333E+02  0.85428304391E+02  0.98093343465E+02  0.00000000000E+00 0. -1.
         22    1    3    3    0    0 -0.87826589525E+02  0.62846373761E+02 -0.18192974198E+03  0.21156939178E+03  0.00000000000E+00 0. -1.
         22    1    3    3    0    0  0.29507618296E+02 -0.20667345264E+02 -0.70198073544E+02  0.78902523578E+02  0.00000000000E+00 0. -1.
</event>
<event>
 7    1  0.5957303E-006  0.7701972E+02  0.7818608E-02  0.1364310E+00
          2   -1    0    0  502    0  0.00000000000E+00  0.00000000000E+00  0.14615787128E+04  0.14615787128E+04  0.00000000000E+00 0. -1.
          1   -1    0    0  501    0 -0.00000000000E+00 -0.00000000000E+00 -0.41985908186E+02  0.41985908186E+02  0.00000000000E+00 0. -1.
         25    2    1    2    0    0  0.67920583460E+02  0.24501974580E+02  0.42188990139E+03  0.44590340360E+03  0.12500081611E+03 0.  0.
          2    1    1    2  501    0  0.36745372831E+01 -0.61302052851E+02  0.49077811438E+01  0.61607874689E+02  0.00000000000E+00 0. -1.
          1    1    1    2  502    0 -0.71595120743E+02  0.36800078271E+02  0.99279512207E+03  0.99605334269E+03  0.00000000000E+00 0. -1.
         22    1    3    3    0    0  0.34382379291E+02 -0.24819315649E+02  0.34970010313E+03  0.35226170465E+03  0.00000000000E+00 0.  1.
         22    1    3    3    0    0  0.33538204168E+02  0.49321290229E+02  0.72189798259E+02  0.93641698945E+02  0.00000000000E+00 0.  1.
</event>
<event>
 7    1  0.5957303E-006  0.1524888E+03  0.7818608E-02  0.1381925E+00
          2   -1    0    0  502    0  0.00000000000E+00  0.00000000000E+00  0.10773670535E+04  0.10773670535E+04  0.00000000000E+00 0. -1.
          1   -1    0    0  501    0 -0.00000000000E+00 -0.00000000000E+00 -0.16985584037E+03  0.16985584037E+03  0.00000000000E+00 0. -1.
         25    2    1    2    0    0 -0.97257089270E+02 -0.10235972777E+03  0.12651085429E+03  0.22708517138E+03  0.12500489401E+03 0.  0.
          2    1    1    2  501    0  0.10126068998E+02 -0.24843364669E+02 -0.11136478562E+03  0.11455062425E+03  0.00000000000E+00 0. -1.
          1    1    1    2  502    0  0.87131020272E+02  0.12720309244E+03  0.89236514443E+03  0.90558709819E+03  0.00000000000E+00 0. -1.
         22    1    3    3    0    0 -0.86556828637E+02 -0.39530388290E+02  0.11836414938E+02  0.95889712173E+02  0.00000000000E+00 0. -1.
         22    1    3    3    0    0 -0.10700260633E+02 -0.62829339484E+02  0.11467443935E+03  0.13119545921E+03  0.00000000000E+00 0. -1.
</event>
<event>
 7    1  0.5957303E-006  0.5232770E+02  0.7818608E-02  0.1436440E+00
          2   -1    0    0  502    0  0.00000000000E+00  0.00000000000E+00  0.78121190486E+03  0.78121190486E+03  0.00000000000E+00 0. -1.
          1   -1    0    0  501    0 -0.00000000000E+00 -0.00000000000E+00 -0.21429856365E+02  0.21429856365E+02  0.00000000000E+00 0. -1.
         25    2    1    2    0    0 -0.23401206859E+02 -0.80240115303E+01  0.37143356881E+03  0.39269289593E+03  0.12503124901E+03 0.  0.
          2    1    1    2  501    0 -0.30136560177E+02  0.41214915337E+02  0.77671207848E+02  0.92949975977E+02  0.00000000000E+00 0. -1.
          1    1    1    2  502    0  0.53537767036E+02 -0.33190903807E+02  0.31067727183E+03  0.31699888932E+03  0.00000000000E+00 0. -1.
         22    1    3    3    0    0  0.26134124255E+01  0.43413206940E+02  0.28811351958E+03  0.29137765293E+03  0.00000000000E+00 0.  1.
         22    1    3    3    0    0 -0.26014619285E+02 -0.51437218470E+02  0.83320049235E+02  0.10131524300E+03  0.00000000000E+00 0.  1.
</event>
<event>
 7    1  0.5957303E-006  0.7376898E+02  0.7818608E-02  0.1367289E+00
          2   -1    0    0  502    0  0.00000000000E+00  0.00000000000E+00  0.25014085140E+03  0.25014085140E+03  0.00000000000E+00 0. -1.
          1   -1    0    0  501    0 -0.00000000000E+00 -0.00000000000E+00 -0.75882043416E+03  0.75882043416E+03  0.00000000000E+00 0. -1.
         25    2    1    2    0    0 -0.40076760741E+02  0.11040599928E+03  0.13896078315E+03  0.22074897502E+03  0.12499751713E+03 0.  0.
          2    1    1    2  501    0 -0.98845831889E+01 -0.72776279632E+02 -0.70170467021E+03  0.70553776374E+03  0.00000000000E+00 0. -1.
          1    1    1    2  502    0  0.49961343930E+02 -0.37629719651E+02  0.54064304306E+02  0.82674546799E+02  0.00000000000E+00 0. -1.
         22    1    3    3    0    0 -0.83496584535E+02  0.53958613132E+02  0.91940210254E+02  0.13541127657E+03  0.00000000000E+00 0.  1.
         22    1    3    3    0    0  0.43419823794E+02  0.56447386151E+02  0.47020572893E+02  0.85337698450E+02  0.00000000000E+00 0.  1.
</event>
<event>
 7    1  0.5957303E-006  0.8595991E+02  0.7818608E-02  0.1435058E+00
          2   -1    0    0  502    0  0.00000000000E+00  0.00000000000E+00  0.26740013550E+04  0.26740013550E+04  0.00000000000E+00 0. -1.
          1   -1    0    0  501    0 -0.00000000000E+00 -0.00000000000E+00 -0.66035843379E+02  0.66035843379E+02  0.00000000000E+00 0. -1.
         25    2    1    2    0    0  0.23801206886E+02  0.58952881590E+02  0.15009683071E+04  0.15075056896E+04  0.12500242215E+03 0.  0.
          2    1    1    2  501    0 -0.54020800948E+02 -0.67502168565E+02 -0.32675974043E+02  0.92425694348E+02  0.00000000000E+00 0. -1.
          1    1    1    2  502    0  0.30219594062E+02  0.85492869747E+01  0.11396731785E+04  0.11401058144E+04  0.00000000000E+00 0. -1.
         22    1    3    3    0    0  0.34845207170E+02 -0.31975529314E+02  0.61472557237E+03  0.61654209285E+03  0.00000000000E+00 0. -1.
         22    1    3    3    0    0 -0.11044000284E+02  0.90928410904E+02  0.88624273476E+03  0.89096359677E+03  0.00000000000E+00 0. -1.
</event>
<event>
 7    1  0.5957303E-006  0.1071794E+03  0.7818608E-02  0.1320201E+00
          2   -1    0    0  502    0  0.00000000000E+00  0.00000000000E+00  0.26448207194E+04  0.26448207194E+04  0.00000000000E+00 0. -1.
          1   -1    0    0  501    0 -0.00000000000E+00 -0.00000000000E+00 -0.14567746039E+03  0.14567746039E+03  0.00000000000E+00 0. -1.
         25    2    1    2    0    0  0.41211158397E+02  0.14332797264E+03  0.26022251440E+03  0.32493447254E+03  0.12500154848E+03 0.  0.
          2    1    1    2  501    0 -0.52300629216E+02 -0.37900352562E+02 -0.10282047608E+03  0.12142422675E+03  0.00000000000E+00 0. -1.
          1    1    1    2  502    0  0.11089470819E+02 -0.10542762008E+03  0.23417412207E+04  0.23441394805E+04  0.00000000000E+00 0. -1.
         22    1    3    3    0    0 -0.22577527297E+01  0.14775652447E+03  0.22309069710E+03  0.26759399676E+03  0.00000000000E+00 0.  1.
         22    1    3    3    0    0  0.43468911127E+02 -0.44285518261E+01  0.37131817303E+02  0.57340475775E+02  0.00000000000E+00 0.  1.
</event>
<event>
 7    1  0.5957303E-006  0.8736342E+02  0.7818608E-02  0.1484266E+00
          2   -1    0    0  502    0  0.00000000000E+00  0.00000000000E+00  0.38299133933E+03  0.38299133933E+03  0.00000000000E+00 0. -1.
          1   -1    0    0  501    0 -0.00000000000E+00 -0.00000000000E+00 -0.64537418846E+03  0.64537418846E+03  0.00000000000E+00 0. -1.
         25    2    1    2    0    0  0.10772718145E+03  0.69337367287E+01 -0.26050537834E+03  0.30844941364E+03  0.12499906520E+03 0.  0.
          2    1    1    2  501    0 -0.20747143080E+02 -0.60394341465E+01 -0.35529498500E+03  0.35595146450E+03  0.00000000000E+00 0. -1.
          1    1    1    2  502    0 -0.86980038373E+02 -0.89430258225E+00  0.35341751421E+03  0.36396464966E+03  0.00000000000E+00 0. -1.
         22    1    3    3    0    0  0.10755954515E+03 -0.93193521858E+01 -0.26918125762E+03  0.29002492226E+03  0.00000000000E+00 0.  1.
         22    1    3    3    0    0  0.16763630090E+00  0.16253088915E+02  0.86758792821E+01  0.18424491377E+02  0.00000000000E+00 0.  1.
</event>
<event>
 7    1  0.5957303E-006  0.1007033E+03  0.7818608E-02  0.1388757E+00
          2   -1    0    0  502    0  0.00000000000E+00  0.00000000000E+00  0.24409552015E+03  0.24409552015E+03  0.00000000000E+00 0. -1.
          1   -1    0    0  501    0 -0.00000000000E+00 -0.00000000000E+00 -0.17365359490E+03  0.17365359490E+03  0.00000000000E+00 0. -1.
         25    2    1    2    0    0 -0.37157591678E+02  0.59523374807E+02  0.75750270982E+02  0.16213373841E+03  0.12500210722E+03 0.  0.
          2    1    1    2  501    0  0.68739804041E+02 -0.81435018297E+02 -0.10448841511E+03  0.14924694890E+03  0.00000000000E+00 0. -1.
          1    1    1    2  502    0 -0.31582212362E+02  0.21911643491E+02  0.99180069373E+02  0.10636842774E+03  0.00000000000E+00 0. -1.
         22    1    3    3    0    0 -0.41275395832E+01 -0.10697188145E+02 -0.29337973724E+02  0.31498938386E+02  0.00000000000E+00 0. -1.
         22    1    3    3    0    0 -0.33030052095E+02  0.70220562951E+02  0.10508824471E+03  0.13063480003E+03  0.00000000000E+00 0. -1.
</event>
<event>
 7    1  0.5957303E-006  0.1056072E+03  0.7818608E-02  0.1341360E+00
          2   -1    0    0  502    0  0.00000000000E+00  0.00000000000E+00  0.87918478968E+03  0.87918478968E+03  0.00000000000E+00 0. -1.
          1   -1    0    0  501    0 -0.00000000000E+00 -0.00000000000E+00 -0.73285996833E+02  0.73285996833E+02  0.00000000000E+00 0. -1.
         25    2    1    2    0    0 -0.15068211055E+02 -0.12463439373E+03  0.22684509607E+03  0.28782863092E+03  0.12500336027E+03 0.  0.
          2    1    1    2  501    0 -0.32264701325E+02  0.97760182874E+02  0.22428139240E+02  0.10536169008E+03  0.00000000000E+00 0. -1.
          1    1    1    2  502    0  0.47332912380E+02  0.26874210857E+02  0.55662555753E+03  0.55928046551E+03  0.00000000000E+00 0. -1.
         22    1    3    3    0    0  0.55290830915E+02 -0.49269227032E+02  0.95450923603E+02  0.12081147103E+03  0.00000000000E+00 0.  1.
         22    1    3    3    0    0 -0.70359041969E+02 -0.75365166700E+02  0.13139417247E+03  0.16701715989E+03  0.00000000000E+00 0.  1.
</event>
<event>
 7    1  0.1235927E-005  0.7143995E+02  0.7818608E-02  0.1426322E+00
          2   -1    0    0  502    0  0.00000000000E+00  0.00000000000E+00  0.94325876724E+03  0.94325876724E+03  0.00000000000E+00 0. -1.
          1   -1    0    0  501    0 -0.00000000000E+00 -0.00000000000E+00 -0.21990581393E+04  0.21990581393E+04  0.00000000000E+00 0. -1.
         25    2    1    2    0    0 -0.94445772956E+02 -0.56532617529E+02 -0.66820108134E+03  0.68864650208E+03  0.12500151537E+03 0.  0.
          2    1    1    2  501    0  0.38461910014E+02  0.12276114917E+02 -0.15190011448E+04  0.15195375940E+04  0.00000000000E+00 0. -1.
          1    1    1    2  502    0  0.55983862942E+02  0.44256502612E+02  0.93140285413E+03  0.93413281048E+03  0.00000000000E+00 0. -1.
         22    1    3    3    0    0 -0.10362891704E+03 -0.85129760974E+02 -0.49428580026E+03  0.51215669573E+03  0.00000000000E+00 0.  1.
         22    1    3    3    0    0  0.91831440819E+01  0.28597143445E+02 -0.17391528108E+03  0.17648980634E+03  0.00000000000E+00 0.  1.
</event>
<event>
 7    1  0.5957303E-006  0.9297211E+02  0.7818608E-02  0.1370652E+00
          2   -1    0    0  502    0  0.00000000000E+00  0.00000000000E+00  0.82116581984E+03  0.82116581984E+03  0.00000000000E+00 0. -1.
          1   -1    0    0  501    0 -0.00000000000E+00 -0.00000000000E+00 -0.14967424721E+03  0.14967424721E+03  0.00000000000E+00 0. -1.
         25    2    1    2    0    0  0.20091642347E+02  0.94142161305E+02  0.37699342390E+03  0.40867550857E+03  0.12500083606E+03 0.  0.
          2    1    1    2  501    0 -0.48143146307E+02 -0.34035748524E+01 -0.12398069814E+03  0.13304345294E+03  0.00000000000E+00 0. -1.
          1    1    1    2  502    0  0.28051503960E+02 -0.90738586452E+02  0.41847884687E+03  0.42912110555E+03  0.00000000000E+00 0. -1.
         22    1    3    3    0    0  0.66811448021E+02  0.19390814178E+02  0.17150609202E+03  0.18507866669E+03  0.00000000000E+00 0. -1.
         22    1    3    3    0    0 -0.46719805674E+02  0.74751347126E+02  0.20548733187E+03  0.22359684188E+03  0.00000000000E+00 0. -1.
</event>
<event>
 7    1  0.5957303E-006  0.9795880E+02  0.7818608E-02  0.1305393E+00
          2   -1    0    0  502    0  0.00000000000E+00  0.00000000000E+00  0.17882533003E+04  0.17882533003E+04  0.00000000000E+00 0. -1.
          1   -1    0    0  501    0 -0.00000000000E+00 -0.00000000000E+00 -0.39596036823E+03  0.39596036823E+03  0.00000000000E+00 0. -1.
         25    2    1    2    0    0 -0.15512758594E+02 -0.82590608269E+02  0.17493611408E+03  0.23084578568E+03  0.12500111402E+03 0.  0.
          2    1    1    2  501    0  0.80560529313E+02  0.60275901451E+01 -0.36195654558E+03  0.37086233512E+03  0.00000000000E+00 0. -1.
          1    1    1    2  502    0 -0.65047770719E+02  0.76563018124E+02  0.15793133636E+04  0.15825055477E+04  0.00000000000E+00 0. -1.
         22    1    3    3    0    0  0.42140147943E+02 -0.12396536208E+02  0.11208861548E+03  0.12038822159E+03  0.00000000000E+00 0.  1.
         22    1    3    3    0    0 -0.57652906537E+02 -0.70194072061E+02  0.62847498601E+02  0.11045756409E+03  0.00000000000E+00 0.  1.
</event>
<event>
 7    1  0.5957303E-006  0.1103237E+03  0.7818608E-02  0.1355287E+00
          2   -1    0    0  502    0  0.00000000000E+00  0.00000000000E+00  0.90753405155E+03  0.90753405155E+03  0.00000000000E+00 0. -1.
          1   -1    0    0  501    0 -0.00000000000E+00 -0.00000000000E+00 -0.60361007821E+03  0.60361007821E+03  0.00000000000E+00 0. -1.
         25    2    1    2    0    0 -0.91948584163E+02 -0.38625233878E+02  0.44318016652E+03  0.47114795185E+03  0.12500112684E+03 0.  0.
          2    1    1    2  501    0  0.11048325261E+03 -0.37505334546E+01 -0.58323275728E+03  0.59361693437E+03  0.00000000000E+00 0. -1.
          1    1    1    2  502    0 -0.18534668451E+02  0.42375767333E+02  0.44397656410E+03  0.44637924354E+03  0.00000000000E+00 0. -1.
         22    1    3    3    0    0 -0.53621081209E+01 -0.61551259507E+02  0.26001935730E+03  0.26725900531E+03  0.00000000000E+00 0.  1.
         22    1    3    3    0    0 -0.86586476042E+02  0.22926025629E+02  0.18316080922E+03  0.20388894654E+03  0.00000000000E+00 0.  1.
</event>
<event>
 7    1  0.5957303E-006  0.3840298E+02  0.7818608E-02  0.1573994E+00
          2   -1    0    0  502    0  0.00000000000E+00  0.00000000000E+00  0.53506883286E+02  0.53506883286E+02  0.00000000000E+00 0. -1.
          1   -1    0    0  501    0 -0.00000000000E+00 -0.00000000000E+00 -0.10216031461E+04  0.10216031461E+04  0.00000000000E+00 0. -1.
         25    2    1    2    0    0  0.94785420583E+00  0.17454228822E+02 -0.52074266238E+03  0.53582059996E+03  0.12500098554E+03 0.  0.
          2    1    1    2  501    0 -0.22998112781E+02  0.14454711089E+02 -0.48469122171E+03  0.48545178161E+03  0.00000000000E+00 0. -1.
          1    1    1    2  502    0  0.22050258576E+02 -0.31908939911E+02  0.37337621334E+02  0.53837647760E+02  0.00000000000E+00 0. -1.
         22    1    3    3    0    0 -0.48169828386E+02  0.46274954461E+02 -0.33289279076E+03  0.33952807530E+03  0.00000000000E+00 0.  1.
         22    1    3    3    0    0  0.49117682591E+02 -0.28820725639E+02 -0.18784987163E+03  0.19629252467E+03  0.00000000000E+00 0.  1.
</event>
<event>
 7    1  0.5957303E-006  0.3415665E+02  0.7818608E-02  0.1575150E+00
          2   -1    0    0  502    0  0.00000000000E+00  0.00000000000E+00  0.12304069984E+04  0.12304069984E+04  0.00000000000E+00 0. -1.
          1   -1    0    0  501    0 -0.00000000000E+00 -0.00000000000E+00 -0.75030616528E+03  0.75030616528E+03  0.00000000000E+00 0. -1.
         25    2    1    2    0    0 -0.15799228948E+02  0.47695396521E+02 -0.70823383596E+03  0.72093305074E+03  0.12499932309E+03 0.  0.
          2    1    1    2  501    0 -0.11996314489E+02 -0.27847535132E+02 -0.29005513785E+02  0.41960893748E+02  0.00000000000E+00 0. -1.
          1    1    1    2  502    0  0.27795543438E+02 -0.19847861389E+02  0.12173401829E+04  0.12178192192E+04  0.00000000000E+00 0. -1.
         22    1    3    3    0    0 -0.57509336009E+02  0.29765428095E+02 -0.19035516094E+03  0.20106812710E+03  0.00000000000E+00 0.  1.
         22    1    3    3    0    0  0.41710107060E+02  0.17929968425E+02 -0.51787867501E+03  0.51986492364E+03  0.00000000000E+00 0.  1.
</event>
<event>
 7    1  0.5957303E-006  0.6194142E+02  0.7818608E-02  0.1499851E+00
          2   -1    0    0  502    0  0.00000000000E+00  0.00000000000E+00  0.63638618764E+02  0.63638618764E+02  0.00000000000E+00 0. -1.
          1   -1    0    0  501    0 -0.00000000000E+00 -0.00000000000E+00 -0.52408097850E+03  0.52408097850E+03  0.00000000000E+00 0. -1.
         25    2    1    2    0    0  0.42051450233E+02 -0.14429438024E+02 -0.54295686436E+02  0.14334982930E+03  0.12499847538E+03 0.  0.
          2    1    1    2  501    0 -0.62968953857E+02 -0.31901974863E+01 -0.41166823830E+03  0.41646849213E+03  0.00000000000E+00 0. -1.
          1    1    1    2  502    0  0.20917503625E+02  0.17619635510E+02  0.55215649982E+01  0.27901275839E+02  0.00000000000E+00 0. -1.
         22    1    3    3    0    0 -0.40384363752E+00  0.45711743142E+02  0.86100051753E+01  0.46517295062E+02  0.00000000000E+00 0.  1.
         22    1    3    3    0    0  0.42455293870E+02 -0.60141181166E+02 -0.62905691612E+02  0.96832534237E+02  0.00000000000E+00 0.  1.
</event>
<event>
 7    1  0.5957303E-006  0.7474328E+02  0.7818608E-02  0.1433363E+00
          2   -1    0    0  502    0  0.00000000000E+00  0.00000000000E+00  0.20703285248E+04  0.20703285248E+04  0.00000000000E+00 0. -1.
          1   -1    0    0  501    0 -0.00000000000E+00 -0.00000000000E+00 -0.50713458629E+02  0.50713458629E+02  0.00000000000E+00 0. -1.
         25    2    1    2    0    0  0.69117793920E+02  0.47604306217E+02  0.48033532934E+03  0.50337551437E+03  0.12498576097E+03 0.  0.
          2    1    1    2  501    0 -0.32243144893E+02  0.17282663130E+02 -0.29571985199E+02  0.47040547893E+02  0.00000000000E+00 0. -1.
          1    1    1    2  502    0 -0.36874649027E+02 -0.64886969348E+02  0.15688517220E+04  0.15706259212E+04  0.00000000000E+00 0. -1.
         22    1    3    3    0    0 -0.19463960869E+02 -0.10232161118E+02  0.23725783152E+03  0.23827467660E+03  0.00000000000E+00 0. -1.
         22    1    3    3    0    0  0.88581754790E+02  0.57836467335E+02  0.24307749782E+03  0.26510083776E+03  0.00000000000E+00 0. -1.
</event>
<event>
 7    1  0.5957303E-006  0.1472326E+03  0.7818608E-02  0.1300079E+00
          2   -1    0    0  502    0  0.00000000000E+00  0.00000000000E+00  0.94529676315E+02  0.94529676315E+02  0.00000000000E+00 0. -1.
          1   -1    0    0  501    0 -0.00000000000E+00 -0.00000000000E+00 -0.13843781634E+04  0.13843781634E+04  0.00000000000E+00 0. -1.
         25    2    1    2    0    0 -0.15705238654E+03  0.16375910437E+02 -0.29911608100E+03  0.36059544271E+03  0.12500008331E+03 0.  0.
          2    1    1    2  501    0  0.15444203138E+02 -0.54281690507E+02 -0.96838140990E+03  0.97002452566E+03  0.00000000000E+00 0. -1.
          1    1    1    2  502    0  0.14160818340E+03  0.37905780070E+02 -0.22350996222E+02  0.14828787139E+03  0.00000000000E+00 0. -1.
         22    1    3    3    0    0 -0.15051934463E+03 -0.11689948226E+02 -0.29513205924E+03  0.33150514383E+03  0.00000000000E+00 0.  1.
         22    1    3    3    0    0 -0.65330419101E+01  0.28065858663E+02 -0.39840217589E+01  0.29090298872E+02  0.00000000000E+00 0.  1.
</event>
<event>
 7    1  0.5957303E-006  0.5833122E+02  0.7818608E-02  0.1424461E+00
          2   -1    0    0  502    0  0.00000000000E+00  0.00000000000E+00  0.37543218985E+03  0.37543218985E+03  0.00000000000E+00 0. -1.
          1   -1    0    0  501    0 -0.00000000000E+00 -0.00000000000E+00 -0.34771260094E+03  0.34771260094E+03  0.00000000000E+00 0. -1.
         25    2    1    2    0    0  0.28500998511E+02  0.81490309898E+02 -0.69588385333E+02  0.16708458539E+03  0.12498695043E+03 0.  0.
          2    1    1    2  501    0 -0.45751611316E+02 -0.34396626671E+02 -0.22382822638E+03  0.23103119440E+03  0.00000000000E+00 0. -1.
          1    1    1    2  502    0  0.17250612805E+02 -0.47093683227E+02  0.32113620062E+03  0.32502901100E+03  0.00000000000E+00 0. -1.
         22    1    3    3    0    0  0.78254743762E+02  0.53113448751E+02 -0.45396638842E+02  0.10490804630E+03  0.00000000000E+00 0. -1.
         22    1    3    3    0    0 -0.49753745251E+02  0.28376861146E+02 -0.24191746491E+02  0.62176539091E+02  0.00000000000E+00 0. -1.
</event>
<event>
 7    1  0.5957303E-006  0.1523476E+03  0.7818608E-02  0.1281322E+00
          2   -1    0    0  502    0  0.00000000000E+00  0.00000000000E+00  0.75010847994E+02  0.75010847994E+02  0.00000000000E+00 0. -1.
          1   -1    0    0  501    0 -0.00000000000E+00 -0.00000000000E+00 -0.16619613433E+04  0.16619613433E+04  0.00000000000E+00 0. -1.
         25    2    1    2    0    0  0.57861332991E+02 -0.17135002500E+03 -0.20277004393E+03  0.29908121425E+03  0.12500046832E+03 0.  0.
          2    1    1    2  501    0  0.21043283775E+02  0.61501823096E+02 -0.12342907136E+04  0.12360011568E+04  0.00000000000E+00 0. -1.
          1    1    1    2  502    0 -0.78904616766E+02  0.10984820191E+03 -0.14988973779E+03  0.20188982021E+03  0.00000000000E+00 0. -1.
         22    1    3    3    0    0  0.61255699792E+02 -0.17113683412E+03 -0.12353868952E+03  0.21977689724E+03  0.00000000000E+00 0.  1.
         22    1    3    3    0    0 -0.33943668012E+01 -0.21319088220E+00 -0.79231354405E+02  0.79304317015E+02  0.00000000000E+00 0.  1.
</event>
<event>
 7    1  0.5957303E-006  0.1164893E+03  0.7818608E-02  0.1320451E+00
          2   -1    0    0  502    0  0.00000000000E+00  0.00000000000E+00  0.28373081967E+03  0.28373081967E+03  0.00000000000E+00 0. -1.
          1   -1    0    0  501    0 -0.00000000000E+00 -0.00000000000E+00 -0.35137621659E+03  0.35137621659E+03  0.00000000000E+00 0. -1.
         25    2    1    2    0    0 -0.92490023095E+02 -0.29464039683E+02  0.17765860956E+02  0.15925956643E+03  0.12500179870E+03 0.  0.
          2    1    1    2  501    0 -0.30297269487E+02  0.50970354526E+02 -0.25700360172E+03  0.26375510019E+03  0.00000000000E+00 0. -1.
          1    1    1    2  502    0  0.12278729258E+03 -0.21506314843E+02  0.17159234384E+03  0.21209236965E+03  0.00000000000E+00 0. -1.
         22    1    3    3    0    0 -0.56968561401E+02 -0.36906408555E+02 -0.48692517140E+02  0.83537184571E+02  0.00000000000E+00 0.  1.
         22    1    3    3    0    0 -0.35521461693E+02  0.74423688722E+01  0.66458378096E+02  0.75722381859E+02  0.00000000000E+00 0.  1.
</event>
<event>
 7    1  0.5957303E-006  0.9219328E+02  0.7818608E-02  0.1344562E+00
          2   -1    0    0  502    0  0.00000000000E+00  0.00000000000E+00  0.30619550446E+04  0.30619550446E+04  0.00000000000E+00 0. -1.
          1   -1    0    0  501    0 -0.00000000000E+00 -0.00000000000E+00 -0.13766637950E+04  0.13766637950E+04  0.00000000000E+00 0. -1.
         25    2    1    2    0    0  0.28801386514E+02  0.63531845796E+02 -0.14202686572E+03  0.20166043565E+03  0.12501794041E+03 0.  0.
          2    1    1    2  501    0 -0.85155216948E+02 -0.41108314064E+02 -0.12026608736E+04  0.12063724471E+04  0.00000000000E+00 0. -1.
          1    1    1    2  502    0  0.56353830433E+02 -0.22423531732E+02  0.30299789888E+04  0.30305859568E+04  0.00000000000E+00 0. -1.
         22    1    3    3    0    0  0.67608923884E+02  0.58630368408E+02 -0.13492510501E+03  0.16190512855E+03  0.00000000000E+00 0. -1.
         22    1    3    3    0    0 -0.38807537369E+02  0.49014773877E+01 -0.71017607111E+01  0.39755307098E+02  0.00000000000E+00 0. -1.
</event>
<event>
 7    1  0.5957303E-006  0.7369456E+02  0.7818608E-02  0.1462283E+00
          2   -1    0    0  502    0  0.00000000000E+00  0.00000000000E+00  0.93781068095E+03  0.93781068095E+03  0.00000000000E+00 0. -1.
          1   -1    0    0  501    0 -0.00000000000E+00 -0.00000000000E+00 -0.94303116617E+03  0.94303116617E+03  0.00000000000E+00 0. -1.
         25    2    1    2    0    0  0.53463734356E+02  0.10325707947E+02 -0.12543190329E+03  0.18527525910E+03  0.12501507163E+03 0.  0.
          2    1    1    2  501    0  0.94792574867E+01  0.28424360968E+02 -0.78588719377E+03  0.78645818831E+03  0.00000000000E+00 0. -1.
          1    1    1    2  502    0 -0.62942991843E+02 -0.38750068915E+02  0.90609861184E+03  0.90910839972E+03  0.00000000000E+00 0. -1.
         22    1    3    3    0    0  0.54606287119E+02 -0.25856241388E+02 -0.62779941421E+01  0.60743765294E+02  0.00000000000E+00 0.  1.
         22    1    3    3    0    0 -0.11425527626E+01  0.36181949335E+02 -0.11915390915E+03  0.12453149381E+03  0.00000000000E+00 0.  1.
</event>
<event>
 7    1  0.5957303E-006  0.3935823E+03  0.7818608E-02  0.1277810E+00
          2   -1    0    0  502    0  0.00000000000E+00  0.00000000000E+00  0.15349652679E+04  0.15349652679E+04  0.00000000000E+00 0. -1.
          1   -1    0    0  501    0 -0.00000000000E+00 -0.00000000000E+00 -0.33195559813E+03  0.33195559813E+03  0.00000000000E+00 0. -1.
         25    2    1    2    0    0  0.31036906346E+03 -0.26344402199E+03  0.10548614430E+04  0.11375802251E+04  0.12499758561E+03 0.  0.
          2    1    1    2  501    0 -0.28499020710E+03  0.26917029747E+03 -0.15758777497E+03  0.42249967338E+03  0.00000000000E+00 0. -1.
          1    1    1    2  502    0 -0.25378856361E+02 -0.57262754841E+01  0.30573600176E+03  0.30684096753E+03  0.00000000000E+00 0. -1.
         22    1    3    3    0    0  0.10147783936E+03 -0.77856965946E+02  0.19283747774E+03  0.23139955023E+03  0.00000000000E+00 0. -1.
         22    1    3    3    0    0  0.20889122411E+03 -0.18558705604E+03  0.86202396527E+03  0.90618067491E+03  0.00000000000E+00 0. -1.
</event>
<event>
 7    1  0.5957303E-006  0.4992159E+02  0.7818608E-02  0.1472261E+00
          2   -1    0    0  502    0  0.00000000000E+00  0.00000000000E+00  0.55715762939E+03  0.55715762939E+03  0.00000000000E+00 0. -1.
          1   -1    0    0  501    0 -0.00000000000E+00 -0.00000000000E+00 -0.11099881273E+03  0.11099881273E+03  0.00000000000E+00 0. -1.
         25    2    1    2    0    0 -0.35141006527E+02 -0.21159379498E+02  0.49859956696E+02  0.14068762054E+03  0.12499752642E+03 0.  0.
          2    1    1    2  501    0  0.77484810818E+01  0.51893699875E+02 -0.53999487790E+02  0.75292361681E+02  0.00000000000E+00 0. -1.
          1    1    1    2  502    0  0.27392525445E+02 -0.30734320378E+02  0.45029834775E+03  0.45217645990E+03  0.00000000000E+00 0. -1.
         22    1    3    3    0    0 -0.14214350326E+02 -0.22728882534E+02 -0.40142614380E+02  0.48270895431E+02  0.00000000000E+00 0. -1.
         22    1    3    3    0    0 -0.20926656201E+02  0.15695030360E+01  0.90002571076E+02  0.92416725109E+02  0.00000000000E+00 0. -1.
</event>
<event>
 7    1  0.5957303E-006  0.1529777E+03  0.7818608E-02  0.1267220E+00
          2   -1    0    0  502    0  0.00000000000E+00  0.00000000000E+00  0.15086625303E+04  0.15086625303E+04  0.00000000000E+00 0. -1.
          1   -1    0    0  501    0 -0.00000000000E+00 -0.00000000000E+00 -0.17879480607E+03  0.17879480607E+03  0.00000000000E+00 0. -1.
         25    2    1    2    0    0  0.21731253812E+03  0.46408487005E+02  0.19368939528E+03  0.32018641617E+03  0.12500108947E+03 0.  0.
          2    1    1    2  501    0 -0.72897095429E+02 -0.13427008016E+02 -0.98758780088E+02  0.12348104191E+03  0.00000000000E+00 0. -1.
          1    1    1    2  502    0 -0.14441544269E+03 -0.32981478989E+02  0.12349371090E+04  0.12437898783E+04  0.00000000000E+00 0. -1.
         22    1    3    3    0    0  0.13072215229E+03  0.19034046790E+02  0.18723197868E+03  0.22914272818E+03  0.00000000000E+00 0. -1.
         22    1    3    3    0    0  0.86590385823E+02  0.27374440215E+02  0.64574166031E+01  0.91043687992E+02  0.00000000000E+00 0. -1.
</event>
<event>
 7    1  0.5957303E-006  0.1463031E+03  0.7818608E-02  0.1365978E+00
          2   -1    0    0  502    0  0.00000000000E+00  0.00000000000E+00  0.11597215565E+03  0.11597215565E+03  0.00000000000E+00 0. -1.
          1   -1    0    0  501    0 -0.00000000000E+00 -0.00000000000E+00 -0.58127805398E+03  0.58127805398E+03  0.00000000000E+00 0. -1.
         25    2    1    2    0    0  0.10025103434E+03 -0.13850425090E+03 -0.19717808790E+03  0.28937469279E+03  0.12499926829E+03 0.  0.
          2    1    1    2  501    0 -0.20355710404E+02  0.24539564148E+02 -0.26679020017E+03  0.26868858566E+03  0.00000000000E+00 0. -1.
          1    1    1    2  502    0 -0.79895323940E+02  0.11396468675E+03 -0.13376102565E+01  0.13918693119E+03  0.00000000000E+00 0. -1.
         22    1    3    3    0    0  0.60205315858E+02 -0.58767284285E+02 -0.13551352260E+02  0.85216858120E+02  0.00000000000E+00 0. -1.
         22    1    3    3    0    0  0.40045718486E+02 -0.79736966612E+02 -0.18362673564E+03  0.20415783467E+03  0.00000000000E+00 0. -1.
</event>
<event>
 7    1  0.5957303E-006  0.1011115E+03  0.7818608E-02  0.1370190E+00
          2   -1    0    0  502    0  0.00000000000E+00  0.00000000000E+00  0.18859279256E+03  0.18859279256E+03  0.00000000000E+00 0. -1.
          1   -1    0    0  501    0 -0.00000000000E+00 -0.00000000000E+00 -0.22581828367E+03  0.22581828367E+03  0.00000000000E+00 0. -1.
         25    2    1    2    0    0  0.20257841681E+02  0.89837239028E+02 -0.11763230821E+03  0.19479215541E+03  0.12500205682E+03 0.  0.
          2    1    1    2  501    0 -0.63956056491E+02 -0.98497311477E+02 -0.10980474610E+02  0.11795197477E+03  0.00000000000E+00 0. -1.
          1    1    1    2  502    0  0.43698214811E+02  0.86600724494E+01  0.91387291705E+02  0.10166694604E+03  0.00000000000E+00 0. -1.
         22    1    3    3    0    0  0.29067429356E+02  0.30770385974E+02  0.18455498184E+02  0.46177240234E+02  0.00000000000E+00 0.  1.
         22    1    3    3    0    0 -0.88095876754E+01  0.59066853054E+02 -0.13608780640E+03  0.14861491518E+03  0.00000000000E+00 0.  1.
</event>
<event>
 7    1  0.5957303E-006  0.9648887E+02  0.7818608E-02  0.1312583E+00
          2   -1    0    0  502    0  0.00000000000E+00  0.00000000000E+00  0.46710636946E+03  0.46710636946E+03  0.00000000000E+00 0. -1.
          1   -1    0    0  501    0 -0.00000000000E+00 -0.00000000000E+00 -0.21288733297E+04  0.21288733297E+04  0.00000000000E+00 0. -1.
         25    2    1    2    0    0  0.20695793619E+02 -0.12428390461E+02  0.26448174086E+02  0.13002710908E+03  0.12499904967E+03 0.  0.
          2    1    1    2  501    0 -0.97334497826E+02  0.70414258759E+01 -0.20721295822E+04  0.20744263283E+04  0.00000000000E+00 0. -1.
          1    1    1    2  502    0  0.76638704208E+02  0.53869645853E+01  0.38391444788E+03  0.39152626178E+03  0.00000000000E+00 0. -1.
         22    1    3    3    0    0  0.53185332227E+01 -0.59783957509E+02  0.46929792913E+02  0.76189328872E+02  0.00000000000E+00 0.  1.
         22    1    3    3    0    0  0.15377260396E+02  0.47355567048E+02 -0.20481618827E+02  0.53837780206E+02  0.00000000000E+00 0.  1.
</event>
<event>
 7    1  0.5957303E-006  0.2229396E+03  0.7818608E-02  0.1237390E+00
          2   -1    0    0  502    0  0.00000000000E+00  0.00000000000E+00  0.23192316485E+03  0.23192316485E+03  0.00000000000E+00 0. -1.
          1   -1    0    0  501    0 -0.00000000000E+00 -0.00000000000E+00 -0.93649043346E+03  0.93649043346E+03  0.00000000000E+00 0. -1.
         25    2    1    2    0    0 -0.34144323072E+01 -0.24092920774E+03  0.42619105302E+02  0.27477335455E+03  0.12500186696E+03 0.  0.
          2    1    1    2  501    0 -0.52241072666E+02  0.44220543795E+02 -0.67253069739E+03  0.67600453039E+03  0.00000000000E+00 0. -1.
          1    1    1    2  502    0  0.55655504974E+02  0.19670866394E+03 -0.74655676515E+02  0.21763571338E+03  0.00000000000E+00 0. -1.
         22    1    3    3    0    0 -0.88729873187E+01 -0.19751795922E+03  0.83749339683E+02  0.21472313805E+03  0.00000000000E+00 0. -1.
         22    1    3    3    0    0  0.54585550115E+01 -0.43411248519E+02 -0.41130234381E+02  0.60050216494E+02  0.00000000000E+00 0. -1.
</event>
<event>
 7    1  0.5957303E-006  0.1202347E+03  0.7818608E-02  0.1308506E+00
          2   -1    0    0  502    0  0.00000000000E+00  0.00000000000E+00  0.75294320128E+03  0.75294320128E+03  0.00000000000E+00 0. -1.
          1   -1    0    0  501    0 -0.00000000000E+00 -0.00000000000E+00 -0.10624565614E+04  0.10624565614E+04  0.00000000000E+00 0. -1.
         25    2    1    2    0    0  0.12315005826E+03  0.13537279998E+03  0.14156911831E+03  0.26297881531E+03  0.12499724084E+03 0.  0.
          2    1    1    2  501    0 -0.77970762731E+02 -0.90075337066E+02 -0.99633278153E+03  0.10034301260E+04  0.00000000000E+00 0. -1.
          1    1    1    2  502    0 -0.45179295532E+02 -0.45297462917E+02  0.54525030311E+03  0.54899082136E+03  0.00000000000E+00 0. -1.
         22    1    3    3    0    0  0.14131946503E+02  0.13810669328E+02  0.89405609935E+02  0.91563145354E+02  0.00000000000E+00 0. -1.
         22    1    3    3    0    0  0.10901811176E+03  0.12156213065E+03  0.52163508380E+02  0.17141566996E+03  0.00000000000E+00 0. -1.
</event>
<event>
 7    1  0.5957303E-006  0.4887309E+02  0.7818608E-02  0.1552299E+00
          2   -1    0    0  502    0  0.00000000000E+00  0.00000000000E+00  0.18799110132E+03  0.18799110132E+03  0.00000000000E+00 0. -1.
          1   -1    0    0  501    0 -0.00000000000E+00 -0.00000000000E+00 -0.19990327668E+03  0.19990327668E+03  0.00000000000E+00 0. -1.
         25    2    1    2    0    0  0.52303176906E+02  0.52403350819E+01 -0.39688672879E+02  0.14129538357E+03  0.12500444487E+03 0.  0.
          2    1    1    2  501    0 -0.40993870385E+02 -0.26947893907E+02 -0.10271640406E+03  0.11383033892E+03  0.00000000000E+00 0. -1.
          1    1    1    2  502    0 -0.11309306521E+02  0.21707558825E+02  0.13049290158E+03  0.13276865551E+03  0.00000000000E+00 0. -1.
         22    1    3    3    0    0  0.50565519969E+02 -0.11864397814E+02  0.36312540899E+02  0.63373783001E+02  0.00000000000E+00 0.  1.
         22    1    3    3    0    0  0.17376569365E+01  0.17104732896E+02 -0.76001213778E+02  0.77921600567E+02  0.00000000000E+00 0.  1.
</event>
<event>
 7    1  0.5957303E-006  0.5931898E+02  0.7818608E-02  0.1530244E+00
          2   -1    0    0  502    0  0.00000000000E+00  0.00000000000E+00  0.17820046587E+04  0.17820046587E+04  0.00000000000E+00 0. -1.
          1   -1    0    0  501    0 -0.00000000000E+00 -0.00000000000E+00 -0.52524391967E+03  0.52524391967E+03  0.00000000000E+00 0. -1.
         25    2    1    2    0    0  0.70849935550E+02  0.34830916041E+02 -0.34113779344E+03  0.37179689195E+03  0.12500011471E+03 0.  0.
          2    1    1    2  501    0 -0.13776228239E+02 -0.18759234580E+02 -0.16747409137E+03  0.16908360247E+03  0.00000000000E+00 0. -1.
          1    1    1    2  502    0 -0.57073707311E+02 -0.16071681460E+02  0.17653726239E+04  0.17663680840E+04  0.00000000000E+00 0. -1.
         22    1    3    3    0    0  0.78725996860E+02  0.24298985823E+02 -0.96844366360E+02  0.12714973295E+03  0.00000000000E+00 0. -1.
         22    1    3    3    0    0 -0.78760613101E+01  0.10531930217E+02 -0.24429342708E+03  0.24464715900E+03  0.00000000000E+00 0. -1.
</event>
<event>
 7    1  0.5957303E-006  0.1441868E+03  0.7818608E-02  0.1373111E+00
          2   -1    0    0  502    0  0.00000000000E+00  0.00000000000E+00  0.17847047052E+04  0.17847047052E+04  0.00000000000E+00 0. -1.
          1   -1    0    0  501    0 -0.00000000000E+00 -0.00000000000E+00 -0.98846242909E+03  0.98846242909E+03  0.00000000000E+00 0. -1.
         25    2    1    2    0    0  0.26505020020E+02  0.16076457980E+03  0.41718854119E+03  0.46499287084E+03  0.12499729931E+03 0.  0.
          2    1    1    2  501    0 -0.45228439642E+02 -0.13669406527E+03 -0.95901242629E+03  0.96976064728E+03  0.00000000000E+00 0. -1.
          1    1    1    2  502    0  0.18723419622E+02 -0.24070514531E+02  0.13380661612E+04  0.13384136162E+04  0.00000000000E+00 0. -1.
         22    1    3    3    0    0  0.32091533648E+02  0.15221801028E+03  0.23084345367E+03  0.27836826200E+03  0.00000000000E+00 0.  1.
         22    1    3    3    0    0 -0.55865136279E+01  0.85465695160E+01  0.18634508751E+03  0.18662460884E+03  0.00000000000E+00 0.  1.
</event>
<event>
 7    1  0.5957303E-006  0.2273527E+03  0.7818608E-02  0.1275975E+00
          2   -1    0    0  502    0  0.00000000000E+00  0.00000000000E+00  0.16397586102E+04  0.16397586102E+04  0.00000000000E+00 0. -1.
          1   -1    0    0  501    0 -0.00000000000E+00 -0.00000000000E+00 -0.86343761536E+03  0.86343761536E+03  0.00000000000E+00 0. -1.
         25    2    1    2    0    0  0.26207372740E+03 -0.28957509673E+02  0.43153392727E+03  0.52093015592E+03  0.12500208402E+03 0.  0.
          2    1    1    2  501    0 -0.22620887269E+03  0.41523848747E+00 -0.80264837842E+03  0.83391549086E+03  0.00000000000E+00 0. -1.
          1    1    1    2  502    0 -0.35864854710E+02  0.28542271185E+02  0.11474354460E+04  0.11483505788E+04  0.00000000000E+00 0. -1.
         22    1    3    3    0    0  0.10227509288E+03  0.20295920509E+02  0.79229277917E+02  0.13095570813E+03  0.00000000000E+00 0.  1.
         22    1    3    3    0    0  0.15979863452E+03 -0.49253430182E+02  0.35230464935E+03  0.38997444780E+03  0.00000000000E+00 0.  1.
</event>
<event>
 7    1  0.5957303E-006  0.8357910E+02  0.7818608E-02  0.1473540E+00
          2   -1    0    0  502    0  0.00000000000E+00  0.00000000000E+00  0.16227268203E+04  0.16227268203E+04  0.00000000000E+00 0. -1.
          1   -1    0    0  501    0 -0.00000000000E+00 -0.00000000000E+00 -0.15931715548E+03  0.15931715548E+03  0.00000000000E+00 0. -1.
         25    2    1    2    0    0  0.79317931304E+00  0.72048746549E+02  0.11523171252E+03  0.18465068997E+03  0.12500351484E+03 0.  0.
          2    1    1    2  501    0  0.21365448712E+02 -0.82185725382E+02 -0.11002668920E+03  0.13898506463E+03  0.00000000000E+00 0. -1.
          1    1    1    2  502    0 -0.22158628025E+02  0.10136978833E+02  0.14582046415E+04  0.14584082211E+04  0.00000000000E+00 0. -1.
         22    1    3    3    0    0  0.56738864753E+02  0.18767116518E+02  0.79689754621E+02  0.99609037880E+02  0.00000000000E+00 0.  1.
         22    1    3    3    0    0 -0.55945685440E+02  0.53281630031E+02  0.35541957903E+02  0.85041652087E+02  0.00000000000E+00 0.  1.
</event>
<event>
 7    1  0.5957303E-006  0.6578865E+02  0.7818608E-02  0.1441998E+00
          2   -1    0    0  502    0  0.00000000000E+00  0.00000000000E+00  0.12757450249E+04  0.12757450249E+04  0.00000000000E+00 0. -1.
          1   -1    0    0  501    0 -0.00000000000E+00 -0.00000000000E+00 -0.33090166859E+03  0.33090166859E+03  0.00000000000E+00 0. -1.
         25    2    1    2    0    0 -0.44049473618E+02 -0.70095946487E+01  0.50548816285E+03  0.52262254320E+03  0.12500619718E+03 0.  0.
          2    1    1    2  501    0 -0.22303795136E+02  0.31940273299E+02 -0.31949971879E+03  0.32186598242E+03  0.00000000000E+00 0. -1.
          1    1    1    2  502    0  0.66353268754E+02 -0.24930678651E+02  0.75885491229E+03  0.76215816792E+03  0.00000000000E+00 0. -1.
         22    1    3    3    0    0 -0.67050240209E+02 -0.21420472669E+02  0.48082097825E+03  0.48594586579E+03  0.00000000000E+00 0. -1.
         22    1    3    3    0    0  0.23000766590E+02  0.14410878020E+02  0.24667184609E+02  0.36676677406E+02  0.00000000000E+00 0. -1.
</event>
<event>
 7    1  0.5957303E-006  0.2144637E+03  0.7818608E-02  0.1305207E+00
          2   -1    0    0  502    0  0.00000000000E+00  0.00000000000E+00  0.25091608446E+04  0.25091608446E+04  0.00000000000E+00 0. -1.
          1   -1    0    0  501    0 -0.00000000000E+00 -0.00000000000E+00 -0.60722245261E+02  0.60722245261E+02  0.00000000000E+00 0. -1.
         25    2    1    2    0    0 -0.94286597332E-01 -0.18757168963E+03  0.76281609133E+03  0.79542174469E+03  0.12499686034E+03 0.  0.
          2    1    1    2  501    0  0.46568199485E+01  0.22425172020E+03  0.24048746926E+03  0.32885368001E+03  0.00000000000E+00 0. -1.
          1    1    1    2  502    0 -0.45625333511E+01 -0.36680030571E+02  0.14451350387E+04  0.14456076652E+04  0.00000000000E+00 0. -1.
         22    1    3    3    0    0  0.48674247467E+02 -0.13955317960E+03  0.61530184939E+03  0.63280379121E+03  0.00000000000E+00 0. -1.
         22    1    3    3    0    0 -0.48768534064E+02 -0.48018510027E+02  0.14751424194E+03  0.16261795348E+03  0.00000000000E+00 0. -1.
</event>
<event>
 7    1  0.5957303E-006  0.5942837E+02  0.7818608E-02  0.1470717E+00
          2   -1    0    0  502    0  0.00000000000E+00  0.00000000000E+00  0.15105505453E+04  0.15105505453E+04  0.00000000000E+00 0. -1.
          1   -1    0    0  501    0 -0.00000000000E+00 -0.00000000000E+00 -0.75229903287E+03  0.75229903287E+03  0.00000000000E+00 0. -1.
         25    2    1    2    0    0  0.92376706510E+02  0.10364172119E+02  0.25614712407E+03  0.29977262266E+03  0.12494560482E+03 0.  0.
          2    1    1    2  501    0 -0.57601924037E+02 -0.14032183973E+02 -0.72903470426E+03  0.73144137417E+03  0.00000000000E+00 0. -1.
          1    1    1    2  502    0 -0.34774782474E+02  0.36680118538E+01  0.12311390926E+04  0.12316355813E+04  0.00000000000E+00 0. -1.
         22    1    3    3    0    0  0.61240232045E+02 -0.55574525612E+02  0.14181532408E+03  0.16416601372E+03  0.00000000000E+00 0. -1.
         22    1    3    3    0    0  0.31136474466E+02  0.65938697731E+02  0.11433179999E+03  0.13560660895E+03  0.00000000000E+00 0. -1.
</event>
<event>
 7    1  0.5957303E-006  0.6178880E+02  0.7818608E-02  0.1443286E+00
          2   -1    0    0  502    0  0.00000000000E+00  0.00000000000E+00  0.27500604475E+04  0.27500604475E+04  0.00000000000E+00 0. -1.
          1   -1    0    0  501    0 -0.00000000000E+00 -0.00000000000E+00 -0.15322694588E+03  0.15322694588E+03  0.00000000000E+00 0. -1.
         25    2    1    2    0    0  0.73980176533E+02  0.64454301638E+02  0.80176014639E+02  0.17800364114E+03  0.12501871626E+03 0.  0.
          2    1    1    2  501    0 -0.38582998299E+02 -0.14112310133E+02 -0.99892201305E+02  0.10801044828E+03  0.00000000000E+00 0. -1.
          1    1    1    2  502    0 -0.35397178234E+02 -0.50341991505E+02  0.26165496883E+04  0.26172733039E+04  0.00000000000E+00 0. -1.
         22    1    3    3    0    0  0.43980764423E+02  0.59846006221E+02 -0.17007189701E+02  0.76191184538E+02  0.00000000000E+00 0. -1.
         22    1    3    3    0    0  0.29999412110E+02  0.46082954174E+01  0.97183204340E+02  0.10181245660E+03  0.00000000000E+00 0. -1.
</event>
<event>
 7    1  0.5957303E-006  0.1192583E+03  0.7818608E-02  0.1396181E+00
          2   -1    0    0  502    0  0.00000000000E+00  0.00000000000E+00  0.11806378372E+04  0.11806378372E+04  0.00000000000E+00 0. -1.
          1   -1    0    0  501    0 -0.00000000000E+00 -0.00000000000E+00 -0.12431734211E+03  0.12431734211E+03  0.00000000000E+00 0. -1.
         25    2    1    2    0    0  0.46152925802E+02 -0.89790327246E+02  0.15227545683E+03  0.22137743410E+03  0.12501103211E+03 0.  0.
          2    1    1    2  501    0 -0.13845607922E+02 -0.27272135759E+02 -0.83328450999E+02  0.88764300220E+02  0.00000000000E+00 0. -1.
          1    1    1    2  502    0 -0.32307317879E+02  0.11706246300E+03  0.98737348922E+03  0.99481344495E+03  0.00000000000E+00 0. -1.
         22    1    3    3    0    0  0.84163420773E+02 -0.40708353388E+02  0.11772088637E+03  0.15032916723E+03  0.00000000000E+00 0. -1.
         22    1    3    3    0    0 -0.38010494971E+02 -0.49081973858E+02  0.34554570460E+02  0.71048266872E+02  0.00000000000E+00 0. -1.
</event>
<event>
 7    1  0.5957303E-006  0.8794382E+02  0.7818608E-02  0.1381291E+00
          2   -1    0    0  502    0  0.00000000000E+00  0.00000000000E+00  0.56289393509E+03  0.56289393509E+03  0.00000000000E+00 0. -1.
          1   -1    0    0  501    0 -0.00000000000E+00 -0.00000000000E+00 -0.13439134913E+03  0.13439134913E+03  0.00000000000E+00 0. -1.
         25    2    1    2    0    0 -0.47298556156E+02 -0.10825321956E+02  0.10243624405E+03  0.16873661718E+03  0.12499808347E+03 0.  0.
          2    1    1    2  501    0  0.94034352870E+02  0.93729392177E+01 -0.77541380474E+02  0.12224147085E+03  0.00000000000E+00 0. -1.
          1    1    1    2  502    0 -0.46735796714E+02  0.14523827387E+01  0.40360772238E+03  0.40630719619E+03  0.00000000000E+00 0. -1.
         22    1    3    3    0    0 -0.25517852572E+02  0.79239433140E+01  0.12770389889E+03  0.13046928937E+03  0.00000000000E+00 0.  1.
         22    1    3    3    0    0 -0.21780703584E+02 -0.18749265271E+02 -0.25267654834E+02  0.38267327808E+02  0.00000000000E+00 0.  1.
</event>
<event>
 7    1  0.5957303E-006  0.9056535E+02  0.7818608E-02  0.1366356E+00
          2   -1    0    0  502    0  0.00000000000E+00  0.00000000000E+00  0.95110163992E+03  0.95110163992E+03  0.00000000000E+00 0. -1.
          1   -1    0    0  501    0 -0.00000000000E+00 -0.00000000000E+00 -0.16270961520E+04  0.16270961520E+04  0.00000000000E+00 0. -1.
         25    2    1    2    0    0  0.41453356047E+02  0.11566093797E+03  0.17081996809E+03  0.24474300757E+03  0.12499537974E+03 0.  0.
          2    1    1    2  501    0 -0.59889506022E+02 -0.67741250029E+02 -0.15879603836E+04  0.15905325554E+04  0.00000000000E+00 0. -1.
          1    1    1    2  502    0  0.18436149976E+02 -0.47919687944E+02  0.74114590342E+03  0.74292222895E+03  0.00000000000E+00 0. -1.
         22    1    3    3    0    0  0.59352780944E+02  0.11578195567E+03  0.81232716931E+02  0.15338503240E+03  0.00000000000E+00 0.  1.
         22    1    3    3    0    0 -0.17899424897E+02 -0.12101770006E+00  0.89587251160E+02  0.91357975171E+02  0.00000000000E+00 0.  1.
</event>
<event>
 7    1  0.5957303E-006  0.7914938E+02  0.7818608E-02  0.1407148E+00
          2   -1    0    0  502    0  0.00000000000E+00  0.00000000000E+00  0.39651874746E+03  0.39651874746E+03  0.00000000000E+00 0. -1.
          1   -1    0    0  501    0 -0.00000000000E+00 -0.00000000000E+00 -0.27517573894E+04  0.27517573894E+04  0.00000000000E+00 0. -1.
         25    2    1    2    0    0 -0.10998677508E+03  0.33463228472E+02 -0.69895478650E+03  0.71929141656E+03  0.12500188007E+03 0.  0.
          2    1    1    2  501    0  0.67799988400E+02 -0.35957413189E+02 -0.20407552108E+04  0.20421977388E+04  0.00000000000E+00 0. -1.
          1    1    1    2  502    0  0.42186786680E+02  0.24941847173E+01  0.38447135537E+03  0.38678698146E+03  0.00000000000E+00 0. -1.
         22    1    3    3    0    0 -0.70996401274E+02 -0.43683229020E+02 -0.35008502876E+03  0.35987253418E+03  0.00000000000E+00 0. -1.
         22    1    3    3    0    0 -0.38990373806E+02  0.77146457492E+02 -0.34886975774E+03  0.35941888239E+03  0.00000000000E+00 0. -1.
</event>
<event>
 7    1  0.5957303E-006  0.1437250E+03  0.7818608E-02  0.1319502E+00
          2   -1    0    0  502    0  0.00000000000E+00  0.00000000000E+00  0.27295975119E+03  0.27295975119E+03  0.00000000000E+00 0. -1.
          1   -1    0    0  501    0 -0.00000000000E+00 -0.00000000000E+00 -0.32740272522E+03  0.32740272522E+03  0.00000000000E+00 0. -1.
         25    2    1    2    0    0  0.13617673118E+03  0.11244984174E+03 -0.40776259649E+02  0.22017486702E+03  0.12500079877E+03 0.  0.
          2    1    1    2  501    0 -0.11731374905E+03 -0.67803319087E+02 -0.16949340775E+03  0.21699728355E+03  0.00000000000E+00 0. -1.
          1    1    1    2  502    0 -0.18862982126E+02 -0.44646522654E+02  0.15582669338E+03  0.16319032584E+03  0.00000000000E+00 0. -1.
         22    1    3    3    0    0 -0.21058685541E+02  0.24776727066E+01  0.71959007899E+01  0.22391696830E+02  0.00000000000E+00 0. -1.
         22    1    3    3    0    0  0.15723541672E+03  0.10997216903E+03 -0.47972160439E+02  0.19778317019E+03  0.00000000000E+00 0. -1.
</event>
<event>
 7    1  0.5957303E-006  0.7938516E+02  0.7818608E-02  0.1483401E+00
          2   -1    0    0  502    0  0.00000000000E+00  0.00000000000E+00  0.10937115002E+03  0.10937115002E+03  0.00000000000E+00 0. -1.
          1   -1    0    0  501    0 -0.00000000000E+00 -0.00000000000E+00 -0.61746581862E+03  0.61746581862E+03  0.00000000000E+00 0. -1.
         25    2    1    2    0    0  0.51285819605E+02  0.23946005279E+02 -0.15027333743E+02  0.13803755660E+03  0.12499959925E+03 0.  0.
          2    1    1    2  501    0 -0.73474959412E+02 -0.32892816179E+02 -0.53473012022E+03  0.54075577527E+03  0.00000000000E+00 0. -1.
          1    1    1    2  502    0  0.22189139807E+02  0.89468108994E+01  0.41662785359E+02  0.48043636774E+02  0.00000000000E+00 0. -1.
         22    1    3    3    0    0 -0.13598986206E+02  0.21231351742E+02  0.43718361116E+02  0.50467789938E+02  0.00000000000E+00 0. -1.
         22    1    3    3    0    0  0.64884805811E+02  0.27146535375E+01 -0.58745694859E+02  0.87569766663E+02  0.00000000000E+00 0. -1.
</event>
<event>
 7    1  0.5957303E-006  0.1200263E+03  0.7818608E-02  0.1357533E+00
          2   -1    0    0  502    0  0.00000000000E+00  0.00000000000E+00  0.11049468776E+03  0.11049468776E+03  0.00000000000E+00 0. -1.
          1   -1    0    0  501    0 -0.00000000000E+00 -0.00000000000E+00 -0.84250631888E+03  0.84250631888E+03  0.00000000000E+00 0. -1.
         25    2    1    2    0    0  0.19119248909E+02 -0.88608847466E+02 -0.14376126677E+03  0.21097201140E+03  0.12499925696E+03 0.  0.
          2    1    1    2  501    0 -0.10211946334E+02 -0.40444499875E+02 -0.60950790294E+03  0.61093365037E+03  0.00000000000E+00 0. -1.
          1    1    1    2  502    0 -0.89073025747E+01  0.12905334734E+03  0.21257538589E+02  0.13109534487E+03  0.00000000000E+00 0. -1.
         22    1    3    3    0    0  0.51040430687E+02 -0.99639782266E+02 -0.13630253746E+03  0.17638478815E+03  0.00000000000E+00 0. -1.
         22    1    3    3    0    0 -0.31921181778E+02  0.11030934800E+02 -0.74587293151E+01  0.34587223243E+02  0.00000000000E+00 0. -1.
</event>
<event>
 7    1  0.5957303E-006  0.9876397E+02  0.7818608E-02  0.1327637E+00
          2   -1    0    0  502    0  0.00000000000E+00  0.00000000000E+00  0.16785606897E+04  0.16785606897E+04  0.00000000000E+00 0. -1.
          1   -1    0    0  501    0 -0.00000000000E+00 -0.00000000000E+00 -0.46839620125E+03  0.46839620125E+03  0.00000000000E+00 0. -1.
         25    2    1    2    0    0 -0.10485523844E+01 -0.64470243573E+02  0.14687314977E+03  0.20335926696E+03  0.12500303023E+03 0.  0.
          2    1    1    2  501    0 -0.63153640873E+02  0.78009918035E+02 -0.43370331691E+03  0.44516569585E+03  0.00000000000E+00 0. -1.
          1    1    1    2  502    0  0.64202193257E+02 -0.13539674462E+02  0.14969946556E+04  0.14984319281E+04  0.00000000000E+00 0. -1.
         22    1    3    3    0    0 -0.12673754751E+02 -0.71719987932E+02  0.16516236423E+03  0.18050758236E+03  0.00000000000E+00 0.  1.
         22    1    3    3    0    0  0.11625202367E+02  0.72497443593E+01 -0.18289214466E+02  0.22851684602E+02  0.00000000000E+00 0.  1.
</event>
<event>
 7    1  0.5957303E-006  0.7797650E+02  0.7818608E-02  0.1342279E+00
          2   -1    0    0  502    0  0.00000000000E+00  0.00000000000E+00  0.73145438141E+03  0.73145438141E+03  0.00000000000E+00 0. -1.
          1   -1    0    0  501    0 -0.00000000000E+00 -0.00000000000E+00 -0.62738410160E+03  0.62738410160E+03  0.00000000000E+00 0. -1.
         25    2    1    2    0    0 -0.79917640157E+02 -0.38230921873E+01  0.17977489566E+03  0.23312330393E+03  0.12500406588E+03 0.  0.
          2    1    1    2  501    0  0.41844212680E+02  0.66265329976E+02 -0.59558335353E+03  0.60071754019E+03  0.00000000000E+00 0. -1.
          1    1    1    2  502    0  0.38073427477E+02 -0.62442237789E+02  0.51987873768E+03  0.52499763889E+03  0.00000000000E+00 0. -1.
         22    1    3    3    0    0  0.70944703777E+01 -0.17460980326E+02  0.13119029893E+03  0.13253720941E+03  0.00000000000E+00 0.  1.
         22    1    3    3    0    0 -0.87012110534E+02  0.13637888138E+02  0.48584596726E+02  0.10058609452E+03  0.00000000000E+00 0.  1.
</event>
<event>
 7    1  0.5957303E-006  0.4363177E+03  0.7818608E-02  0.1170265E+00
          2   -1    0    0  502    0  0.00000000000E+00  0.00000000000E+00  0.29334353634E+04  0.29334353634E+04  0.00000000000E+00 0. -1.
          1   -1    0    0  501    0 -0.00000000000E+00 -0.00000000000E+00 -0.18464078214E+04  0.18464078214E+04  0.00000000000E+00 0. -1.
         25    2    1    2    0    0 -0.30326347292E+03  0.21365723683E+03 -0.90073894562E+02  0.40169288165E+03  0.12500286329E+03 0.  0.
          2    1    1    2  501    0 -0.45882571153E+02  0.55736881076E+02 -0.15821923515E+04  0.15838385168E+04  0.00000000000E+00 0. -1.
          1    1    1    2  502    0  0.34914604407E+03 -0.26939411791E+03  0.27592937880E+04  0.27943117864E+04  0.00000000000E+00 0. -1.
         22    1    3    3    0    0 -0.17719995751E+03  0.86337661641E+02 -0.10234843798E+03  0.22210182241E+03  0.00000000000E+00 0. -1.
         22    1    3    3    0    0 -0.12606351541E+03  0.12731957519E+03  0.12274543423E+02  0.17959105924E+03  0.00000000000E+00 0. -1.
</event>
<event>
 7    1  0.5957303E-006  0.2597048E+02  0.7818608E-02  0.1650566E+00
          2   -1    0    0  502    0  0.00000000000E+00  0.00000000000E+00  0.10909457200E+03  0.10909457200E+03  0.00000000000E+00 0. -1.
          1   -1    0    0  501    0 -0.00000000000E+00 -0.00000000000E+00 -0.23698238425E+04  0.23698238425E+04  0.00000000000E+00 0. -1.
         25    2    1    2    0    0 -0.17881060439E+02 -0.24932665296E+02 -0.14180975745E+04  0.14239267048E+04  0.12500063839E+03 0.  0.
          2    1    1    2  501    0  0.26372167291E+02  0.87127399074E+00 -0.94709240398E+03  0.94745990522E+03  0.00000000000E+00 0. -1.
          1    1    1    2  502    0 -0.84911068524E+01  0.24061391306E+02  0.10446070804E+03  0.10753180446E+03  0.00000000000E+00 0. -1.
         22    1    3    3    0    0 -0.37118609482E+02 -0.60038976534E+02 -0.12072971556E+04  0.12093588763E+04  0.00000000000E+00 0.  1.
         22    1    3    3    0    0  0.19237549043E+02  0.35106311238E+02 -0.21080041895E+03  0.21456782846E+03  0.00000000000E+00 0.  1.
</event>
<event>
 7    1  0.5957303E-006  0.1077690E+03  0.7818608E-02  0.1442534E+00
          2   -1    0    0  502    0  0.00000000000E+00  0.00000000000E+00  0.19442712935E+04  0.19442712935E+04  0.00000000000E+00 0. -1.
          1   -1    0    0  501    0 -0.00000000000E+00 -0.00000000000E+00 -0.41933054229E+03  0.41933054229E+03  0.00000000000E+00 0. -1.
         25    2    1    2    0    0  0.46922095059E+02  0.10076563067E+03 -0.24612383837E+03  0.29758623402E+03  0.12500091014E+03 0.  0.
          2    1    1    2  501    0 -0.23279590770E+02  0.43732159303E+01 -0.14500048855E+03  0.14692244908E+03  0.00000000000E+00 0. -1.
          1    1    1    2  502    0 -0.23642504289E+02 -0.10513884660E+03  0.19160650781E+04  0.19190931527E+04  0.00000000000E+00 0. -1.
         22    1    3    3    0    0  0.35323127487E+02  0.12766321848E+03 -0.22630195355E+03  0.26221783857E+03  0.00000000000E+00 0.  1.
         22    1    3    3    0    0  0.11598967572E+02 -0.26897587806E+02 -0.19821884826E+02  0.35368395448E+02  0.00000000000E+00 0.  1.
</event>
<event>
 7    1  0.5957303E-006  0.2424816E+02  0.7818608E-02  0.1694950E+00
          2   -1    0    0  502    0  0.00000000000E+00  0.00000000000E+00  0.93425508595E+03  0.93425508595E+03  0.00000000000E+00 0. -1.
          1   -1    0    0  501    0 -0.00000000000E+00 -0.00000000000E+00 -0.21610590477E+02  0.21610590477E+02  0.00000000000E+00 0. -1.
         25    2    1    2    0    0 -0.36024837556E+02  0.12458924124E+02  0.75314006100E+03  0.76439379460E+03  0.12499963209E+03 0.  0.
          2    1    1    2  501    0  0.13516002307E+02 -0.16614749285E+02 -0.76607902829E+01  0.22746866157E+02  0.00000000000E+00 0. -1.
          1    1    1    2  502    0  0.22508835248E+02  0.41558251613E+01  0.16716522475E+03  0.16872501567E+03  0.00000000000E+00 0. -1.
         22    1    3    3    0    0 -0.32733663027E+00  0.43158207491E+02  0.64507897382E+03  0.64652116786E+03  0.00000000000E+00 0.  1.
         22    1    3    3    0    0 -0.35697500926E+02 -0.30699283367E+02  0.10806108718E+03  0.11787262674E+03  0.00000000000E+00 0.  1.
</event>
<event>
 7    1  0.5957303E-006  0.6629352E+02  0.7818608E-02  0.1404798E+00
          2   -1    0    0  502    0  0.00000000000E+00  0.00000000000E+00  0.31631221751E+04  0.31631221751E+04  0.00000000000E+00 0. -1.
          1   -1    0    0  501    0 -0.00000000000E+00 -0.00000000000E+00 -0.65687319055E+02  0.65687319055E+02  0.00000000000E+00 0. -1.
         25    2    1    2    0    0 -0.96438715235E+02 -0.60228464701E+02  0.10705147065E+04  0.10837690443E+04  0.12500284303E+03 0.  0.
          2    1    1    2  501    0  0.40207682234E+02  0.32012608267E+02 -0.47310930017E+02  0.69855485810E+02  0.00000000000E+00 0. -1.
          1    1    1    2  502    0  0.56231033001E+02  0.28215856435E+02  0.20742310796E+04  0.20751849641E+04  0.00000000000E+00 0. -1.
         22    1    3    3    0    0 -0.76018883065E+02  0.34985060745E+01  0.84805006533E+03  0.85145758757E+03  0.00000000000E+00 0.  1.
         22    1    3    3    0    0 -0.20419832170E+02 -0.63726970776E+02  0.22246464115E+03  0.23231145670E+03  0.00000000000E+00 0.  1.
</event>
<event>
 7    1  0.5957303E-006  0.2963546E+03  0.7818608E-02  0.1168338E+00
          2   -1    0    0  502    0  0.00000000000E+00  0.00000000000E+00  0.16686051331E+04  0.16686051331E+04  0.00000000000E+00 0. -1.
          1   -1    0    0  501    0 -0.00000000000E+00 -0.00000000000E+00 -0.59869666238E+03  0.59869666238E+03  0.00000000000E+00 0. -1.
         25    2    1    2    0    0  0.51721814681E+02  0.30061127204E+03  0.10362561425E+04  0.10874250969E+04  0.12499706242E+03 0.  0.
          2    1    1    2  501    0  0.56538007031E+02 -0.29129861503E+03 -0.52915471787E+03  0.60667630974E+03  0.00000000000E+00 0. -1.
          1    1    1    2  502    0 -0.10825982171E+03 -0.93126570079E+01  0.56280704617E+03  0.57320038886E+03  0.00000000000E+00 0. -1.
         22    1    3    3    0    0  0.82545348962E+02  0.12522184612E+03  0.42107030691E+03  0.44698372313E+03  0.00000000000E+00 0. -1.
         22    1    3    3    0    0 -0.30823534281E+02  0.17538942592E+03  0.61518583556E+03  0.64044137379E+03  0.00000000000E+00 0. -1.
</event>
<event>
 7    1  0.5957303E-006  0.1176450E+03  0.7818608E-02  0.1439410E+00
          2   -1    0    0  502    0  0.00000000000E+00  0.00000000000E+00  0.40239077681E+03  0.40239077681E+03  0.00000000000E+00 0. -1.
          1   -1    0    0  501    0 -0.00000000000E+00 -0.00000000000E+00 -0.16018838818E+03  0.16018838818E+03  0.00000000000E+00 0. -1.
         25    2    1    2    0    0 -0.12637278249E+03  0.14663902763E+02  0.16111950207E+02  0.17908125477E+03  0.12500156268E+03 0.  0.
          2    1    1    2  501    0  0.99653085105E+01 -0.19849037295E+02 -0.65672884370E+02  0.69326902403E+02  0.00000000000E+00 0. -1.
          1    1    1    2  502    0  0.11640747398E+03  0.51851345321E+01  0.29176332280E+03  0.31417100781E+03  0.00000000000E+00 0. -1.
         22    1    3    3    0    0 -0.75757189542E+02 -0.44574939834E+02  0.41403753378E+02  0.97161452347E+02  0.00000000000E+00 0.  1.
         22    1    3    3    0    0 -0.50615592948E+02  0.59238842597E+02 -0.25291803171E+02  0.81919802425E+02  0.00000000000E+00 0.  1.
</event>
<event>
 7    1  0.5957303E-006  0.1222144E+03  0.7818608E-02  0.1285504E+00
          2   -1    0    0  502    0  0.00000000000E+00  0.00000000000E+00  0.66583366775E+03  0.66583366775E+03  0.00000000000E+00 0. -1.
          1   -1    0    0  501    0 -0.00000000000E+00 -0.00000000000E+00 -0.60345435574E+03  0.60345435574E+03  0.00000000000E+00 0. -1.
         25    2    1    2    0    0 -0.11134701928E+02  0.68854978625E+02  0.15932013209E+03  0.21417704811E+03  0.12499565504E+03 0.  0.
          2    1    1    2  501    0 -0.53334176287E+02 -0.11255759288E+03 -0.56604419391E+03  0.57958586554E+03  0.00000000000E+00 0. -1.
          1    1    1    2  502    0  0.64468878214E+02  0.43702614254E+02  0.46910337383E+03  0.47552510984E+03  0.00000000000E+00 0. -1.
         22    1    3    3    0    0  0.77993157500E+01  0.66757343536E+01  0.14781191128E+03  0.14816799881E+03  0.00000000000E+00 0. -1.
         22    1    3    3    0    0 -0.18934017678E+02  0.62179244271E+02  0.11508220818E+02  0.66009049303E+02  0.00000000000E+00 0. -1.
</event>
<event>
 7    1  0.5957303E-006  0.5027879E+02  0.7818608E-02  0.1547391E+00
          2   -1    0    0  502    0  0.00000000000E+00  0.00000000000E+00  0.21871276533E+04  0.21871276533E+04  0.00000000000E+00 0. -1.
          1   -1    0    0  501    0 -0.00000000000E+00 -0.00000000000E+00 -0.26362051518E+02  0.26362051518E+02  0.00000000000E+00 0. -1.
         25    2    1    2    0    0  0.12588788729E+02  0.26087683051E+02  0.96443650920E+03  0.97293471673E+03  0.12500055171E+03 0.  0.
          2    1    1    2  501    0  0.58305923216E+01  0.23852438454E+02 -0.14526586630E+02  0.28529920192E+02  0.00000000000E+00 0. -1.
          1    1    1    2  502    0 -0.18419381050E+02 -0.49940121505E+02  0.12108556792E+04  0.12120250679E+04  0.00000000000E+00 0. -1.
         22    1    3    3    0    0 -0.20827008504E+02 -0.36635189042E+02  0.16322016141E+03  0.16857260291E+03  0.00000000000E+00 0.  1.
         22    1    3    3    0    0  0.33415797232E+02  0.62722872094E+02  0.80121634779E+03  0.80436211382E+03  0.00000000000E+00 0.  1.
</event>
<event>
 7    1  0.5957303E-006  0.9652890E+02  0.7818608E-02  0.1449856E+00
          2   -1    0    0  502    0  0.00000000000E+00  0.00000000000E+00  0.43729645245E+03  0.43729645245E+03  0.00000000000E+00 0. -1.
          1   -1    0    0  501    0 -0.00000000000E+00 -0.00000000000E+00 -0.11168191715E+04  0.11168191715E+04  0.00000000000E+00 0. -1.
         25    2    1    2    0    0  0.67810642305E+02 -0.73423188362E+02 -0.98943318227E+02  0.18814837702E+03  0.12498313389E+03 0.  0.
          2    1    1    2  501    0 -0.81155862905E+02  0.52225278169E+02 -0.97047805735E+03  0.97526479151E+03  0.00000000000E+00 0. -1.
          1    1    1    2  502    0  0.13345220600E+02  0.21197910193E+02  0.38989865652E+03  0.39070245541E+03  0.00000000000E+00 0. -1.
         22    1    3    3    0    0  0.17249759390E+02  0.13765655801E+02 -0.83274600704E+02  0.86149327340E+02  0.00000000000E+00 0.  1.
         22    1    3    3    0    0  0.50560882915E+02 -0.87188844163E+02 -0.15668717523E+02  0.10199904968E+03  0.00000000000E+00 0.  1.
</event>
<event>
 7    1  0.5957303E-006  0.9874456E+02  0.7818608E-02  0.1416517E+00
          2   -1    0    0  502    0  0.00000000000E+00  0.00000000000E+00  0.42667108640E+03  0.42667108640E+03  0.00000000000E+00 0. -1.
          1   -1    0    0  501    0 -0.00000000000E+00 -0.00000000000E+00 -0.12459409348E+04  0.12459409348E+04  0.00000000000E+00 0. -1.
         25    2    1    2    0    0 -0.99326589097E+00 -0.76130572068E+02 -0.35465828324E+03  0.38367287409E+03  0.12500210343E+03 0.  0.
          2    1    1    2  501    0 -0.24605884555E+02 -0.19654848429E+02 -0.87052397525E+03  0.87109342444E+03  0.00000000000E+00 0. -1.
          1    1    1    2  502    0  0.25599150446E+02  0.95785420497E+02  0.40591241009E+03  0.41784572266E+03  0.00000000000E+00 0. -1.
         22    1    3    3    0    0 -0.32804555779E+02 -0.62058328585E+02 -0.78398048687E+02  0.10523131219E+03  0.00000000000E+00 0.  1.
         22    1    3    3    0    0  0.31811289888E+02 -0.14072243484E+02 -0.27626023455E+03  0.27844156191E+03  0.00000000000E+00 0.  1.
</event>
<event>
 7    1  0.5957303E-006  0.1497189E+03  0.7818608E-02  0.1262533E+00
          2   -1    0    0  502    0  0.00000000000E+00  0.00000000000E+00  0.12755822417E+04  0.12755822417E+04  0.00000000000E+00 0. -1.
          1   -1    0    0  501    0 -0.00000000000E+00 -0.00000000000E+00 -0.52294638978E+02  0.52294638978E+02  0.00000000000E+00 0. -1.
         25    2    1    2    0    0 -0.15533836603E+03  0.97554967915E+02  0.86376797378E+03  0.89183360846E+03  0.12500037172E+03 0.  0.
          2    1    1    2  501    0  0.79915699715E+02 -0.12197718375E+03  0.13802406630E+03  0.20078743809E+03  0.00000000000E+00 0. -1.
          1    1    1    2  502    0  0.75422666315E+02  0.24422215835E+02  0.22149556267E+03  0.23525583415E+03  0.00000000000E+00 0. -1.
         22    1    3    3    0    0 -0.73257706706E+02  0.65010333441E+02  0.20524177880E+03  0.22741420979E+03  0.00000000000E+00 0. -1.
         22    1    3    3    0    0 -0.82080659325E+02  0.32544634474E+02  0.65852619498E+03  0.66441939868E+03  0.00000000000E+00 0. -1.
</event>
<event>
 7    1  0.5957303E-006  0.8175570E+02  0.7818608E-02  0.1327402E+00
          2   -1    0    0  502    0  0.00000000000E+00  0.00000000000E+00  0.78696738823E+03  0.78696738823E+03  0.00000000000E+00 0. -1.
          1   -1    0    0  501    0 -0.00000000000E+00 -0.00000000000E+00 -0.20362752809E+04  0.20362752809E+04  0.00000000000E+00 0. -1.
         25    2    1    2    0    0  0.13157442188E+03 -0.91147980101E+02 -0.93322383485E+02  0.22350957873E+03  0.12501072656E+03 0.  0.
          2    1    1    2  501    0 -0.65761952831E+02  0.44546111593E+02 -0.18747636153E+04  0.18764454705E+04  0.00000000000E+00 0. -1.
          1    1    1    2  502    0 -0.65812469054E+02  0.46601868508E+02  0.71877810613E+03  0.72328761988E+03  0.00000000000E+00 0. -1.
         22    1    3    3    0    0  0.14855615550E+02  0.30845539250E+02 -0.16969911979E+02  0.38211444851E+02  0.00000000000E+00 0.  1.
         22    1    3    3    0    0  0.11671880633E+03 -0.12199351935E+03 -0.76352471506E+02  0.18529813388E+03  0.00000000000E+00 0.  1.
</event>
<event>
 7    1  0.5957303E-006  0.1658775E+03  0.7818608E-02  0.1284847E+00
          2   -1    0    0  502    0  0.00000000000E+00  0.00000000000E+00  0.87959993353E+03  0.87959993353E+03  0.00000000000E+00 0. -1.
          1   -1    0    0  501    0 -0.00000000000E+00 -0.00000000000E+00 -0.32131690758E+03  0.32131690758E+03  0.00000000000E+00 0. -1.
         25    2    1    2    0    0 -0.11234292966E+03 -0.11188279919E+03  0.57470161262E+02  0.20992102052E+03  0.12500128327E+03 0.  0.
          2    1    1    2  501    0  0.15345395582E+03  0.71338212177E+02 -0.21457820022E+03  0.27327835824E+03  0.00000000000E+00 0. -1.
          1    1    1    2  502    0 -0.41111026159E+02  0.40544587013E+02  0.71539106491E+03  0.71771746235E+03  0.00000000000E+00 0. -1.
         22    1    3    3    0    0 -0.45912385615E+02  0.22666074387E+02  0.74084057959E+01  0.51735699062E+02  0.00000000000E+00 0.  1.
         22    1    3    3    0    0 -0.66430544047E+02 -0.13454887358E+03  0.50061755466E+02  0.15818532145E+03  0.00000000000E+00 0.  1.
</event>
<event>
 7    1  0.5957303E-006  0.1046018E+03  0.7818608E-02  0.1331654E+00
          2   -1    0    0  502    0  0.00000000000E+00  0.00000000000E+00  0.26519998522E+04  0.26519998522E+04  0.00000000000E+00 0. -1.
          1   -1    0    0  501    0 -0.00000000000E+00 -0.00000000000E+00 -0.29160163265E+03  0.29160163265E+03  0.00000000000E+00 0. -1.
         25    2    1    2    0    0  0.13071191586E+03  0.68664247201E+02  0.11848341786E+02  0.19381759886E+03  0.12499797852E+03 0.  0.
          2    1    1    2  501    0 -0.70941437501E+02 -0.70546607913E+02 -0.18776920861E+03  0.21275992843E+03  0.00000000000E+00 0. -1.
          1    1    1    2  502    0 -0.59770478358E+02  0.18823607122E+01  0.25363190863E+04  0.25370239575E+04  0.00000000000E+00 0. -1.
         22    1    3    3    0    0  0.31010862437E+02 -0.34496305041E+02 -0.13096504694E+02  0.48199451094E+02  0.00000000000E+00 0.  1.
         22    1    3    3    0    0  0.99701053422E+02  0.10316055224E+03  0.24944846480E+02  0.14561814776E+03  0.00000000000E+00 0.  1.
</event>
<event>
 7    1  0.5957303E-006  0.6141727E+02  0.7818608E-02  0.1467900E+00
          2   -1    0    0  502    0  0.00000000000E+00  0.00000000000E+00  0.47610447843E+03  0.47610447843E+03  0.00000000000E+00 0. -1.
          1   -1    0    0  501    0 -0.00000000000E+00 -0.00000000000E+00 -0.25021950130E+04  0.25021950130E+04  0.00000000000E+00 0. -1.
         25    2    1    2    0    0  0.43870167248E+02  0.69623861144E+02  0.40920745866E+02  0.15514514998E+03  0.12499374587E+03 0.  0.
          2    1    1    2  501    0 -0.33099929065E+02 -0.98186035344E+01 -0.24425182446E+04  0.24427622450E+04  0.00000000000E+00 0. -1.
          1    1    1    2  502    0 -0.10770238183E+02 -0.59805257609E+02  0.37550696420E+03  0.38039209644E+03  0.00000000000E+00 0. -1.
         22    1    3    3    0    0  0.54111660983E+02  0.65168181785E+02 -0.24974425434E+02  0.88310167576E+02  0.00000000000E+00 0.  1.
         22    1    3    3    0    0 -0.10241493735E+02  0.44556793585E+01  0.65895171300E+02  0.66834982405E+02  0.00000000000E+00 0.  1.
</event>
<event>
 7    1  0.5957303E-006  0.1640191E+03  0.7818608E-02  0.1252397E+00
          2   -1    0    0  502    0  0.00000000000E+00  0.00000000000E+00  0.41573450677E+03  0.41573450677E+03  0.00000000000E+00 0. -1.
          1   -1    0    0  501    0 -0.00000000000E+00 -0.00000000000E+00 -0.12350565529E+04  0.12350565529E+04  0.00000000000E+00 0. -1.
         25    2    1    2    0    0 -0.15070233894E+03 -0.10037834026E+03 -0.11770955301E+02  0.22033979074E+03  0.12499624730E+03 0.  0.
          2    1    1    2  501    0  0.82338815659E+02  0.14188710345E+03 -0.11077244475E+04  0.11198058235E+04  0.00000000000E+00 0. -1.
          1    1    1    2  502    0  0.68363523280E+02 -0.41508763190E+02  0.30017335666E+03  0.31064544547E+03  0.00000000000E+00 0. -1.
         22    1    3    3    0    0 -0.58758178455E+00  0.23806619113E+02 -0.91124093727E+01  0.25497771873E+02  0.00000000000E+00 0. -1.
         22    1    3    3    0    0 -0.15011475715E+03 -0.12418495937E+03 -0.26585459279E+01  0.19484201887E+03  0.00000000000E+00 0. -1.
</event>
<event>
 7    1  0.5957303E-006  0.3860598E+02  0.7818608E-02  0.1539349E+00
          2   -1    0    0  502    0  0.00000000000E+00  0.00000000000E+00  0.75776988127E+03  0.75776988127E+03  0.00000000000E+00 0. -1.
          1   -1    0    0  501    0 -0.00000000000E+00 -0.00000000000E+00 -0.68194051894E+02  0.68194051894E+02  0.00000000000E+00 0. -1.
         25    2    1    2    0    0 -0.59532213449E+00  0.13651742996E+02  0.88581665718E+02  0.15381397968E+03  0.12500121739E+03 0.  0.
          2    1    1    2  501    0 -0.33077063952E+02  0.63951505172E+01 -0.26852265992E+02  0.43081716525E+02  0.00000000000E+00 0. -1.
          1    1    1    2  502    0  0.33672386086E+02 -0.20046893513E+02  0.62784642965E+03  0.62906823695E+03  0.00000000000E+00 0. -1.
         22    1    3    3    0    0  0.45784304510E+02 -0.14710492839E+02  0.87024043794E+02  0.99427286684E+02  0.00000000000E+00 0. -1.
         22    1    3    3    0    0 -0.46379626644E+02  0.28362235835E+02  0.15576219236E+01  0.54386692998E+02  0.00000000000E+00 0. -1.
</event>
<event>
 7    1  0.5957303E-006  0.1044748E+03  0.7818608E-02  0.1339150E+00
          2   -1    0    0  502    0  0.00000000000E+00  0.00000000000E+00  0.36197063026E+02  0.36197063026E+02  0.00000000000E+00 0. -1.
          1   -1    0    0  501    0 -0.00000000000E+00 -0.00000000000E+00 -0.10225471564E+04  0.10225471564E+04  0.00000000000E+00 0. -1.
         25    2    1    2    0    0 -0.24254324102E+02 -0.79930816999E+02 -0.36072443330E+03  0.39079426420E+03  0.12498332853E+03 0.  0.
          2    1    1    2  501    0  0.43083790882E+02 -0.35903469601E+02 -0.46845510937E+03  0.47180023491E+03  0.00000000000E+00 0. -1.
          1    1    1    2  502    0 -0.18829466780E+02  0.11583428660E+03 -0.15717055071E+03  0.19614972032E+03  0.00000000000E+00 0. -1.
         22    1    3    3    0    0 -0.64793793839E+02 -0.18738494570E+02 -0.24188837712E+03  0.25111621590E+03  0.00000000000E+00 0. -1.
         22    1    3    3    0    0  0.40539469737E+02 -0.61192322428E+02 -0.11883605617E+03  0.13967804830E+03  0.00000000000E+00 0. -1.
</event>
<event>
 7    1  0.5957303E-006  0.7979309E+02  0.7818608E-02  0.1502448E+00
          2   -1    0    0  502    0  0.00000000000E+00  0.00000000000E+00  0.18788955016E+03  0.18788955016E+03  0.00000000000E+00 0. -1.
          1   -1    0    0  501    0 -0.00000000000E+00 -0.00000000000E+00 -0.72467540112E+03  0.72467540112E+03  0.00000000000E+00 0. -1.
         25    2    1    2    0    0  0.57996989114E+02 -0.29010905431E+02 -0.26074473467E+02  0.14321130027E+03  0.12499725989E+03 0.  0.
          2    1    1    2  501    0 -0.77517599265E+02  0.21668393381E+02 -0.63664091343E+03  0.64170877361E+03  0.00000000000E+00 0. -1.
          1    1    1    2  502    0  0.19520610151E+02  0.73425120498E+01  0.12592953595E+03  0.12764487740E+03  0.00000000000E+00 0. -1.
         22    1    3    3    0    0 -0.12092012510E+02  0.46721989338E+01 -0.57792729266E+02  0.59228757926E+02  0.00000000000E+00 0. -1.
         22    1    3    3    0    0  0.70089001624E+02 -0.33683104365E+02  0.31718255798E+02  0.83982542347E+02  0.00000000000E+00 0. -1.
</event>
<event>
 7    1  0.5957303E-006  0.8449793E+02  0.7818608E-02  0.1374351E+00
          2   -1    0    0  502    0  0.00000000000E+00  0.00000000000E+00  0.35697980704E+02  0.35697980704E+02  0.00000000000E+00 0. -1.
          1   -1    0    0  501    0 -0.00000000000E+00 -0.00000000000E+00 -0.15092777433E+04  0.15092777433E+04  0.00000000000E+00 0. -1.
         25    2    1    2    0    0  0.92179459196E+02  0.91789799650E+02 -0.37496890132E+03  0.41611218413E+03  0.12500101121E+03 0.  0.
          2    1    1    2  501    0 -0.47833851574E+02 -0.65587433146E+02 -0.10633455821E+04  0.10664396915E+04  0.00000000000E+00 0. -1.
          1    1    1    2  502    0 -0.44345607622E+02 -0.26202366504E+02 -0.35265279198E+02  0.62423848349E+02  0.00000000000E+00 0. -1.
         22    1    3    3    0    0 -0.15821970004E+02 -0.95513355558E+00 -0.90670977815E+00  0.15876685345E+02  0.00000000000E+00 0.  1.
         22    1    3    3    0    0  0.10800142920E+03  0.92744933206E+02 -0.37406219154E+03  0.40023549878E+03  0.00000000000E+00 0.  1.
</event>
<event>
 7    1  0.5957303E-006  0.6387634E+02  0.7818608E-02  0.1428975E+00
          2   -1    0    0  502    0  0.00000000000E+00  0.00000000000E+00  0.29880218499E+03  0.29880218499E+03  0.00000000000E+00 0. -1.
          1   -1    0    0  501    0 -0.00000000000E+00 -0.00000000000E+00 -0.26267628971E+03  0.26267628971E+03  0.00000000000E+00 0. -1.
         25    2    1    2    0    0  0.13189030649E+02 -0.59330072618E+02  0.66465881097E+02  0.15406475093E+03  0.12499690430E+03 0.  0.
          2    1    1    2  501    0  0.39636154280E+02  0.19678096761E+02 -0.21072222112E+03  0.21531861669E+03  0.00000000000E+00 0. -1.
          1    1    1    2  502    0 -0.52825184929E+02  0.39651975857E+02  0.18038223530E+03  0.19209510708E+03  0.00000000000E+00 0. -1.
         22    1    3    3    0    0 -0.66162500001E+01 -0.25583282803E+02 -0.35841597011E+02  0.44529756336E+02  0.00000000000E+00 0.  1.
         22    1    3    3    0    0  0.19805280649E+02 -0.33746789815E+02  0.10230747811E+03  0.10953499460E+03  0.00000000000E+00 0.  1.
</event>
<event>
 7    1  0.5957303E-006  0.6034255E+02  0.7818608E-02  0.1485792E+00
          2   -1    0    0  502    0  0.00000000000E+00  0.00000000000E+00  0.11418526482E+04  0.11418526482E+04  0.00000000000E+00 0. -1.
          1   -1    0    0  501    0 -0.00000000000E+00 -0.00000000000E+00 -0.10971381435E+04  0.10971381435E+04  0.00000000000E+00 0. -1.
         25    2    1    2    0    0  0.13726733678E+02 -0.37778427781E+02  0.41942182614E+02  0.13784055488E+03  0.12500095626E+03 0.  0.
          2    1    1    2  501    0 -0.21199155689E+02 -0.22551756298E+02 -0.10480820504E+04  0.10485389694E+04  0.00000000000E+00 0. -1.
          1    1    1    2  502    0  0.74724220118E+01  0.60330184079E+02  0.10508543725E+04  0.10526112675E+04  0.00000000000E+00 0. -1.
         22    1    3    3    0    0  0.59006168658E+02 -0.50029067456E+02  0.47226365735E+02  0.90636444936E+02  0.00000000000E+00 0.  1.
         22    1    3    3    0    0 -0.45279434980E+02  0.12250639675E+02 -0.52841831207E+01  0.47204109946E+02  0.00000000000E+00 0.  1.
</event>
<event>
 7    1  0.5957303E-006  0.5577860E+02  0.7818608E-02  0.1484448E+00
          2   -1    0    0  502    0  0.00000000000E+00  0.00000000000E+00  0.13947736903E+04  0.13947736903E+04  0.00000000000E+00 0. -1.
          1   -1    0    0  501    0 -0.00000000000E+00 -0.00000000000E+00 -0.96526833999E+02  0.96526833999E+02  0.00000000000E+00 0. -1.
         25    2    1    2    0    0 -0.31259423991E+01  0.27226075542E+02  0.38688219588E+03  0.40750946409E+03  0.12504038999E+03 0.  0.
          2    1    1    2  501    0  0.29771594109E+02 -0.48023003438E+02 -0.76635313237E+02  0.95213065858E+02  0.00000000000E+00 0. -1.
          1    1    1    2  502    0 -0.26645651710E+02  0.20796927896E+02  0.98799997371E+03  0.98857799440E+03  0.00000000000E+00 0. -1.
         22    1    3    3    0    0  0.38596031781E+02  0.62391674655E+02  0.22889558233E+03  0.24036547661E+03  0.00000000000E+00 0.  1.
         22    1    3    3    0    0 -0.41721974180E+02 -0.35165599113E+02  0.15798661355E+03  0.16714398748E+03  0.00000000000E+00 0.  1.
</event>
<event>
 7    1  0.5957303E-006  0.1930028E+03  0.7818608E-02  0.1218788E+00
          2   -1    0    0  502    0  0.00000000000E+00  0.00000000000E+00  0.38533569247E+02  0.38533569247E+02  0.00000000000E+00 0. -1.
          1   -1    0    0  501    0 -0.00000000000E+00 -0.00000000000E+00 -0.33728334483E+04  0.33728334483E+04  0.00000000000E+00 0. -1.
         25    2    1    2    0    0 -0.16620299984E+02 -0.14995114562E+03 -0.14532407441E+04  0.14663885857E+04  0.12500097415E+03 0.  0.
          2    1    1    2  501    0  0.26171612542E+02  0.24533408307E+03 -0.18072013759E+04  0.18239656189E+04  0.00000000000E+00 0. -1.
          1    1    1    2  502    0 -0.95513125580E+01 -0.95382937446E+02 -0.73857758920E+02  0.12101281288E+03  0.00000000000E+00 0. -1.
         22    1    3    3    0    0 -0.48663147521E+01 -0.76125867323E+02 -0.26397304206E+03  0.27477371714E+03  0.00000000000E+00 0.  1.
         22    1    3    3    0    0 -0.11753985232E+02 -0.73825278302E+02 -0.11892677021E+04  0.11916148686E+04  0.00000000000E+00 0.  1.
</event>
<event>
 7    1  0.5957303E-006  0.9643967E+02  0.7818608E-02  0.1296415E+00
          2   -1    0    0  502    0  0.00000000000E+00  0.00000000000E+00  0.19429382996E+04  0.19429382996E+04  0.00000000000E+00 0. -1.
          1   -1    0    0  501    0 -0.00000000000E+00 -0.00000000000E+00 -0.85488136376E+03  0.85488136376E+03  0.00000000000E+00 0. -1.
         25    2    1    2    0    0 -0.93038085529E+02  0.15770109566E+03  0.23354844925E+02  0.22292798217E+03  0.12500286205E+03 0.  0.
          2    1    1    2  501    0  0.42656212506E+02 -0.84179474863E+02 -0.75104890000E+03  0.75695454728E+03  0.00000000000E+00 0. -1.
          1    1    1    2  502    0  0.50381873023E+02 -0.73521620794E+02  0.18157509909E+04  0.18179371339E+04  0.00000000000E+00 0. -1.
         22    1    3    3    0    0 -0.11006920946E+03  0.15949175400E+03 -0.22494382882E+00  0.19378570913E+03  0.00000000000E+00 0.  1.
         22    1    3    3    0    0  0.17031123936E+02 -0.17906583383E+01  0.23579788753E+02  0.29142273032E+02  0.00000000000E+00 0.  1.
</event>
<event>
 7    1  0.5957303E-006  0.6491308E+02  0.7818608E-02  0.1468630E+00
          2   -1    0    0  502    0  0.00000000000E+00  0.00000000000E+00  0.31628014746E+03  0.31628014746E+03  0.00000000000E+00 0. -1.
          1   -1    0    0  501    0 -0.00000000000E+00 -0.00000000000E+00 -0.14996225662E+03  0.14996225662E+03  0.00000000000E+00 0. -1.
         25    2    1    2    0    0 -0.82532578861E+00  0.88667848793E+02  0.10984103505E+03  0.18854988148E+03  0.12499334483E+03 0.  0.
          2    1    1    2  501    0 -0.16801538275E+02 -0.61368457540E+02 -0.99643993927E+02  0.11822565202E+03  0.00000000000E+00 0. -1.
          1    1    1    2  502    0  0.17626864064E+02 -0.27299391253E+02  0.15612084971E+03  0.15946687059E+03  0.00000000000E+00 0. -1.
         22    1    3    3    0    0 -0.24060479295E+02 -0.18067846275E+02 -0.44913746483E+01  0.30422461754E+02  0.00000000000E+00 0.  1.
         22    1    3    3    0    0  0.23235153507E+02  0.10673569507E+03  0.11433240970E+03  0.15812741972E+03  0.00000000000E+00 0.  1.
</event>
<event>
 7    1  0.5957303E-006  0.8915549E+02  0.7818608E-02  0.1306420E+00
          2   -1    0    0  502    0  0.00000000000E+00  0.00000000000E+00  0.77946281256E+03  0.77946281256E+03  0.00000000000E+00 0. -1.
          1   -1    0    0  501    0 -0.00000000000E+00 -0.00000000000E+00 -0.19437149116E+04  0.19437149116E+04  0.00000000000E+00 0. -1.
         25    2    1    2    0    0 -0.42426915054E+02  0.16597419504E+01  0.37766019654E+02  0.13730893036E+03  0.12499868900E+03 0.  0.
          2    1    1    2  501    0  0.22371986557E+02 -0.87276466773E+02 -0.18900721916E+04  0.18922184273E+04  0.00000000000E+00 0. -1.
          1    1    1    2  502    0  0.20054928497E+02  0.85616724823E+02  0.68805407286E+03  0.69365036647E+03  0.00000000000E+00 0. -1.
         22    1    3    3    0    0 -0.58256604907E+01  0.54845878557E+02  0.46521857636E+02  0.72154639163E+02  0.00000000000E+00 0. -1.
         22    1    3    3    0    0 -0.36601254563E+02 -0.53186136607E+02 -0.87558379820E+01  0.65154291198E+02  0.00000000000E+00 0. -1.
</event>
<event>
 7    1  0.5957303E-006  0.4539040E+02  0.7818608E-02  0.1511457E+00
          2   -1    0    0  502    0  0.00000000000E+00  0.00000000000E+00  0.15888707578E+03  0.15888707578E+03  0.00000000000E+00 0. -1.
          1   -1    0    0  501    0 -0.00000000000E+00 -0.00000000000E+00 -0.67311863586E+03  0.67311863586E+03  0.00000000000E+00 0. -1.
         25    2    1    2    0    0  0.30016574275E+02 -0.43815105230E+01  0.77113004594E+02  0.14997342910E+03  0.12500168636E+03 0.  0.
          2    1    1    2  501    0  0.18158626212E+02  0.29314009314E+02 -0.61981276292E+03  0.62077122028E+03  0.00000000000E+00 0. -1.
          1    1    1    2  502    0 -0.48175200487E+02 -0.24932498791E+02  0.28468198246E+02  0.61261062261E+02  0.00000000000E+00 0. -1.
         22    1    3    3    0    0 -0.12424031435E+02  0.53757457896E+02  0.22354798408E+02  0.59531150236E+02  0.00000000000E+00 0.  1.
         22    1    3    3    0    0  0.42440605709E+02 -0.58138968419E+02  0.54758206186E+02  0.90442278866E+02  0.00000000000E+00 0.  1.
</event>
<event>
 7    1  0.5957303E-006  0.1668326E+03  0.7818608E-02  0.1224539E+00
          2   -1    0    0  502    0  0.00000000000E+00  0.00000000000E+00  0.17570918630E+04  0.17570918630E+04  0.00000000000E+00 0. -1.
          1   -1    0    0  501    0 -0.00000000000E+00 -0.00000000000E+00 -0.10464705492E+03  0.10464705492E+03  0.00000000000E+00 0. -1.
         25    2    1    2    0    0 -0.23953252992E+03 -0.64585609393E+02  0.11482627038E+04  0.11813886338E+04  0.12499893342E+03 0.  0.
          2    1    1    2  501    0  0.13731403507E+03  0.85901171449E+02 -0.35339410854E+01  0.16200816098E+03  0.00000000000E+00 0. -1.
          1    1    1    2  502    0  0.10221849485E+03 -0.21315562056E+02  0.50771604539E+03  0.51834212314E+03  0.00000000000E+00 0. -1.
         22    1    3    3    0    0  0.74614806703E+01 -0.20812591582E+01  0.18000083672E+03  0.18016744033E+03  0.00000000000E+00 0. -1.
         22    1    3    3    0    0 -0.24699401059E+03 -0.62504350235E+02  0.96826186706E+03  0.10012211935E+04  0.00000000000E+00 0. -1.
</event>
<event>
 7    1  0.5957303E-006  0.5899455E+02  0.7818608E-02  0.1469944E+00
          2   -1    0    0  502    0  0.00000000000E+00  0.00000000000E+00  0.10036642647E+04  0.10036642647E+04  0.00000000000E+00 0. -1.
          1   -1    0    0  501    0 -0.00000000000E+00 -0.00000000000E+00 -0.34763935508E+03  0.34763935508E+03  0.00000000000E+00 0. -1.
         25    2    1    2    0    0 -0.29380615354E+02  0.39186505846E+01 -0.23641766139E+02  0.13062447117E+03  0.12500097192E+03 0.  0.
          2    1    1    2  501    0  0.52921581073E+02 -0.30384091458E+02 -0.26672912735E+03  0.27362074873E+03  0.00000000000E+00 0. -1.
          1    1    1    2  502    0 -0.23540965719E+02  0.26465440873E+02  0.94639580309E+03  0.94705839985E+03  0.00000000000E+00 0. -1.
         22    1    3    3    0    0 -0.46997454283E+02 -0.39144083789E+02 -0.48329382358E+02  0.77953506681E+02  0.00000000000E+00 0.  1.
         22    1    3    3    0    0  0.17616838929E+02  0.43062734374E+02  0.24687616219E+02  0.52670964489E+02  0.00000000000E+00 0.  1.
</event>
<event>
 7    1  0.5957303E-006  0.1500450E+03  0.7818608E-02  0.1207796E+00
          2   -1    0    0  502    0  0.00000000000E+00  0.00000000000E+00  0.80311723956E+03  0.80311723956E+03  0.00000000000E+00 0. -1.
          1   -1    0    0  501    0 -0.00000000000E+00 -0.00000000000E+00 -0.10123640573E+04  0.10123640573E+04  0.00000000000E+00 0. -1.
         25    2    1    2    0    0 -0.13827467210E+03 -0.61697258372E+02  0.10970160522E+03  0.22491110608E+03  0.12499650722E+03 0.  0.
          2    1    1    2  501    0  0.10250012617E+03 -0.93246713721E+02 -0.93965510634E+03  0.94981732157E+03  0.00000000000E+00 0. -1.
          1    1    1    2  502    0  0.35774545926E+02  0.15494397209E+03  0.62070668338E+03  0.64075286922E+03  0.00000000000E+00 0. -1.
         22    1    3    3    0    0 -0.66655309339E+02 -0.66235522178E+00  0.11250578470E+03  0.13077048814E+03  0.00000000000E+00 0. -1.
         22    1    3    3    0    0 -0.71619362757E+02 -0.61034903150E+02 -0.28041794799E+01  0.94140617944E+02  0.00000000000E+00 0. -1.
</event>
<event>
 7    1  0.5957303E-006  0.5177919E+03  0.7818608E-02  0.1153866E+00
          2   -1    0    0  502    0  0.00000000000E+00  0.00000000000E+00  0.60724994798E+03  0.60724994798E+03  0.00000000000E+00 0. -1.
          1   -1    0    0  501    0 -0.00000000000E+00 -0.00000000000E+00 -0.19450140877E+04  0.19450140877E+04  0.00000000000E+00 0. -1.
         25    2    1    2    0    0  0.54182953742E+03  0.91815737544E+02 -0.35800174846E+03  0.66768212075E+03  0.12499914079E+03 0.  0.
          2    1    1    2  501    0 -0.50864015551E+03 -0.26150478695E+02 -0.13834611195E+04  0.14742331310E+04  0.00000000000E+00 0. -1.
          1    1    1    2  502    0 -0.33189381909E+02 -0.65665258849E+02  0.40369872825E+03  0.41034878394E+03  0.00000000000E+00 0. -1.
         22    1    3    3    0    0  0.51232247625E+03  0.76820204204E+02 -0.36516788214E+03  0.63381641316E+03  0.00000000000E+00 0. -1.
         22    1    3    3    0    0  0.29507061167E+02  0.14995533340E+02  0.71661336832E+01  0.33865707593E+02  0.00000000000E+00 0. -1.
</event>
<event>
 7    1  0.5957303E-006  0.1059650E+03  0.7818608E-02  0.1400649E+00
          2   -1    0    0  502    0  0.00000000000E+00  0.00000000000E+00  0.16315324703E+04  0.16315324703E+04  0.00000000000E+00 0. -1.
          1   -1    0    0  501    0 -0.00000000000E+00 -0.00000000000E+00 -0.20900397063E+03  0.20900397063E+03  0.00000000000E+00 0. -1.
         25    2    1    2    0    0 -0.11788705455E+03 -0.57279417718E+02  0.78066129504E+01  0.18132612033E+03  0.12505970327E+03 0.  0.
          2    1    1    2  501    0  0.84814189750E+02  0.54122177958E+02 -0.10132964743E+03  0.14279479815E+03  0.00000000000E+00 0. -1.
          1    1    1    2  502    0  0.33072864797E+02  0.31572397601E+01  0.15160515341E+04  0.15164155224E+04  0.00000000000E+00 0. -1.
         22    1    3    3    0    0 -0.65089581471E+02 -0.78714832834E+02  0.46725582690E+02  0.11232078437E+03  0.00000000000E+00 0.  1.
         22    1    3    3    0    0 -0.52797473075E+02  0.21435415116E+02 -0.38918969740E+02  0.69005335953E+02  0.00000000000E+00 0.  1.
</event>
<event>
 7    1  0.5957303E-006  0.2388363E+02  0.7818608E-02  0.1682429E+00
          2   -1    0    0  502    0  0.00000000000E+00  0.00000000000E+00  0.12743512425E+04  0.12743512425E+04  0.00000000000E+00 0. -1.
          1   -1    0    0  501    0 -0.00000000000E+00 -0.00000000000E+00 -0.52013201572E+02  0.52013201572E+02  0.00000000000E+00 0. -1.
         25    2    1    2    0    0 -0.41553124173E+02  0.18089180234E+02  0.38278461767E+03  0.40522164106E+03  0.12500653699E+03 0.  0.
          2    1    1    2  501    0  0.18526496131E+02 -0.14794766178E+02 -0.37182566070E+02  0.44098292311E+02  0.00000000000E+00 0. -1.
          1    1    1    2  502    0  0.23026628042E+02 -0.32944140557E+01  0.87673598930E+03  0.87704451067E+03  0.00000000000E+00 0. -1.
         22    1    3    3    0    0 -0.65917746687E+02  0.49106892756E+02  0.17021007568E+03  0.18901879829E+03  0.00000000000E+00 0. -1.
         22    1    3    3    0    0  0.24364622514E+02 -0.31017712522E+02  0.21257454199E+03  0.21620284277E+03  0.00000000000E+00 0. -1.
</event>
<event>
 7    1  0.5957303E-006  0.8679667E+02  0.7818608E-02  0.1404509E+00
          2   -1    0    0  502    0  0.00000000000E+00  0.00000000000E+00  0.59401731451E+03  0.59401731451E+03  0.00000000000E+00 0. -1.
          1   -1    0    0  501    0 -0.00000000000E+00 -0.00000000000E+00 -0.35682162244E+04  0.35682162244E+04  0.00000000000E+00 0. -1.
         25    2    1    2    0    0  0.78162340026E+02  0.22667633182E+01 -0.96976283254E+02  0.17649243266E+03  0.12502275656E+03 0.  0.
          2    1    1    2  501    0 -0.76460313633E+02 -0.41573786187E+02 -0.34302310132E+04  0.34313349243E+04  0.00000000000E+00 0. -1.
          1    1    1    2  502    0 -0.17020263930E+01  0.39307022869E+02  0.55300838655E+03  0.55440618191E+03  0.00000000000E+00 0. -1.
         22    1    3    3    0    0  0.10019203785E+03  0.70298242054E+01 -0.11119730198E+03  0.14984225988E+03  0.00000000000E+00 0. -1.
         22    1    3    3    0    0 -0.22029697827E+02 -0.47630608873E+01  0.14221018729E+02  0.26650172777E+02  0.00000000000E+00 0. -1.
</event>
<event>
 7    1  0.5957303E-006  0.7826524E+02  0.7818608E-02  0.1446876E+00
          2   -1    0    0  502    0  0.00000000000E+00  0.00000000000E+00  0.21538329669E+04  0.21538329669E+04  0.00000000000E+00 0. -1.
          1   -1    0    0  501    0 -0.00000000000E+00 -0.00000000000E+00 -0.70997816261E+03  0.70997816261E+03  0.00000000000E+00 0. -1.
         25    2    1    2    0    0  0.52216765155E+02 -0.66407186634E+00  0.75276853156E+03  0.76486128351E+03  0.12500115736E+03 0.  0.
          2    1    1    2  501    0  0.31338531678E+02 -0.39106503853E+01 -0.70232171411E+03  0.70303142666E+03  0.00000000000E+00 0. -1.
          1    1    1    2  502    0 -0.83555296833E+02  0.45747222517E+01  0.13934079869E+04  0.13959184194E+04  0.00000000000E+00 0. -1.
         22    1    3    3    0    0  0.67032709507E+02  0.44466933768E+02  0.34086894287E+03  0.35023182117E+03  0.00000000000E+00 0.  1.
         22    1    3    3    0    0 -0.14815944352E+02 -0.45131005635E+02  0.41189958869E+03  0.41462946234E+03  0.00000000000E+00 0.  1.
</event>
<event>
 7    1  0.5957303E-006  0.1264212E+03  0.7818608E-02  0.1382373E+00
          2   -1    0    0  502    0  0.00000000000E+00  0.00000000000E+00  0.13685243173E+04  0.13685243173E+04  0.00000000000E+00 0. -1.
          1   -1    0    0  501    0 -0.00000000000E+00 -0.00000000000E+00 -0.21195564812E+03  0.21195564812E+03  0.00000000000E+00 0. -1.
         25    2    1    2    0    0 -0.29756503895E+02  0.92088820384E+02  0.11183864426E+02  0.15848387600E+03  0.12500503896E+03 0.  0.
          2    1    1    2  501    0  0.53108384253E+00  0.32237510385E+02 -0.13320095857E+03  0.13704756287E+03  0.00000000000E+00 0. -1.
          1    1    1    2  502    0  0.29225420052E+02 -0.12432633077E+03  0.12785857634E+04  0.12849485266E+04  0.00000000000E+00 0. -1.
         22    1    3    3    0    0  0.18490037521E+02  0.10031756380E+03  0.29560949852E+02  0.10620426004E+03  0.00000000000E+00 0.  1.
         22    1    3    3    0    0 -0.48246541416E+02 -0.82287434145E+01 -0.18377085426E+02  0.52279615966E+02  0.00000000000E+00 0.  1.
</event>
<event>
 7    1  0.5957303E-006  0.1409497E+03  0.7818608E-02  0.1359450E+00
          2   -1    0    0  502    0  0.00000000000E+00  0.00000000000E+00  0.24219259997E+04  0.24219259997E+04  0.00000000000E+00 0. -1.
          1   -1    0    0  501    0 -0.00000000000E+00 -0.00000000000E+00 -0.31749669685E+03  0.31749669685E+03  0.00000000000E+00 0. -1.
         25    2    1    2    0    0 -0.13175204321E+03 -0.81252624729E+02  0.15797351637E+03  0.25404938990E+03  0.12499948288E+03 0.  0.
          2    1    1    2  501    0 -0.86197343986E+00  0.34941916780E+02 -0.26608863280E+03  0.26837444188E+03  0.00000000000E+00 0. -1.
          1    1    1    2  502    0  0.13261401665E+03  0.46310707949E+02  0.22125444192E+04  0.22169988647E+04  0.00000000000E+00 0. -1.
         22    1    3    3    0    0 -0.89474923157E+02  0.16039799151E+02  0.55202213890E+02  0.10634999506E+03  0.00000000000E+00 0. -1.
         22    1    3    3    0    0 -0.42277120054E+02 -0.97292423880E+02  0.10277130248E+03  0.14769939485E+03  0.00000000000E+00 0. -1.
</event>
<event>
 7    1  0.5957303E-006  0.4332233E+02  0.7818608E-02  0.1535211E+00
          2   -1    0    0  502    0  0.00000000000E+00  0.00000000000E+00  0.52120373830E+02  0.52120373830E+02  0.00000000000E+00 0. -1.
          1   -1    0    0  501    0 -0.00000000000E+00 -0.00000000000E+00 -0.40569903563E+03  0.40569903563E+03  0.00000000000E+00 0. -1.
         25    2    1    2    0    0  0.27963654205E+02  0.25739933812E+02 -0.88830447303E+02  0.15798928461E+03  0.12500102213E+03 0.  0.
          2    1    1    2  501    0 -0.31174739468E+01 -0.44017161324E+02 -0.26533558351E+03  0.26897992678E+03  0.00000000000E+00 0. -1.
          1    1    1    2  502    0 -0.24846180258E+02  0.18277227513E+02  0.58736900803E+00  0.30850198076E+02  0.00000000000E+00 0. -1.
         22    1    3    3    0    0 -0.49862134205E+02  0.15097101753E+02 -0.35999484170E+02  0.63325490675E+02  0.00000000000E+00 0. -1.
         22    1    3    3    0    0  0.77825788410E+02  0.10642832059E+02 -0.52830963133E+02  0.94663793931E+02  0.00000000000E+00 0. -1.
</event>
<event>
 7    1  0.5957303E-006  0.6837383E+02  0.7818608E-02  0.1481299E+00
          2   -1    0    0  502    0  0.00000000000E+00  0.00000000000E+00  0.18720420017E+04  0.18720420017E+04  0.00000000000E+00 0. -1.
          1   -1    0    0  501    0 -0.00000000000E+00 -0.00000000000E+00 -0.62623728511E+02  0.62623728511E+02  0.00000000000E+00 0. -1.
         25    2    1    2    0    0  0.53569388991E+02 -0.13199539452E+02  0.24498951206E+03  0.28051598815E+03  0.12500180523E+03 0.  0.
          2    1    1    2  501    0  0.18089984110E+01 -0.28134102206E+02 -0.39612608604E+02  0.48620560904E+02  0.00000000000E+00 0. -1.
          1    1    1    2  502    0 -0.55378387402E+02  0.41333641658E+02  0.16040413697E+04  0.16055291811E+04  0.00000000000E+00 0. -1.
         22    1    3    3    0    0  0.22747520048E+02  0.41177928049E+02  0.19466828058E+03  0.20027184248E+03  0.00000000000E+00 0.  1.
         22    1    3    3    0    0  0.30821868942E+02 -0.54377467501E+02  0.50321231480E+02  0.80244145672E+02  0.00000000000E+00 0.  1.
</event>
<event>
 7    1  0.5957303E-006  0.6395412E+02  0.7818608E-02  0.1438629E+00
          2   -1    0    0  502    0  0.00000000000E+00  0.00000000000E+00  0.10366327311E+04  0.10366327311E+04  0.00000000000E+00 0. -1.
          1   -1    0    0  501    0 -0.00000000000E+00 -0.00000000000E+00 -0.37861655463E+03  0.37861655463E+03  0.00000000000E+00 0. -1.
         25    2    1    2    0    0  0.36725146971E+02  0.40131402154E+02 -0.11933532678E+03  0.18120176527E+03  0.12503556959E+03 0.  0.
          2    1    1    2  501    0  0.26752424746E+02 -0.31195340780E+02 -0.22546732529E+03  0.22918192837E+03  0.00000000000E+00 0. -1.
          1    1    1    2  502    0 -0.63477571717E+02 -0.89360613742E+01  0.10028188285E+04  0.10048655921E+04  0.00000000000E+00 0. -1.
         22    1    3    3    0    0  0.66635920845E+02 -0.86502176961E+01 -0.10062648123E+03  0.12099942537E+03  0.00000000000E+00 0. -1.
         22    1    3    3    0    0 -0.29910773873E+02  0.48781619850E+02 -0.18708845544E+02  0.60202339909E+02  0.00000000000E+00 0. -1.
</event>
<event>
 7    1  0.5957303E-006  0.6361852E+02  0.7818608E-02  0.1397662E+00
          2   -1    0    0  502    0  0.00000000000E+00  0.00000000000E+00  0.49503222431E+03  0.49503222431E+03  0.00000000000E+00 0. -1.
          1   -1    0    0  501    0 -0.00000000000E+00 -0.00000000000E+00 -0.80010488336E+03  0.80010488336E+03  0.00000000000E+00 0. -1.
         25    2    1    2    0    0  0.21861852232E+02  0.47385269086E+02 -0.48309802451E+03  0.50172882712E+03  0.12499924149E+03 0.  0.
          2    1    1    2  501    0  0.30098212387E+02 -0.69988682530E+02 -0.30128083546E+03  0.31076431566E+03  0.00000000000E+00 0. -1.
          1    1    1    2  502    0 -0.51960064619E+02  0.22603413443E+02  0.47930620091E+03  0.48264396489E+03  0.00000000000E+00 0. -1.
         22    1    3    3    0    0 -0.34169507786E+02  0.57061279048E+02 -0.36053507267E+03  0.36661844396E+03  0.00000000000E+00 0. -1.
         22    1    3    3    0    0  0.56031360018E+02 -0.96760099615E+01 -0.12256295184E+03  0.13511038316E+03  0.00000000000E+00 0. -1.
</event>
<event>
 7    1  0.5957303E-006  0.5216395E+02  0.7818608E-02  0.1444939E+00
          2   -1    0    0  502    0  0.00000000000E+00  0.00000000000E+00  0.95003332655E+02  0.95003332655E+02  0.00000000000E+00 0. -1.
          1   -1    0    0  501    0 -0.00000000000E+00 -0.00000000000E+00 -0.26759129113E+04  0.26759129113E+04  0.00000000000E+00 0. -1.
         25    2    1    2    0    0 -0.67551540979E+01  0.16897353601E+02 -0.76400269448E+03  0.77437406507E+03  0.12499569115E+03 0.  0.
          2    1    1    2  501    0  0.54417028644E+02 -0.10653220325E+02 -0.18998594397E+04  0.19006684600E+04  0.00000000000E+00 0. -1.
          1    1    1    2  502    0 -0.47661874546E+02 -0.62441332760E+01  0.82952555603E+02  0.95873718853E+02  0.00000000000E+00 0. -1.
         22    1    3    3    0    0 -0.22359828278E+02  0.51382278164E+02 -0.16656340767E+03  0.17573693181E+03  0.00000000000E+00 0.  1.
         22    1    3    3    0    0  0.15604674180E+02 -0.34484924563E+02 -0.59743928682E+03  0.59863713326E+03  0.00000000000E+00 0.  1.
</event>
<event>
 7    1  0.5957303E-006  0.4810268E+02  0.7818608E-02  0.1485356E+00
          2   -1    0    0  502    0  0.00000000000E+00  0.00000000000E+00  0.20177520853E+02  0.20177520853E+02  0.00000000000E+00 0. -1.
          1   -1    0    0  501    0 -0.00000000000E+00 -0.00000000000E+00 -0.10540252965E+04  0.10540252965E+04  0.00000000000E+00 0. -1.
         25    2    1    2    0    0  0.37834191609E+02 -0.41543519463E+02 -0.35372203269E+03  0.37934310142E+03  0.12499848849E+03 0.  0.
          2    1    1    2  501    0 -0.38216596142E+02 -0.75012103952E+01 -0.59754099427E+03  0.59880883110E+03  0.00000000000E+00 0. -1.
          1    1    1    2  502    0  0.38240453286E+00  0.49044729858E+02 -0.82584748722E+02  0.96050884855E+02  0.00000000000E+00 0. -1.
         22    1    3    3    0    0 -0.15190463186E+02 -0.48073713419E+02 -0.50170633991E+02  0.71126117627E+02  0.00000000000E+00 0. -1.
         22    1    3    3    0    0  0.53024654795E+02  0.65301939566E+01 -0.30355139869E+03  0.30821698379E+03  0.00000000000E+00 0. -1.
</event>
<event>
 7    1  0.5957303E-006  0.3912712E+02  0.7818608E-02  0.1598936E+00
          2   -1    0    0  502    0  0.00000000000E+00  0.00000000000E+00  0.10164845680E+04  0.10164845680E+04  0.00000000000E+00 0. -1.
          1   -1    0    0  501    0 -0.00000000000E+00 -0.00000000000E+00 -0.75942629600E+03  0.75942629600E+03  0.00000000000E+00 0. -1.
         25    2    1    2    0    0 -0.12512470961E+02  0.17287303298E+02 -0.14728637088E+03  0.19435478003E+03  0.12500037075E+03 0.  0.
          2    1    1    2  501    0  0.60383449946E+01 -0.39237166432E+02 -0.58780423862E+03  0.58914331005E+03  0.00000000000E+00 0. -1.
          1    1    1    2  502    0  0.64741259659E+01  0.21949863133E+02  0.99214888146E+03  0.99241277390E+03  0.00000000000E+00 0. -1.
         22    1    3    3    0    0  0.46251851795E+02  0.40564992222E+02 -0.90214580985E+02  0.10919442756E+03  0.00000000000E+00 0.  1.
         22    1    3    3    0    0 -0.58764322755E+02 -0.23277688923E+02 -0.57071789892E+02  0.85160352465E+02  0.00000000000E+00 0.  1.
</event>
<event>
 7    1  0.5957303E-006  0.4539286E+02  0.7818608E-02  0.1591436E+00
          2   -1    0    0  502    0  0.00000000000E+00  0.00000000000E+00  0.37410215096E+03  0.37410215096E+03  0.00000000000E+00 0. -1.
          1   -1    0    0  501    0 -0.00000000000E+00 -0.00000000000E+00 -0.75336202052E+03  0.75336202052E+03  0.00000000000E+00 0. -1.
         25    2    1    2    0    0 -0.25713571960E+02 -0.19229418864E+01  0.93846376876E+01  0.12796194162E+03  0.12498520549E+03 0.  0.
          2    1    1    2  501    0 -0.20198089799E+02  0.42586336761E+01 -0.69218882503E+03  0.69249654749E+03  0.00000000000E+00 0. -1.
          1    1    1    2  502    0  0.45911661759E+02 -0.23356917897E+01  0.30354431779E+03  0.30700568236E+03  0.00000000000E+00 0. -1.
         22    1    3    3    0    0 -0.45769347236E+02 -0.41631444621E+02 -0.29805264811E+02  0.68675790043E+02  0.00000000000E+00 0. -1.
         22    1    3    3    0    0  0.20055775276E+02  0.39708502734E+02  0.39189902498E+02  0.59286151580E+02  0.00000000000E+00 0. -1.
</event>
<event>
 7    1  0.5957303E-006  0.4416465E+02  0.7818608E-02  0.1512560E+00
          2   -1    0    0  502    0  0.00000000000E+00  0.00000000000E+00  0.11106619655E+04  0.11106619655E+04  0.00000000000E+00 0. -1.
          1   -1    0    0  501    0 -0.00000000000E+00 -0.00000000000E+00 -0.34406705197E+03  0.34406705197E+03  0.00000000000E+00 0. -1.
         25    2    1    2    0    0  0.44212468554E+02 -0.23326687812E+02  0.22818179948E+03  0.26493437456E+03  0.12499764985E+03 0.  0.
          2    1    1    2  501    0 -0.14219776548E+01  0.35147642931E+02 -0.32416848243E+03  0.32607143976E+03  0.00000000000E+00 0. -1.
          1    1    1    2  502    0 -0.42790490899E+02 -0.11820955119E+02  0.86258159645E+03  0.86372320313E+03  0.00000000000E+00 0. -1.
         22    1    3    3    0    0  0.27071662415E+02 -0.60741905955E+02  0.20938203516E+03  0.21968907732E+03  0.00000000000E+00 0. -1.
         22    1    3    3    0    0  0.17140806139E+02  0.37415218144E+02  0.18799764321E+02  0.45245297240E+02  0.00000000000E+00 0. -1.
</event>
<event>
 7    1  0.5957303E-006  0.3513291E+02  0.7818608E-02  0.1548346E+00
          2   -1    0    0  502    0  0.00000000000E+00  0.00000000000E+00  0.18586084207E+03  0.18586084207E+03  0.00000000000E+00 0. -1.
          1   -1    0    0  501    0 -0.00000000000E+00 -0.00000000000E+00 -0.21854938571E+03  0.21854938571E+03  0.00000000000E+00 0. -1.
         25    2    1    2    0    0  0.74698418827E+01  0.33202569399E+02  0.38865768862E+01  0.12960794737E+03  0.12499962155E+03 0.  0.
          2    1    1    2  501    0 -0.33900569497E+02 -0.92235074335E+01 -0.15095235051E+03  0.15498688276E+03  0.00000000000E+00 0. -1.
          1    1    1    2  502    0  0.26430727614E+02 -0.23979061966E+02  0.11437722999E+03  0.11981539766E+03  0.00000000000E+00 0. -1.
         22    1    3    3    0    0  0.34452560094E+02 -0.23974002565E+02 -0.35624968646E+02  0.55053338563E+02  0.00000000000E+00 0. -1.
         22    1    3    3    0    0 -0.26982718211E+02  0.57176571964E+02  0.39511545532E+02  0.74554608804E+02  0.00000000000E+00 0. -1.
</event>
<event>
 7    1  0.5957303E-006  0.9002882E+02  0.7818608E-02  0.1328366E+00
          2   -1    0    0  502    0  0.00000000000E+00  0.00000000000E+00  0.97306466130E+03  0.97306466130E+03  0.00000000000E+00 0. -1.
          1   -1    0    0  501    0 -0.00000000000E+00 -0.00000000000E+00 -0.32849379454E+03  0.32849379454E+03  0.00000000000E+00 0. -1.
         25    2    1    2    0    0  0.15141480562E+02  0.57918108400E+02 -0.53282715794E+01  0.13866994706E+03  0.12496876420E+03 0.  0.
          2    1    1    2  501    0  0.52492003821E+02 -0.81170379546E+02 -0.24591115739E+03  0.26422781517E+03  0.00000000000E+00 0. -1.
          1    1    1    2  502    0 -0.67633484383E+02  0.23252271145E+02  0.89581029572E+03  0.89866069361E+03  0.00000000000E+00 0. -1.
         22    1    3    3    0    0 -0.53098103631E+02  0.40442520117E+02 -0.12351202564E+02  0.67878997101E+02  0.00000000000E+00 0. -1.
         22    1    3    3    0    0  0.68239584192E+02  0.17475588283E+02  0.70229309843E+01  0.70790949960E+02  0.00000000000E+00 0. -1.
</event>
<event>
 7    1  0.5957303E-006  0.1064016E+03  0.7818608E-02  0.1365006E+00
          2   -1    0    0  502    0  0.00000000000E+00  0.00000000000E+00  0.53774126765E+03  0.53774126765E+03  0.00000000000E+00 0. -1.
          1   -1    0    0  501    0 -0.00000000000E+00 -0.00000000000E+00 -0.23031392648E+03  0.23031392648E+03  0.00000000000E+00 0. -1.
         25    2    1    2    0    0  0.11263185505E+03 -0.47920803289E+02  0.45186190794E+03  0.48454722440E+03  0.12499796265E+03 0.  0.
          2    1    1    2  501    0 -0.44158142395E+02  0.18410982656E+01 -0.18594292983E+03  0.19112327001E+03  0.00000000000E+00 0. -1.
          1    1    1    2  502    0 -0.68473712651E+02  0.46079705023E+02  0.41508363050E+02  0.92384699720E+02  0.00000000000E+00 0. -1.
         22    1    3    3    0    0 -0.11563188225E+01 -0.56187141455E+02  0.20558580073E+03  0.21312872496E+03  0.00000000000E+00 0. -1.
         22    1    3    3    0    0  0.11378817387E+03  0.82663381657E+01  0.24627610721E+03  0.27141849945E+03  0.00000000000E+00 0. -1.
</event>
<event>
 7    1  0.5957303E-006  0.2099945E+03  0.7818608E-02  0.1256010E+00
          2   -1    0    0  502    0  0.00000000000E+00  0.00000000000E+00  0.19824532908E+04  0.19824532908E+04  0.00000000000E+00 0. -1.
          1   -1    0    0  501    0 -0.00000000000E+00 -0.00000000000E+00 -0.20498637500E+03  0.20498637500E+03  0.00000000000E+00 0. -1.
         25    2    1    2    0    0 -0.31040329112E+01  0.25970348968E+03  0.56287350723E+03  0.63238199056E+03  0.12499943709E+03 0.  0.
          2    1    1    2  501    0  0.51507783624E+01 -0.60048279756E+02 -0.15743521250E+03  0.16857690398E+03  0.00000000000E+00 0. -1.
          1    1    1    2  502    0 -0.20467454512E+01 -0.19965520992E+03  0.13720286211E+04  0.13864807713E+04  0.00000000000E+00 0. -1.
         22    1    3    3    0    0 -0.62429625416E+02  0.13967133286E+03  0.26943487177E+03  0.30983978034E+03  0.00000000000E+00 0.  1.
         22    1    3    3    0    0  0.59325592505E+02  0.12003215682E+03  0.29343863546E+03  0.32254221023E+03  0.00000000000E+00 0.  1.
</event>
<event>
 7    1  0.5957303E-006  0.4506433E+02  0.7818608E-02  0.1547496E+00
          2   -1    0    0  502    0  0.00000000000E+00  0.00000000000E+00  0.74220521181E+03  0.74220521181E+03  0.00000000000E+00 0. -1.
          1   -1    0    0  501    0 -0.00000000000E+00 -0.00000000000E+00 -0.40303163460E+02  0.40303163460E+02  0.00000000000E+00 0. -1.
         25    2    1    2    0    0  0.91613878752E+01  0.26332408257E+02  0.15609012071E+03  0.20190611390E+03  0.12499850517E+03 0.  0.
          2    1    1    2  501    0  0.68916973598E+01 -0.48509458704E+02  0.18180167585E+02  0.52260707704E+02  0.00000000000E+00 0. -1.
          1    1    1    2  502    0 -0.16053085235E+02  0.22177050448E+02  0.52763176005E+03  0.52834155367E+03  0.00000000000E+00 0. -1.
         22    1    3    3    0    0 -0.12764940598E+02  0.70743082627E+02  0.12258999387E+03  0.14211204750E+03  0.00000000000E+00 0.  1.
         22    1    3    3    0    0  0.21926328474E+02 -0.44410674370E+02  0.33500126845E+02  0.59794066403E+02  0.00000000000E+00 0.  1.
</event>
<event>
 7    1  0.5957303E-006  0.1467510E+03  0.7818608E-02  0.1417079E+00
          2   -1    0    0  502    0  0.00000000000E+00  0.00000000000E+00  0.19322497018E+03  0.19322497018E+03  0.00000000000E+00 0. -1.
          1   -1    0    0  501    0 -0.00000000000E+00 -0.00000000000E+00 -0.85219167801E+03  0.85219167801E+03  0.00000000000E+00 0. -1.
         25    2    1    2    0    0  0.85173524484E+02  0.13586616266E+03 -0.12695932740E+03  0.23970060628E+03  0.12499426550E+03 0.  0.
          2    1    1    2  501    0  0.17670057983E+01 -0.21024327382E+02 -0.63073606929E+03  0.63108884775E+03  0.00000000000E+00 0. -1.
          1    1    1    2  502    0 -0.86940530282E+02 -0.11484183528E+03  0.98728688864E+02  0.17462719416E+03  0.00000000000E+00 0. -1.
         22    1    3    3    0    0  0.31304411229E+02  0.85498209479E+02  0.20811134696E+01  0.91072723797E+02  0.00000000000E+00 0. -1.
         22    1    3    3    0    0  0.53869113255E+02  0.50367953179E+02 -0.12904044087E+03  0.14862788248E+03  0.00000000000E+00 0. -1.
</event>
<event>
 7    1  0.5957303E-006  0.3276931E+02  0.7818608E-02  0.1591974E+00
          2   -1    0    0  502    0  0.00000000000E+00  0.00000000000E+00  0.44310921431E+04  0.44310921431E+04  0.00000000000E+00 0. -1.
          1   -1    0    0  501    0 -0.00000000000E+00 -0.00000000000E+00 -0.16659905967E+02  0.16659905967E+02  0.00000000000E+00 0. -1.
         25    2    1    2    0    0  0.39874121586E+02  0.18965013375E+02  0.24168643255E+04  0.24204973155E+04  0.12499787682E+03 0.  0.
          2    1    1    2  501    0 -0.83105730839E+01 -0.27262110485E+02 -0.90531471736E+00  0.28515046692E+02  0.00000000000E+00 0. -1.
          1    1    1    2  502    0 -0.31563548502E+02  0.82970971104E+01  0.19984732264E+04  0.19987396869E+04  0.00000000000E+00 0. -1.
         22    1    3    3    0    0  0.18032244824E+02 -0.39175904999E+02  0.17995059551E+04  0.18000226653E+04  0.00000000000E+00 0. -1.
         22    1    3    3    0    0  0.21841876762E+02  0.58140918374E+02  0.61735837040E+03  0.62047465015E+03  0.00000000000E+00 0. -1.
</event>
<event>
 7    1  0.5957303E-006  0.4993953E+02  0.7818608E-02  0.1464250E+00
          2   -1    0    0  502    0  0.00000000000E+00  0.00000000000E+00  0.20987138740E+04  0.20987138740E+04  0.00000000000E+00 0. -1.
          1   -1    0    0  501    0 -0.00000000000E+00 -0.00000000000E+00 -0.24529150332E+02  0.24529150332E+02  0.00000000000E+00 0. -1.
         25    2    1    2    0    0 -0.47419105960E+02 -0.26120963083E+02  0.28521112744E+03  0.31607055034E+03  0.12499731697E+03 0.  0.
          2    1    1    2  501    0  0.49703041066E+02 -0.17410805299E+02  0.69763435779E+02  0.87409755772E+02  0.00000000000E+00 0. -1.
          1    1    1    2  502    0 -0.22839351064E+01  0.43531768381E+02  0.17192101604E+04  0.17197627182E+04  0.00000000000E+00 0. -1.
         22    1    3    3    0    0 -0.22512045750E+02  0.50292303655E+02  0.10006044837E+03  0.11422872379E+03  0.00000000000E+00 0. -1.
         22    1    3    3    0    0 -0.24907060210E+02 -0.76413266737E+02  0.18515067907E+03  0.20184182654E+03  0.00000000000E+00 0. -1.
</event>
<event>
 7    1  0.5957303E-006  0.9054832E+02  0.7818608E-02  0.1317769E+00
          2   -1    0    0  502    0  0.00000000000E+00  0.00000000000E+00  0.16975918870E+03  0.16975918870E+03  0.00000000000E+00 0. -1.
          1   -1    0    0  501    0 -0.00000000000E+00 -0.00000000000E+00 -0.70798397669E+03  0.70798397669E+03  0.00000000000E+00 0. -1.
         25    2    1    2    0    0  0.18008157333E+02  0.35904124035E+02 -0.71665757421E+01  0.13149154608E+03  0.12500106811E+03 0.  0.
          2    1    1    2  501    0 -0.93225537418E+02 -0.14752541612E+02 -0.62041393915E+03  0.62755246331E+03  0.00000000000E+00 0. -1.
          1    1    1    2  502    0  0.75217380086E+02 -0.21151582423E+02  0.89355726900E+02  0.11869915600E+03  0.00000000000E+00 0. -1.
         22    1    3    3    0    0 -0.25805954392E+02 -0.12136222165E+02 -0.47192524898E+02  0.55139546396E+02  0.00000000000E+00 0. -1.
         22    1    3    3    0    0  0.43814111725E+02  0.48040346200E+02  0.40025949156E+02  0.76351999680E+02  0.00000000000E+00 0. -1.
</event>
<event>
 7    1  0.5957303E-006  0.7100150E+02  0.7818608E-02  0.1384448E+00
          2   -1    0    0  502    0  0.00000000000E+00  0.00000000000E+00  0.22669034401E+03  0.22669034401E+03  0.00000000000E+00 0. -1.
          1   -1    0    0  501    0 -0.00000000000E+00 -0.00000000000E+00 -0.19683127917E+04  0.19683127917E+04  0.00000000000E+00 0. -1.
         25    2    1    2    0    0  0.79219042751E+02 -0.40812158046E+02 -0.50648303339E+02  0.16165288188E+03  0.12500045844E+03 0.  0.
          2    1    1    2  501    0 -0.50927272867E+02 -0.24351462747E+02 -0.18543440072E+04  0.18552030288E+04  0.00000000000E+00 0. -1.
          1    1    1    2  502    0 -0.28291769884E+02  0.65163620793E+02  0.16336986284E+03  0.17814722508E+03  0.00000000000E+00 0. -1.
         22    1    3    3    0    0  0.45217268508E+02  0.24557067924E+02  0.23988577233E+02  0.56772377033E+02  0.00000000000E+00 0.  1.
         22    1    3    3    0    0  0.34001774243E+02 -0.65369225971E+02 -0.74636880573E+02  0.10488050485E+03  0.00000000000E+00 0.  1.
</event>
<event>
 7    1  0.5957303E-006  0.1064597E+03  0.7818608E-02  0.1402522E+00
          2   -1    0    0  502    0  0.00000000000E+00  0.00000000000E+00  0.12924888475E+04  0.12924888475E+04  0.00000000000E+00 0. -1.
          1   -1    0    0  501    0 -0.00000000000E+00 -0.00000000000E+00 -0.20302178404E+03  0.20302178404E+03  0.00000000000E+00 0. -1.
         25    2    1    2    0    0 -0.28607269544E+02  0.10840248184E+03 -0.13270007060E+03  0.21401746768E+03  0.12499877517E+03 0.  0.
          2    1    1    2  501    0 -0.22045196577E+01 -0.97805311909E+02  0.51847290817E+02  0.11071982889E+03  0.00000000000E+00 0. -1.
          1    1    1    2  502    0  0.30811789202E+02 -0.10597169934E+02  0.11703198433E+04  0.11707733350E+04  0.00000000000E+00 0. -1.
         22    1    3    3    0    0 -0.70409484314E+02  0.30371429799E+02 -0.80838736869E+02  0.11142181388E+03  0.00000000000E+00 0. -1.
         22    1    3    3    0    0  0.41802214770E+02  0.78031052045E+02 -0.51861333734E+02  0.10259565380E+03  0.00000000000E+00 0. -1.
</event>
<event>
 7    1  0.5957303E-006  0.1528893E+03  0.7818608E-02  0.1352653E+00
          2   -1    0    0  502    0  0.00000000000E+00  0.00000000000E+00  0.40478690262E+03  0.40478690262E+03  0.00000000000E+00 0. -1.
          1   -1    0    0  501    0 -0.00000000000E+00 -0.00000000000E+00 -0.46443725086E+03  0.46443725086E+03  0.00000000000E+00 0. -1.
         25    2    1    2    0    0 -0.12768336270E+03  0.46937309768E+02  0.80432433243E+02  0.20149515478E+03  0.12499907568E+03 0.  0.
          2    1    1    2  501    0  0.13220457239E+03 -0.80765343001E+02 -0.38783730921E+03  0.41763485008E+03  0.00000000000E+00 0. -1.
          1    1    1    2  502    0 -0.45212096887E+01  0.33828033233E+02  0.24775452772E+03  0.25009414862E+03  0.00000000000E+00 0. -1.
         22    1    3    3    0    0 -0.14722628636E+03  0.21663909840E+02  0.81228051174E+02  0.16953731354E+03  0.00000000000E+00 0.  1.
         22    1    3    3    0    0  0.19542923651E+02  0.25273399928E+02 -0.79561793111E+00  0.31957841239E+02  0.00000000000E+00 0.  1.
</event>
<event>
 7    1  0.5957303E-006  0.8418255E+02  0.7818608E-02  0.1423439E+00
          2   -1    0    0  502    0  0.00000000000E+00  0.00000000000E+00  0.89137756517E+02  0.89137756517E+02  0.00000000000E+00 0. -1.
          1   -1    0    0  501    0 -0.00000000000E+00 -0.00000000000E+00 -0.13368229306E+04  0.13368229306E+04  0.00000000000E+00 0. -1.
         25    2    1    2    0    0 -0.10539742844E+03  0.21045570882E+02 -0.65668040217E+02  0.17742026459E+03  0.12495649165E+03 0.  0.
          2    1    1    2  501    0  0.74646123883E+02 -0.37811548796E+02 -0.12041856722E+04  0.12070894292E+04  0.00000000000E+00 0. -1.
          1    1    1    2  502    0  0.30751304557E+02  0.16765977914E+02  0.22168538381E+02  0.41450993249E+02  0.00000000000E+00 0. -1.
         22    1    3    3    0    0 -0.10694450074E+03 -0.32069973254E+02 -0.46135122142E+02  0.12080587287E+03  0.00000000000E+00 0.  1.
         22    1    3    3    0    0  0.15470723032E+01  0.53115544136E+02 -0.19532918075E+02  0.56614391723E+02  0.00000000000E+00 0.  1.
</event>
<event>
 7    1  0.5957303E-006  0.3225782E+02  0.7818608E-02  0.1576420E+00
          2   -1    0    0  502    0  0.00000000000E+00  0.00000000000E+00  0.56526294532E+03  0.56526294532E+03  0.00000000000E+00 0. -1.
          1   -1    0    0  501    0 -0.00000000000E+00 -0.00000000000E+00 -0.24820750751E+03  0.24820750751E+03  0.00000000000E+00 0. -1.
         25    2    1    2    0    0  0.47727265791E-01  0.32003861438E+01  0.30797217827E+02  0.12877475199E+03  0.12499689346E+03 0.  0.
          2    1    1    2  501    0  0.31369917633E+02  0.55341057304E+01 -0.19739284576E+03  0.19994657691E+03  0.00000000000E+00 0. -1.
          1    1    1    2  502    0 -0.31417644898E+02 -0.87344918742E+01  0.48365106575E+03  0.48474912394E+03  0.00000000000E+00 0. -1.
         22    1    3    3    0    0 -0.32951121639E+02  0.33385015155E+02  0.59400231858E+02  0.75688329344E+02  0.00000000000E+00 0. -1.
         22    1    3    3    0    0  0.32998848905E+02 -0.30184629011E+02 -0.28603014032E+02  0.53086422645E+02  0.00000000000E+00 0. -1.
</event>
<event>
 7    1  0.5957303E-006  0.1406761E+03  0.7818608E-02  0.1387959E+00
          2   -1    0    0  502    0  0.00000000000E+00  0.00000000000E+00  0.58913242133E+03  0.58913242133E+03  0.00000000000E+00 0. -1.
          1   -1    0    0  501    0 -0.00000000000E+00 -0.00000000000E+00 -0.12243444702E+04  0.12243444702E+04  0.00000000000E+00 0. -1.
         25    2    1    2    0    0 -0.15483190331E+03  0.52654547280E+02  0.84413209790E+02  0.22247763259E+03  0.12500114954E+03 0.  0.
          2    1    1    2  501    0  0.22741509262E+02 -0.15804854028E+02 -0.11443497037E+04  0.11446847662E+04  0.00000000000E+00 0. -1.
          1    1    1    2  502    0  0.13209039405E+03 -0.36849693251E+02  0.42472444510E+03  0.44631449266E+03  0.00000000000E+00 0. -1.
         22    1    3    3    0    0 -0.43977950184E+01 -0.30521621565E+02 -0.30354903289E+00  0.30838322360E+02  0.00000000000E+00 0. -1.
         22    1    3    3    0    0 -0.15043410829E+03  0.83176168845E+02  0.84716758823E+02  0.19163931023E+03  0.00000000000E+00 0. -1.
</event>
<event>
 7    1  0.5957303E-006  0.1888766E+03  0.7818608E-02  0.1276049E+00
          2   -1    0    0  502    0  0.00000000000E+00  0.00000000000E+00  0.24258257559E+03  0.24258257559E+03  0.00000000000E+00 0. -1.
          1   -1    0    0  501    0 -0.00000000000E+00 -0.00000000000E+00 -0.10699494346E+04  0.10699494346E+04  0.00000000000E+00 0. -1.
         25    2    1    2    0    0 -0.15698287898E+03 -0.12530142135E+03 -0.95542294258E+02  0.25514276566E+03  0.12500172156E+03 0.  0.
          2    1    1    2  501    0 -0.15400799881E+02  0.52939982224E+02 -0.83972356951E+03  0.84153163907E+03  0.00000000000E+00 0. -1.
          1    1    1    2  502    0  0.17238367886E+03  0.72361439128E+02  0.10789900476E+03  0.21585760546E+03  0.00000000000E+00 0. -1.
         22    1    3    3    0    0 -0.15035454642E+03 -0.13698460311E+03 -0.52517505996E+02  0.21006989207E+03  0.00000000000E+00 0.  1.
         22    1    3    3    0    0 -0.66283325587E+01  0.11683181762E+02 -0.43024788262E+02  0.45072873590E+02  0.00000000000E+00 0.  1.
</event>
<event>
 7    1  0.5957303E-006  0.1202841E+03  0.7818608E-02  0.1247974E+00
          2   -1    0    0  502    0  0.00000000000E+00  0.00000000000E+00  0.23907661590E+03  0.23907661590E+03  0.00000000000E+00 0. -1.
          1   -1    0    0  501    0 -0.00000000000E+00 -0.00000000000E+00 -0.13409177805E+04  0.13409177805E+04  0.00000000000E+00 0. -1.
         25    2    1    2    0    0  0.57855517576E+02 -0.99287782845E+02  0.13738896115E+03  0.21841788954E+03  0.12500129235E+03 0.  0.
          2    1    1    2  501    0 -0.94576488760E+02 -0.63620798355E+02 -0.11783183384E+04  0.11838185777E+04  0.00000000000E+00 0. -1.
          1    1    1    2  502    0  0.36720971184E+02  0.16290858120E+03 -0.60911787340E+02  0.17775792919E+03  0.00000000000E+00 0. -1.
         22    1    3    3    0    0  0.62732524943E+02 -0.12692476929E+03  0.11115983438E+03  0.18000493194E+03  0.00000000000E+00 0. -1.
         22    1    3    3    0    0 -0.48770073673E+01  0.27636986440E+02  0.26229126763E+02  0.38412957593E+02  0.00000000000E+00 0. -1.
</event>
<event>
 7    1  0.5957303E-006  0.1551478E+03  0.7818608E-02  0.1401277E+00
          2   -1    0    0  502    0  0.00000000000E+00  0.00000000000E+00  0.15069104900E+04  0.15069104900E+04  0.00000000000E+00 0. -1.
          1   -1    0    0  501    0 -0.00000000000E+00 -0.00000000000E+00 -0.19110364757E+03  0.19110364757E+03  0.00000000000E+00 0. -1.
         25    2    1    2    0    0 -0.94920251498E+02 -0.95160556566E+02  0.38832796476E+03  0.42952205697E+03  0.12500081415E+03 0.  0.
          2    1    1    2  501    0  0.11121368141E+03  0.11079169284E+03 -0.13422867090E+03  0.20654447033E+03  0.00000000000E+00 0. -1.
          1    1    1    2  502    0 -0.16293429908E+02 -0.15631136272E+02  0.10617075486E+04  0.10619476103E+04  0.00000000000E+00 0. -1.
         22    1    3    3    0    0 -0.12391357357E+03 -0.81821254720E+02  0.34594478753E+03  0.37646658213E+03  0.00000000000E+00 0.  1.
         22    1    3    3    0    0  0.28993322075E+02 -0.13339301846E+02  0.42383177233E+02  0.53055474845E+02  0.00000000000E+00 0.  1.
</event>
<event>
 7    1  0.5957303E-006  0.1983462E+03  0.7818608E-02  0.1163589E+00
          2   -1    0    0  502    0  0.00000000000E+00  0.00000000000E+00  0.11065752900E+04  0.11065752900E+04  0.00000000000E+00 0. -1.
          1   -1    0    0  501    0 -0.00000000000E+00 -0.00000000000E+00 -0.63595416221E+03  0.63595416221E+03  0.00000000000E+00 0. -1.
         25    2    1    2    0    0  0.14774250894E+03  0.28552296378E+03 -0.97557411567E+02  0.35846070259E+03  0.12500165980E+03 0.  0.
          2    1    1    2  501    0 -0.14202608630E+03 -0.11413968910E+03 -0.37951404806E+03  0.42098716191E+03  0.00000000000E+00 0. -1.
          1    1    1    2  502    0 -0.57164226452E+01 -0.17138327468E+03  0.94769258747E+03  0.96308158775E+03  0.00000000000E+00 0. -1.
         22    1    3    3    0    0  0.15286384028E+03  0.19885694945E+03 -0.39233389403E+02  0.25387142190E+03  0.00000000000E+00 0. -1.
         22    1    3    3    0    0 -0.51213313397E+01  0.86666014331E+02 -0.58324022164E+02  0.10458928069E+03  0.00000000000E+00 0. -1.
</event>
<event>
 7    1  0.5957303E-006  0.7440410E+02  0.7818608E-02  0.1419788E+00
          2   -1    0    0  502    0  0.00000000000E+00  0.00000000000E+00  0.60602633233E+03  0.60602633233E+03  0.00000000000E+00 0. -1.
          1   -1    0    0  501    0 -0.00000000000E+00 -0.00000000000E+00 -0.11966080761E+04  0.11966080761E+04  0.00000000000E+00 0. -1.
         25    2    1    2    0    0  0.61782797552E+02 -0.69878846740E+02 -0.10844510638E+03  0.18996298679E+03  0.12500171183E+03 0.  0.
          2    1    1    2  501    0 -0.40732487825E+02 -0.13099369103E+01 -0.10445676451E+04  0.10453623375E+04  0.00000000000E+00 0. -1.
          1    1    1    2  502    0 -0.21050309726E+02  0.71188783650E+02  0.56243100773E+03  0.56730908411E+03  0.00000000000E+00 0. -1.
         22    1    3    3    0    0 -0.67479260977E+01  0.23633379399E+02 -0.59017862489E+02  0.63931050525E+02  0.00000000000E+00 0. -1.
         22    1    3    3    0    0  0.68530723649E+02 -0.93512226139E+02 -0.49427243887E+02  0.12603193627E+03  0.00000000000E+00 0. -1.
</event>
<event>
 7    1  0.5957303E-006  0.5237768E+02  0.7818608E-02  0.1444573E+00
          2   -1    0    0  502    0  0.00000000000E+00  0.00000000000E+00  0.17533753408E+04  0.17533753408E+04  0.00000000000E+00 0. -1.
          1   -1    0    0  501    0 -0.00000000000E+00 -0.00000000000E+00 -0.56881867464E+03  0.56881867464E+03  0.00000000000E+00 0. -1.
         25    2    1    2    0    0  0.79712500918E+02 -0.47476993031E+02  0.63927069985E+03  0.65795177332E+03  0.12500144264E+03 0.  0.
          2    1    1    2  501    0 -0.30651649198E+02  0.36943083624E+02 -0.55787709434E+03  0.55993853896E+03  0.00000000000E+00 0. -1.
          1    1    1    2  502    0 -0.49060851720E+02  0.10533909406E+02  0.11031630606E+04  0.11043037031E+04  0.00000000000E+00 0. -1.
         22    1    3    3    0    0  0.49651261860E+02 -0.68900339680E+02  0.59157503563E+03  0.59763996468E+03  0.00000000000E+00 0. -1.
         22    1    3    3    0    0  0.30061239059E+02  0.21423346649E+02  0.47695664225E+02  0.60311808638E+02  0.00000000000E+00 0. -1.
</event>
<event>
 7    1  0.5957303E-006  0.2368403E+03  0.7818608E-02  0.1187477E+00
          2   -1    0    0  502    0  0.00000000000E+00  0.00000000000E+00  0.98426138672E+03  0.98426138672E+03  0.00000000000E+00 0. -1.
          1   -1    0    0  501    0 -0.00000000000E+00 -0.00000000000E+00 -0.52144289975E+03  0.52144289975E+03  0.00000000000E+00 0. -1.
         25    2    1    2    0    0  0.18477574677E+03 -0.11918712711E+03 -0.40952873172E+02  0.25622171546E+03  0.12499912715E+03 0.  0.
          2    1    1    2  501    0 -0.24826287542E+03  0.29895731768E+02 -0.32692506955E+03  0.41159228757E+03  0.00000000000E+00 0. -1.
          1    1    1    2  502    0  0.63487128649E+02  0.89291395339E+02  0.83069642969E+03  0.83789028344E+03  0.00000000000E+00 0. -1.
         22    1    3    3    0    0  0.13529241182E+03 -0.13802471333E+03 -0.55916565192E+02  0.20120019992E+03  0.00000000000E+00 0.  1.
         22    1    3    3    0    0  0.49483334951E+02  0.18837586227E+02  0.14963692020E+02  0.55021515533E+02  0.00000000000E+00 0.  1.
</event>
<event>
 7    1  0.5957303E-006  0.1646584E+03  0.7818608E-02  0.1219227E+00
          2   -1    0    0  502    0  0.00000000000E+00  0.00000000000E+00  0.21927660568E+03  0.21927660568E+03  0.00000000000E+00 0. -1.
          1   -1    0    0  501    0 -0.00000000000E+00 -0.00000000000E+00 -0.12510482356E+04  0.12510482356E+04  0.00000000000E+00 0. -1.
         25    2    1    2    0    0  0.64148885192E+02  0.13424208151E+03  0.14593974070E+02  0.19486984948E+03  0.12500103295E+03 0.  0.
          2    1    1    2  501    0  0.10509483795E+03 -0.38264316011E+02 -0.10732326643E+04  0.10790446861E+04  0.00000000000E+00 0. -1.
          1    1    1    2  502    0 -0.16924372315E+03 -0.95977765497E+02  0.26867060238E+02  0.19641030579E+03  0.00000000000E+00 0. -1.
         22    1    3    3    0    0 -0.34682957480E+02  0.64915228175E+02  0.53238625102E+01  0.73791855246E+02  0.00000000000E+00 0. -1.
         22    1    3    3    0    0  0.98831842672E+02  0.69326853333E+02  0.92701115595E+01  0.12107799423E+03  0.00000000000E+00 0. -1.
</event>
<event>
 7    1  0.5957303E-006  0.3614121E+02  0.7818608E-02  0.1557272E+00
          2   -1    0    0  502    0  0.00000000000E+00  0.00000000000E+00  0.10551075006E+03  0.10551075006E+03  0.00000000000E+00 0. -1.
          1   -1    0    0  501    0 -0.00000000000E+00 -0.00000000000E+00 -0.16723203957E+04  0.16723203957E+04  0.00000000000E+00 0. -1.
         25    2    1    2    0    0  0.57373898430E+02 -0.15206878502E+02 -0.13154386878E+03  0.19088769023E+03  0.12494521797E+03 0.  0.
          2    1    1    2  501    0 -0.26616152234E+02  0.24271278237E+02 -0.15074903944E+04  0.15079206888E+04  0.00000000000E+00 0. -1.
          1    1    1    2  502    0 -0.30757746196E+02 -0.90643997353E+01  0.72224617497E+02  0.79022766759E+02  0.00000000000E+00 0. -1.
         22    1    3    3    0    0  0.71819097060E+02 -0.50805476277E+02 -0.12351248136E+03  0.15163941497E+03  0.00000000000E+00 0. -1.
         22    1    3    3    0    0 -0.14445198630E+02  0.35598597775E+02 -0.80313874207E+01  0.39248275260E+02  0.00000000000E+00 0. -1.
</event>
<event>
 7    1  0.5957303E-006  0.9874178E+02  0.7818608E-02  0.1385694E+00
          2   -1    0    0  502    0  0.00000000000E+00  0.00000000000E+00  0.67192250616E+03  0.67192250616E+03  0.00000000000E+00 0. -1.
          1   -1    0    0  501    0 -0.00000000000E+00 -0.00000000000E+00 -0.97927086387E+03  0.97927086387E+03  0.00000000000E+00 0. -1.
         25    2    1    2    0    0 -0.42500721760E+02 -0.11535203033E+03 -0.12181044590E+02  0.17574423433E+03  0.12500102320E+03 0.  0.
          2    1    1    2  501    0  0.63063747447E+01  0.97896922646E+02 -0.88190133152E+03  0.88734071042E+03  0.00000000000E+00 0. -1.
          1    1    1    2  502    0  0.36194347015E+02  0.17455107687E+02  0.58673401840E+03  0.58810842529E+03  0.00000000000E+00 0. -1.
         22    1    3    3    0    0  0.98803368911E+00 -0.10818166223E+03  0.32519758770E+02  0.11296806170E+03  0.00000000000E+00 0.  1.
         22    1    3    3    0    0 -0.43488755449E+02 -0.71703681063E+01 -0.44700803360E+02  0.62776172632E+02  0.00000000000E+00 0.  1.
</event>
<event>
 7    1  0.5957303E-006  0.9019464E+02  0.7818608E-02  0.1469687E+00
          2   -1    0    0  502    0  0.00000000000E+00  0.00000000000E+00  0.22539553357E+04  0.22539553357E+04  0.00000000000E+00 0. -1.
          1   -1    0    0  501    0 -0.00000000000E+00 -0.00000000000E+00 -0.85498525508E+02  0.85498525508E+02  0.00000000000E+00 0. -1.
         25    2    1    2    0    0  0.39741926501E+02 -0.56201172855E+02  0.14737216003E+04  0.14806142416E+04  0.12500073875E+03 0.  0.
          2    1    1    2  501    0 -0.44380081290E+02  0.78943372476E+02 -0.56829251912E+02  0.10691684407E+03  0.00000000000E+00 0. -1.
          1    1    1    2  502    0  0.46381547895E+01 -0.22742199621E+02  0.75156446181E+03  0.75192277555E+03  0.00000000000E+00 0. -1.
         22    1    3    3    0    0 -0.34412201587E+02 -0.32480876917E+02  0.25133824085E+03  0.25575401912E+03  0.00000000000E+00 0. -1.
         22    1    3    3    0    0  0.74154128088E+02 -0.23720295938E+02  0.12223833594E+04  0.12248602224E+04  0.00000000000E+00 0. -1.
</event>
<event>
 7    1  0.5957303E-006  0.8707728E+02  0.7818608E-02  0.1317572E+00
          2   -1    0    0  502    0  0.00000000000E+00  0.00000000000E+00  0.13477750854E+04  0.13477750854E+04  0.00000000000E+00 0. -1.
          1   -1    0    0  501    0 -0.00000000000E+00 -0.00000000000E+00 -0.45850709370E+02  0.45850709370E+02  0.00000000000E+00 0. -1.
         25    2    1    2    0    0  0.82689058999E+02  0.22825184779E+01  0.37280645756E+03  0.40179483675E+03  0.12494697145E+03 0.  0.
          2    1    1    2  501    0 -0.52347118618E+02 -0.77808236373E+02  0.45074021376E+02  0.10404811328E+03  0.00000000000E+00 0. -1.
          1    1    1    2  502    0 -0.30341940381E+02  0.75525717895E+02  0.88404389711E+03  0.88778284474E+03  0.00000000000E+00 0. -1.
         22    1    3    3    0    0  0.83627441598E+02  0.40064089033E+02  0.33774254551E+03  0.35024092746E+03  0.00000000000E+00 0. -1.
         22    1    3    3    0    0 -0.93838259869E+00 -0.37781570555E+02  0.35063912048E+02  0.51553909295E+02  0.00000000000E+00 0. -1.
</event>
<event>
 7    1  0.5957303E-006  0.4911559E+02  0.7818608E-02  0.1457736E+00
          2   -1    0    0  502    0  0.00000000000E+00  0.00000000000E+00  0.40595048568E+03  0.40595048568E+03  0.00000000000E+00 0. -1.
          1   -1    0    0  501    0 -0.00000000000E+00 -0.00000000000E+00 -0.17507422913E+03  0.17507422913E+03  0.00000000000E+00 0. -1.
         25    2    1    2    0    0 -0.94028059330E+02  0.69846157261E+01 -0.55416800351E+02  0.16608856774E+03  0.12499731906E+03 0.  0.
          2    1    1    2  501    0  0.45635339229E+02 -0.87555028848E+01 -0.53985167084E+02  0.71229497278E+02  0.00000000000E+00 0. -1.
          1    1    1    2  502    0  0.48392720101E+02  0.17708871587E+01  0.34027822398E+03  0.34370664980E+03  0.00000000000E+00 0. -1.
         22    1    3    3    0    0 -0.16698882993E+02  0.44117477033E+02 -0.64409401519E+02  0.79835928485E+02  0.00000000000E+00 0. -1.
         22    1    3    3    0    0 -0.77329176338E+02 -0.37132861307E+02  0.89926011687E+01  0.86252639251E+02  0.00000000000E+00 0. -1.
</event>
<event>
 7    1  0.5957303E-006  0.9562099E+02  0.7818608E-02  0.1375910E+00
          2   -1    0    0  502    0  0.00000000000E+00  0.00000000000E+00  0.12403251621E+04  0.12403251621E+04  0.00000000000E+00 0. -1.
          1   -1    0    0  501    0 -0.00000000000E+00 -0.00000000000E+00 -0.19576613362E+03  0.19576613362E+03  0.00000000000E+00 0. -1.
         25    2    1    2    0    0  0.70084515481E+02  0.20167959907E+01  0.42542373716E+02  0.14950821911E+03  0.12500778873E+03 0.  0.
          2    1    1    2  501    0 -0.94878957154E+02  0.35461221162E+02 -0.12375140239E+03  0.15991849271E+03  0.00000000000E+00 0. -1.
          1    1    1    2  502    0  0.24794441673E+02 -0.37478017153E+02  0.11257680571E+04  0.11266645839E+04  0.00000000000E+00 0. -1.
         22    1    3    3    0    0  0.17122159586E+02 -0.55774373968E+01 -0.44123716263E+02  0.47656882962E+02  0.00000000000E+00 0. -1.
         22    1    3    3    0    0  0.52962355895E+02  0.75942333875E+01  0.86666089978E+02  0.10185133615E+03  0.00000000000E+00 0. -1.
</event>
<event>
 7    1  0.5957303E-006  0.8612543E+02  0.7818608E-02  0.1350756E+00
          2   -1    0    0  502    0  0.00000000000E+00  0.00000000000E+00  0.69651702316E+02  0.69651702316E+02  0.00000000000E+00 0. -1.
          1   -1    0    0  501    0 -0.00000000000E+00 -0.00000000000E+00 -0.46508751020E+03  0.46508751020E+03  0.00000000000E+00 0. -1.
         25    2    1    2    0    0  0.50574792344E+02 -0.17484880885E+02 -0.10113859637E+03  0.16945757037E+03  0.12499328702E+03 0.  0.
          2    1    1    2  501    0  0.39587001544E+02 -0.47158180121E+02 -0.22771974728E+03  0.23589681631E+03  0.00000000000E+00 0. -1.
          1    1    1    2  502    0 -0.90161793888E+02  0.64643061005E+02 -0.66577464231E+02  0.12938482584E+03  0.00000000000E+00 0. -1.
         22    1    3    3    0    0  0.55789446111E+02 -0.62946973802E+02 -0.88258121643E+02  0.12191915290E+03  0.00000000000E+00 0.  1.
         22    1    3    3    0    0 -0.52146537671E+01  0.45462092918E+02 -0.12880474730E+02  0.47538417471E+02  0.00000000000E+00 0.  1.
</event>
<event>
 7    1  0.5957303E-006  0.9742133E+02  0.7818608E-02  0.1306319E+00
          2   -1    0    0  502    0  0.00000000000E+00  0.00000000000E+00  0.11222615706E+04  0.11222615706E+04  0.00000000000E+00 0. -1.
          1   -1    0    0  501    0 -0.00000000000E+00 -0.00000000000E+00 -0.44620818703E+03  0.44620818703E+03  0.00000000000E+00 0. -1.
         25    2    1    2    0    0  0.52688054817E+02 -0.10416421870E+03 -0.97125291095E+02  0.19668394343E+03  0.12500014341E+03 0.  0.
          2    1    1    2  501    0 -0.92521572202E+02  0.34155780669E+02 -0.28961345647E+03  0.30594576781E+03  0.00000000000E+00 0. -1.
          1    1    1    2  502    0  0.39833517385E+02  0.70008438035E+02  0.10627921311E+04  0.10658400464E+04  0.00000000000E+00 0. -1.
         22    1    3    3    0    0  0.84009934981E+02 -0.57175985926E+02 -0.24221803905E+02  0.10446749890E+03  0.00000000000E+00 0. -1.
         22    1    3    3    0    0 -0.31321880164E+02 -0.46988232778E+02 -0.72903487190E+02  0.92216444526E+02  0.00000000000E+00 0. -1.
</event>
<event>
 7    1  0.5957303E-006  0.7439478E+02  0.7818608E-02  0.1486749E+00
          2   -1    0    0  502    0  0.00000000000E+00  0.00000000000E+00  0.75788531797E+03  0.75788531797E+03  0.00000000000E+00 0. -1.
          1   -1    0    0  501    0 -0.00000000000E+00 -0.00000000000E+00 -0.66243959320E+02  0.66243959320E+02  0.00000000000E+00 0. -1.
         25    2    1    2    0    0  0.11234364323E+02  0.57550953785E+02  0.19037908948E+03  0.23517597109E+03  0.12500086578E+03 0.  0.
          2    1    1    2  501    0  0.22258163470E+02  0.11244870691E+02 -0.37362854788E+02  0.44920550707E+02  0.00000000000E+00 0. -1.
          1    1    1    2  502    0 -0.33492527794E+02 -0.68795824476E+02  0.53862512396E+03  0.54403275549E+03  0.00000000000E+00 0. -1.
         22    1    3    3    0    0  0.52117386722E+01  0.88491512794E+02  0.76743700174E+02  0.11724975724E+03  0.00000000000E+00 0. -1.
         22    1    3    3    0    0  0.60226256512E+01 -0.30940559009E+02  0.11363538931E+03  0.11792621385E+03  0.00000000000E+00 0. -1.
</event>
<event>
 7    1  0.5957303E-006  0.2187736E+03  0.7818608E-02  0.1298139E+00
          2   -1    0    0  502    0  0.00000000000E+00  0.00000000000E+00  0.10700733193E+04  0.10700733193E+04  0.00000000000E+00 0. -1.
          1   -1    0    0  501    0 -0.00000000000E+00 -0.00000000000E+00 -0.15876583569E+04  0.15876583569E+04  0.00000000000E+00 0. -1.
         25    2    1    2    0    0 -0.20519209433E+03 -0.47688276462E+02 -0.37677781842E+03  0.44940418671E+03  0.12499852516E+03 0.  0.
          2    1    1    2  501    0 -0.13596979915E+02  0.36197608395E+02 -0.11626340568E+04  0.11632768780E+04  0.00000000000E+00 0. -1.
          1    1    1    2  502    0  0.21878907425E+03  0.11490668067E+02  0.10218268377E+04  0.10450506115E+04  0.00000000000E+00 0. -1.
         22    1    3    3    0    0 -0.72119126914E+02 -0.54014533629E+02 -0.24902850622E+03  0.26482812392E+03  0.00000000000E+00 0.  1.
         22    1    3    3    0    0 -0.13307296742E+03  0.63262571665E+01 -0.12774931220E+03  0.18457606279E+03  0.00000000000E+00 0.  1.
</event>
<event>
 7    1  0.5957303E-006  0.7799883E+02  0.7818608E-02  0.1340802E+00
          2   -1    0    0  502    0  0.00000000000E+00  0.00000000000E+00  0.18547565055E+03  0.18547565055E+03  0.00000000000E+00 0. -1.
          1   -1    0    0  501    0 -0.00000000000E+00 -0.00000000000E+00 -0.78533263889E+03  0.78533263889E+03  0.00000000000E+00 0. -1.
         25    2    1    2    0    0  0.31848482163E+02 -0.29824679682E+02 -0.39346799804E+03  0.41514562023E+03  0.12499993272E+03 0.  0.
          2    1    1    2  501    0 -0.10470959381E+03  0.16596721286E+02 -0.36528476556E+03  0.38035839697E+03  0.00000000000E+00 0. -1.
          1    1    1    2  502    0  0.72861111647E+02  0.13227958396E+02  0.15889577525E+03  0.17530427225E+03  0.00000000000E+00 0. -1.
         22    1    3    3    0    0 -0.45744509933E+02 -0.13263656835E+02 -0.94433807225E+02  0.10576496929E+03  0.00000000000E+00 0.  1.
         22    1    3    3    0    0  0.77592992095E+02 -0.16561022847E+02 -0.29903419081E+03  0.30938065094E+03  0.00000000000E+00 0.  1.
</event>
<event>
 7    1  0.5957303E-006  0.5617496E+02  0.7818608E-02  0.1483113E+00
          2   -1    0    0  502    0  0.00000000000E+00  0.00000000000E+00  0.76262263661E+03  0.76262263661E+03  0.00000000000E+00 0. -1.
          1   -1    0    0  501    0 -0.00000000000E+00 -0.00000000000E+00 -0.48480985772E+02  0.48480985772E+02  0.00000000000E+00 0. -1.
         25    2    1    2    0    0  0.29965491110E+01 -0.36395065656E+02  0.42826031969E+03  0.44762262352E+03  0.12500212622E+03 0.  0.
          2    1    1    2  501    0  0.27942371637E+02  0.50199341312E+02 -0.16052346699E+02  0.59652559336E+02  0.00000000000E+00 0. -1.
          1    1    1    2  502    0 -0.30938920748E+02 -0.13804275655E+02  0.30193367785E+03  0.30382843952E+03  0.00000000000E+00 0. -1.
         22    1    3    3    0    0 -0.32485064012E+02 -0.83265353578E+01  0.37998336751E+03  0.38146031269E+03  0.00000000000E+00 0.  1.
         22    1    3    3    0    0  0.35481613123E+02 -0.28068530298E+02  0.48276952177E+02  0.66162310831E+02  0.00000000000E+00 0.  1.
</event>
<event>
 7    1  0.5957303E-006  0.4431393E+02  0.7818608E-02  0.1544563E+00
          2   -1    0    0  502    0  0.00000000000E+00  0.00000000000E+00  0.57353163115E+03  0.57353163115E+03  0.00000000000E+00 0. -1.
          1   -1    0    0  501    0 -0.00000000000E+00 -0.00000000000E+00 -0.24139439468E+03  0.24139439468E+03  0.00000000000E+00 0. -1.
         25    2    1    2    0    0 -0.13605090682E+02  0.26610273085E+02 -0.78585878560E+02  0.15065543608E+03  0.12501245932E+03 0.  0.
          2    1    1    2  501    0  0.22778424116E+02  0.16917047827E+02 -0.12425142006E+03  0.12744982738E+03  0.00000000000E+00 0. -1.
          1    1    1    2  502    0 -0.91733334339E+01 -0.43527320913E+02  0.53497453510E+03  0.53682076237E+03  0.00000000000E+00 0. -1.
         22    1    3    3    0    0  0.42853244093E+02  0.51230754430E+02 -0.37226369667E+02  0.76464327156E+02  0.00000000000E+00 0. -1.
         22    1    3    3    0    0 -0.56458334776E+02 -0.24620481344E+02 -0.41359508894E+02  0.74191108923E+02  0.00000000000E+00 0. -1.
</event>
<event>
 7    1  0.5957303E-006  0.6031060E+02  0.7818608E-02  0.1509684E+00
          2   -1    0    0  502    0  0.00000000000E+00  0.00000000000E+00  0.31122220333E+03  0.31122220333E+03  0.00000000000E+00 0. -1.
          1   -1    0    0  501    0 -0.00000000000E+00 -0.00000000000E+00 -0.93996378615E+02  0.93996378615E+02  0.00000000000E+00 0. -1.
         25    2    1    2    0    0  0.45250166829E+01  0.35068945715E+02 -0.17093445884E+02  0.13102236759E+03  0.12499747272E+03 0.  0.
          2    1    1    2  501    0  0.36688555448E+01  0.26008061269E+02 -0.52869089037E+01  0.26792371260E+02  0.00000000000E+00 0. -1.
          1    1    1    2  502    0 -0.81938722278E+01 -0.61077006984E+02  0.23960617950E+03  0.24740384310E+03  0.00000000000E+00 0. -1.
         22    1    3    3    0    0 -0.52430266484E+02  0.26729002375E+02 -0.37690978745E+02  0.69885494133E+02  0.00000000000E+00 0. -1.
         22    1    3    3    0    0  0.56955283167E+02  0.83399433398E+01  0.20597532861E+02  0.61136873452E+02  0.00000000000E+00 0. -1.
</event>
<event>
 7    1  0.5957303E-006  0.8436057E+02  0.7818608E-02  0.1404903E+00
          2   -1    0    0  502    0  0.00000000000E+00  0.00000000000E+00  0.79867621177E+03  0.79867621177E+03  0.00000000000E+00 0. -1.
          1   -1    0    0  501    0 -0.00000000000E+00 -0.00000000000E+00 -0.38935864433E+03  0.38935864433E+03  0.00000000000E+00 0. -1.
         25    2    1    2    0    0  0.95599602056E+02 -0.75095622761E+02  0.37915772545E+03  0.41732843595E+03  0.12499522475E+03 0.  0.
          2    1    1    2  501    0 -0.72769018148E+02  0.41819725407E+02 -0.36447496012E+03  0.37401365749E+03  0.00000000000E+00 0. -1.
          1    1    1    2  502    0 -0.22830583908E+02  0.33275897353E+02  0.39463480212E+03  0.39669276266E+03  0.00000000000E+00 0. -1.
         22    1    3    3    0    0  0.81105239182E+02  0.21565410557E+01  0.27575726055E+03  0.28744525955E+03  0.00000000000E+00 0.  1.
         22    1    3    3    0    0  0.14494362874E+02 -0.77252163816E+02  0.10340046490E+03  0.12988317640E+03  0.00000000000E+00 0.  1.
</event>
<event>
 7    1  0.5957303E-006  0.7358771E+02  0.7818608E-02  0.1456735E+00
          2   -1    0    0  502    0  0.00000000000E+00  0.00000000000E+00  0.21901685440E+04  0.21901685440E+04  0.00000000000E+00 0. -1.
          1   -1    0    0  501    0 -0.00000000000E+00 -0.00000000000E+00 -0.18517288183E+03  0.18517288183E+03  0.00000000000E+00 0. -1.
         25    2    1    2    0    0 -0.96763889269E+02  0.38126000496E+01  0.29943490455E+03  0.33862120556E+03  0.12500109044E+03 0.  0.
          2    1    1    2  501    0  0.71579742865E+02  0.14675083540E+02 -0.15738128101E+03  0.17351623923E+03  0.00000000000E+00 0. -1.
          1    1    1    2  502    0  0.25184146405E+02 -0.18487683590E+02  0.18629420386E+04  0.18632039810E+04  0.00000000000E+00 0. -1.
         22    1    3    3    0    0  0.23447037045E+02  0.38524149460E+01  0.12204578103E+03  0.12433735285E+03  0.00000000000E+00 0.  1.
         22    1    3    3    0    0 -0.12021092631E+03 -0.39814896348E-01  0.17738912352E+03  0.21428385271E+03  0.00000000000E+00 0.  1.
</event>
<event>
 7    1  0.5957303E-006  0.2622693E+03  0.7818608E-02  0.1162474E+00
          2   -1    0    0  502    0  0.00000000000E+00  0.00000000000E+00  0.66450680696E+03  0.66450680696E+03  0.00000000000E+00 0. -1.
          1   -1    0    0  501    0 -0.00000000000E+00 -0.00000000000E+00 -0.81035021505E+03  0.81035021505E+03  0.00000000000E+00 0. -1.
         25    2    1    2    0    0  0.19562093780E+02  0.15469890543E+03  0.21082570692E+03  0.29049423270E+03  0.12499997473E+03 0.  0.
          2    1    1    2  501    0 -0.10961325493E+03 -0.25034741404E+03 -0.73484510644E+03  0.78401927516E+03  0.00000000000E+00 0. -1.
          1    1    1    2  502    0  0.90051161146E+02  0.95648508606E+02  0.37817599143E+03  0.40034351414E+03  0.00000000000E+00 0. -1.
         22    1    3    3    0    0  0.39571795113E+02  0.87149195099E+02  0.36439244895E+02  0.10241448991E+03  0.00000000000E+00 0. -1.
         22    1    3    3    0    0 -0.20009701333E+02  0.67549710330E+02  0.17438646202E+03  0.18807974280E+03  0.00000000000E+00 0. -1.
</event>
<event>
 7    1  0.5957303E-006  0.5827738E+02  0.7818608E-02  0.1432234E+00
          2   -1    0    0  502    0  0.00000000000E+00  0.00000000000E+00  0.63552770384E+03  0.63552770384E+03  0.00000000000E+00 0. -1.
          1   -1    0    0  501    0 -0.00000000000E+00 -0.00000000000E+00 -0.69203688353E+03  0.69203688353E+03  0.00000000000E+00 0. -1.
         25    2    1    2    0    0 -0.34068639741E+02  0.98802173799E+02 -0.36504573341E+02  0.16697435570E+03  0.12500123929E+03 0.  0.
          2    1    1    2  501    0  0.16487293945E+02 -0.54868651886E+02 -0.58792092201E+03  0.59070585773E+03  0.00000000000E+00 0. -1.
          1    1    1    2  502    0  0.17581345797E+02 -0.43933521913E+02  0.56791631566E+03  0.56988437394E+03  0.00000000000E+00 0. -1.
         22    1    3    3    0    0  0.19722833480E+02  0.16913375429E+02 -0.60724299067E+02  0.66049170517E+02  0.00000000000E+00 0. -1.
         22    1    3    3    0    0 -0.53791473222E+02  0.81888798370E+02  0.24219725726E+02  0.10092518518E+03  0.00000000000E+00 0. -1.
</event>
<event>
 7    1  0.5957303E-006  0.5721290E+02  0.7818608E-02  0.1536218E+00
          2   -1    0    0  502    0  0.00000000000E+00  0.00000000000E+00  0.18110225742E+04  0.18110225742E+04  0.00000000000E+00 0. -1.
          1   -1    0    0  501    0 -0.00000000000E+00 -0.00000000000E+00 -0.91122250936E+03  0.91122250936E+03  0.00000000000E+00 0. -1.
         25    2    1    2    0    0 -0.60411402748E+02 -0.45873713104E+02  0.92691010252E+03  0.93837094810E+03  0.12499505167E+03 0.  0.
          2    1    1    2  501    0  0.37350179097E+02  0.43317415841E+02 -0.90443533237E+03  0.90624207850E+03  0.00000000000E+00 0. -1.
          1    1    1    2  502    0  0.23061223651E+02  0.25562972626E+01  0.87732529470E+03  0.87763205697E+03  0.00000000000E+00 0. -1.
         22    1    3    3    0    0  0.28828283079E+02 -0.24437567602E+02  0.10978379916E+03  0.11610661985E+03  0.00000000000E+00 0. -1.
         22    1    3    3    0    0 -0.89239685828E+02 -0.21436145502E+02  0.81712630336E+03  0.82226432825E+03  0.00000000000E+00 0. -1.
</event>
<event>
 7    1  0.7401635E-006  0.7547002E+02  0.7818608E-02  0.1406661E+00
          2   -1    0    0  502    0  0.00000000000E+00  0.00000000000E+00  0.12488246286E+04  0.12488246286E+04  0.00000000000E+00 0. -1.
          1   -1    0    0  501    0 -0.00000000000E+00 -0.00000000000E+00 -0.89655249939E+03  0.89655249939E+03  0.00000000000E+00 0. -1.
         25    2    1    2    0    0 -0.11042418355E+02  0.31197898605E+02 -0.74419701877E+02  0.14919140040E+03  0.12499815217E+03 0.  0.
          2    1    1    2  501    0  0.34698685489E+01  0.44354847722E+02 -0.78292496975E+03  0.78418805191E+03  0.00000000000E+00 0. -1.
          1    1    1    2  502    0  0.75725498064E+01 -0.75552746327E+02  0.12096168008E+04  0.12119976756E+04  0.00000000000E+00 0. -1.
         22    1    3    3    0    0 -0.34975903259E+02 -0.31703818895E+02 -0.66319376383E+02  0.81404579878E+02  0.00000000000E+00 0. -1.
         22    1    3    3    0    0  0.23933484904E+02  0.62901717500E+02 -0.81003254938E+01  0.67786820527E+02  0.00000000000E+00 0. -1.
</event>
<event>
 7    1  0.5957303E-006  0.1402323E+03  0.7818608E-02  0.1428798E+00
          2   -1    0    0  502    0  0.00000000000E+00  0.00000000000E+00  0.43774002250E+03  0.43774002250E+03  0.00000000000E+00 0. -1.
          1   -1    0    0  501    0 -0.00000000000E+00 -0.00000000000E+00 -0.51183340801E+03  0.51183340801E+03  0.00000000000E+00 0. -1.
         25    2    1    2    0    0 -0.15788698109E+03  0.55706361619E+01 -0.17410715569E+01  0.20146583366E+03  0.12500447999E+03 0.  0.
          2    1    1    2  501    0  0.13816196516E+03 -0.12903722776E+01 -0.39827493999E+03  0.42156057868E+03  0.00000000000E+00 0. -1.
          1    1    1    2  502    0  0.19725015931E+02 -0.42802638843E+01  0.32592262604E+03  0.32654701817E+03  0.00000000000E+00 0. -1.
         22    1    3    3    0    0 -0.11177118935E+03  0.62380435259E+02  0.40621625962E+01  0.12806490010E+03  0.00000000000E+00 0. -1.
         22    1    3    3    0    0 -0.46115791738E+02 -0.56809799097E+02 -0.58032341531E+01  0.73400933561E+02  0.00000000000E+00 0. -1.
</event>
<event>
 7    1  0.5957303E-006  0.2964648E+03  0.7818608E-02  0.1203121E+00
          2   -1    0    0  502    0  0.00000000000E+00  0.00000000000E+00  0.24006632402E+03  0.24006632402E+03  0.00000000000E+00 0. -1.
          1   -1    0    0  501    0 -0.00000000000E+00 -0.00000000000E+00 -0.25802219370E+04  0.25802219370E+04  0.00000000000E+00 0. -1.
         25    2    1    2    0    0 -0.11464031982E+03 -0.20078979842E+03 -0.13381359707E+04  0.13637052576E+04  0.12500082929E+03 0.  0.
          2    1    1    2  501    0 -0.11735832130E+02 -0.72809959369E+02 -0.11276578870E+04  0.11300669582E+04  0.00000000000E+00 0. -1.
          1    1    1    2  502    0  0.12637615195E+03  0.27359975779E+03  0.12563824474E+03  0.32651604522E+03  0.00000000000E+00 0. -1.
         22    1    3    3    0    0 -0.39837321310E+02 -0.39282827305E+02 -0.66787476086E+03  0.67021403214E+03  0.00000000000E+00 0.  1.
         22    1    3    3    0    0 -0.74802998511E+02 -0.16150697112E+03 -0.67026120989E+03  0.69349122546E+03  0.00000000000E+00 0.  1.
</event>
<event>
 7    1  0.5957303E-006  0.8937568E+02  0.7818608E-02  0.1345878E+00
          2   -1    0    0  502    0  0.00000000000E+00  0.00000000000E+00  0.12045842898E+04  0.12045842898E+04  0.00000000000E+00 0. -1.
          1   -1    0    0  501    0 -0.00000000000E+00 -0.00000000000E+00 -0.13393247659E+03  0.13393247659E+03  0.00000000000E+00 0. -1.
         25    2    1    2    0    0 -0.12675294189E+03  0.36816593435E+02  0.27364668596E+02  0.18383665219E+03  0.12500127908E+03 0.  0.
          2    1    1    2  501    0  0.65371583966E+02 -0.44497204106E+02 -0.26275745647E+02  0.83329826430E+02  0.00000000000E+00 0. -1.
          1    1    1    2  502    0  0.61381357920E+02  0.76806106703E+01  0.10695628903E+04  0.10713502878E+04  0.00000000000E+00 0. -1.
         22    1    3    3    0    0 -0.33991875904E+02  0.11892415465E+02 -0.49222423410E+02  0.60989541230E+02  0.00000000000E+00 0. -1.
         22    1    3    3    0    0 -0.92761065983E+02  0.24924177970E+02  0.76587092006E+02  0.12284711096E+03  0.00000000000E+00 0. -1.
</event>
<event>
 7    1  0.5957303E-006  0.1117022E+03  0.7818608E-02  0.1319441E+00
          2   -1    0    0  502    0  0.00000000000E+00  0.00000000000E+00  0.63982766515E+03  0.63982766515E+03  0.00000000000E+00 0. -1.
          1   -1    0    0  501    0 -0.00000000000E+00 -0.00000000000E+00 -0.79787071359E+03  0.79787071359E+03  0.00000000000E+00 0. -1.
         25    2    1    2    0    0 -0.91684881635E+02 -0.54822091541E+02  0.32191045855E+02  0.16755576054E+03  0.12500836058E+03 0.  0.
          2    1    1    2  501    0  0.41200922273E+02 -0.46859354481E+02 -0.72286241830E+03  0.72555040548E+03  0.00000000000E+00 0. -1.
          1    1    1    2  502    0  0.50483959363E+02  0.10168144602E+03  0.53262832401E+03  0.54459221272E+03  0.00000000000E+00 0. -1.
         22    1    3    3    0    0 -0.11124934327E+03 -0.75642268845E+02  0.34529746714E+02  0.13889014588E+03  0.00000000000E+00 0. -1.
         22    1    3    3    0    0  0.19564461638E+02  0.20820177304E+02 -0.23387008594E+01  0.28665614660E+02  0.00000000000E+00 0. -1.
</event>
<event>
 7    1  0.5957303E-006  0.8470283E+02  0.7818608E-02  0.1410196E+00
          2   -1    0    0  502    0  0.00000000000E+00  0.00000000000E+00  0.18594844932E+04  0.18594844932E+04  0.00000000000E+00 0. -1.
          1   -1    0    0  501    0 -0.00000000000E+00 -0.00000000000E+00 -0.47021445020E+03  0.47021445020E+03  0.00000000000E+00 0. -1.
         25    2    1    2    0    0  0.47766922439E+02 -0.60349716848E+02 -0.12806398674E+02  0.14735151491E+03  0.12499879157E+03 0.  0.
          2    1    1    2  501    0 -0.31031801499E+02 -0.22888910749E+02 -0.38817413600E+03  0.39008465081E+03  0.00000000000E+00 0. -1.
          1    1    1    2  502    0 -0.16735120941E+02  0.83238627597E+02  0.17902505776E+04  0.17922627776E+04  0.00000000000E+00 0. -1.
         22    1    3    3    0    0  0.85563931602E+02 -0.65970457371E+02 -0.38931566143E+01  0.10811310885E+03  0.00000000000E+00 0.  1.
         22    1    3    3    0    0 -0.37797009163E+02  0.56207405232E+01 -0.89132420595E+01  0.39238406054E+02  0.00000000000E+00 0.  1.
</event>
<event>
 7    1  0.5957303E-006  0.6099396E+02  0.7818608E-02  0.1519275E+00
          2   -1    0    0  502    0  0.00000000000E+00  0.00000000000E+00  0.44164527274E+03  0.44164527274E+03  0.00000000000E+00 0. -1.
          1   -1    0    0  501    0 -0.00000000000E+00 -0.00000000000E+00 -0.57749554651E+03  0.57749554651E+03  0.00000000000E+00 0. -1.
         25    2    1    2    0    0 -0.68571784064E+02  0.91489585829E+01 -0.42637978106E+03  0.44967786983E+03  0.12499870361E+03 0.  0.
          2    1    1    2  501    0  0.51592323173E+02 -0.26597046685E+02 -0.13306262595E+03  0.14517173667E+03  0.00000000000E+00 0. -1.
          1    1    1    2  502    0  0.16979460891E+02  0.17448088102E+02  0.42359213324E+03  0.42429121275E+03  0.00000000000E+00 0. -1.
         22    1    3    3    0    0 -0.25693858417E+02 -0.38518307383E+02 -0.51084375330E+02  0.68945251953E+02  0.00000000000E+00 0. -1.
         22    1    3    3    0    0 -0.42877925647E+02  0.47667265966E+02 -0.37529540573E+03  0.38073261788E+03  0.00000000000E+00 0. -1.
</event>
<event>
 7    1  0.5957303E-006  0.7498717E+02  0.7818608E-02  0.1369546E+00
          2   -1    0    0  502    0  0.00000000000E+00  0.00000000000E+00  0.11356230535E+04  0.11356230535E+04  0.00000000000E+00 0. -1.
          1   -1    0    0  501    0 -0.00000000000E+00 -0.00000000000E+00 -0.93591480304E+02  0.93591480304E+02  0.00000000000E+00 0. -1.
         25    2    1    2    0    0  0.28719771414E+02 -0.53418183164E+01  0.76778001186E+03  0.77843757668E+03  0.12500221551E+03 0.  0.
          2    1    1    2  501    0 -0.40431587189E+02  0.64584786262E+02 -0.68672631918E+02  0.10257601198E+03  0.00000000000E+00 0. -1.
          1    1    1    2  502    0  0.11711815774E+02 -0.59242967946E+02  0.34292419322E+03  0.34820094511E+03  0.00000000000E+00 0. -1.
         22    1    3    3    0    0 -0.10777774643E+02 -0.23529604010E+02  0.31033430304E+02  0.40408866447E+02  0.00000000000E+00 0.  1.
         22    1    3    3    0    0  0.39497546058E+02  0.18187785694E+02  0.73674658156E+03  0.73802871024E+03  0.00000000000E+00 0.  1.
</event>
<event>
 7    1  0.5957303E-006  0.8140543E+02  0.7818608E-02  0.1329980E+00
          2   -1    0    0  502    0  0.00000000000E+00  0.00000000000E+00  0.28960062592E+04  0.28960062592E+04  0.00000000000E+00 0. -1.
          1   -1    0    0  501    0 -0.00000000000E+00 -0.00000000000E+00 -0.10595251163E+04  0.10595251163E+04  0.00000000000E+00 0. -1.
         25    2    1    2    0    0  0.59005109829E+02 -0.25230136977E+02  0.12888795075E+04  0.12965164136E+04  0.12500505223E+03 0.  0.
          2    1    1    2  501    0 -0.48391200629E+01  0.81325713554E+02 -0.10531844093E+04  0.10563307668E+04  0.00000000000E+00 0. -1.
          1    1    1    2  502    0 -0.54165989766E+02 -0.56095576577E+02  0.16007860448E+04  0.16026841951E+04  0.00000000000E+00 0. -1.
         22    1    3    3    0    0  0.27479114095E+02 -0.29288075121E+02  0.12199513916E+04  0.12206122607E+04  0.00000000000E+00 0. -1.
         22    1    3    3    0    0  0.31525995733E+02  0.40579381439E+01  0.68928115901E+02  0.75904152921E+02  0.00000000000E+00 0. -1.
</event>
<event>
 7    1  0.5957303E-006  0.1231183E+03  0.7818608E-02  0.1238396E+00
          2   -1    0    0  502    0  0.00000000000E+00  0.00000000000E+00  0.30250189752E+03  0.30250189752E+03  0.00000000000E+00 0. -1.
          1   -1    0    0  501    0 -0.00000000000E+00 -0.00000000000E+00 -0.84321563332E+03  0.84321563332E+03  0.00000000000E+00 0. -1.
         25    2    1    2    0    0 -0.20181885176E+02  0.12774471685E+03  0.15114306955E+02  0.18049830523E+03  0.12500069898E+03 0.  0.
          2    1    1    2  501    0 -0.94378691108E+02 -0.82644893154E+02 -0.73621214912E+03  0.74682383747E+03  0.00000000000E+00 0. -1.
          1    1    1    2  502    0  0.11456057628E+03 -0.45099823692E+02  0.18038410637E+03  0.21839538815E+03  0.00000000000E+00 0. -1.
         22    1    3    3    0    0  0.10683400902E+02  0.10595709942E+03  0.59677302329E+02  0.12207547823E+03  0.00000000000E+00 0.  1.
         22    1    3    3    0    0 -0.30865286078E+02  0.21787617430E+02 -0.44562995375E+02  0.58422827000E+02  0.00000000000E+00 0.  1.
</event>
<event>
 7    1  0.5957303E-006  0.3869558E+02  0.7818608E-02  0.1611539E+00
          2   -1    0    0  502    0  0.00000000000E+00  0.00000000000E+00  0.13919052837E+02  0.13919052837E+02  0.00000000000E+00 0. -1.
          1   -1    0    0  501    0 -0.00000000000E+00 -0.00000000000E+00 -0.25401254412E+04  0.25401254412E+04  0.00000000000E+00 0. -1.
         25    2    1    2    0    0  0.42631042602E+01 -0.34115473512E+02 -0.11689413257E+04  0.11761082772E+04  0.12499926887E+03 0.  0.
          2    1    1    2  501    0  0.17151232793E+02  0.35532872399E+02 -0.13558547723E+04  0.13564287351E+04  0.00000000000E+00 0. -1.
          1    1    1    2  502    0 -0.21414337053E+02 -0.14173988867E+01 -0.14102903519E+01  0.21507481720E+02  0.00000000000E+00 0. -1.
         22    1    3    3    0    0  0.56722757934E+01  0.43606989830E+02 -0.24603130255E+03  0.24993028250E+03  0.00000000000E+00 0.  1.
         22    1    3    3    0    0 -0.14091715333E+01 -0.77722463342E+02 -0.92291002314E+03  0.92617799471E+03  0.00000000000E+00 0.  1.
</event>
<event>
 7    1  0.5957303E-006  0.1197382E+03  0.7818608E-02  0.1320914E+00
          2   -1    0    0  502    0  0.00000000000E+00  0.00000000000E+00  0.26683494956E+04  0.26683494956E+04  0.00000000000E+00 0. -1.
          1   -1    0    0  501    0 -0.00000000000E+00 -0.00000000000E+00 -0.85556398932E+02  0.85556398932E+02  0.00000000000E+00 0. -1.
         25    2    1    2    0    0 -0.10403877937E+03 -0.13657887668E+03  0.53716579744E+03  0.57762861424E+03  0.12501945801E+03 0.  0.
          2    1    1    2  501    0  0.25857646899E+02  0.51299900079E+02 -0.50783652691E+02  0.76676443787E+02  0.00000000000E+00 0. -1.
          1    1    1    2  502    0  0.78181132469E+02  0.85278976606E+02  0.20964109520E+04  0.20996008365E+04  0.00000000000E+00 0. -1.
         22    1    3    3    0    0  0.77220112616E+01 -0.52632202889E+02  0.27925434176E+03  0.28427586185E+03  0.00000000000E+00 0.  1.
         22    1    3    3    0    0 -0.11176079063E+03 -0.83946673796E+02  0.25791145568E+03  0.29335275239E+03  0.00000000000E+00 0.  1.
</event>
<event>
 7    1  0.5957303E-006  0.5535295E+02  0.7818608E-02  0.1423844E+00
          2   -1    0    0  502    0  0.00000000000E+00  0.00000000000E+00  0.12949089920E+04  0.12949089920E+04  0.00000000000E+00 0. -1.
          1   -1    0    0  501    0 -0.00000000000E+00 -0.00000000000E+00 -0.16730940633E+03  0.16730940633E+03  0.00000000000E+00 0. -1.
         25    2    1    2    0    0  0.11258549418E+02 -0.28424379645E+02  0.30408808550E+02  0.13223717054E+03  0.12500909304E+03 0.  0.
          2    1    1    2  501    0  0.43506958605E+02  0.36467258821E+02 -0.10880052319E+03  0.12272029278E+03  0.00000000000E+00 0. -1.
          1    1    1    2  502    0 -0.54765508023E+02 -0.80428791755E+01  0.12059913003E+04  0.12072609350E+04  0.00000000000E+00 0. -1.
         22    1    3    3    0    0  0.49868301338E+02  0.28482004353E+02  0.26800214168E+02  0.63374470647E+02  0.00000000000E+00 0. -1.
         22    1    3    3    0    0 -0.38609751920E+02 -0.56906383998E+02  0.36085943820E+01  0.68862699893E+02  0.00000000000E+00 0. -1.
</event>
<event>
 7    1  0.5957303E-006  0.9340217E+02  0.7818608E-02  0.1352726E+00
          2   -1    0    0  502    0  0.00000000000E+00  0.00000000000E+00  0.23799914593E+04  0.23799914593E+04  0.00000000000E+00 0. -1.
          1   -1    0    0  501    0 -0.00000000000E+00 -0.00000000000E+00 -0.90889665249E+03  0.90889665249E+03  0.00000000000E+00 0. -1.
         25    2    1    2    0    0 -0.51095375187E+02 -0.20121350870E+02  0.96168632885E+03  0.97133026822E+03  0.12500515482E+03 0.  0.
          2    1    1    2  501    0 -0.52702774995E+02 -0.18423821339E+02 -0.90104098216E+03  0.90276900214E+03  0.00000000000E+00 0. -1.
          1    1    1    2  502    0  0.10379815018E+03  0.38545172208E+02  0.14104494601E+04  0.14147888414E+04  0.00000000000E+00 0. -1.
         22    1    3    3    0    0 -0.89100603271E+02  0.61123835828E+01  0.68847943567E+03  0.69424794712E+03  0.00000000000E+00 0. -1.
         22    1    3    3    0    0  0.38005228084E+02 -0.26233734452E+02  0.27320689318E+03  0.27708232110E+03  0.00000000000E+00 0. -1.
</event>
<event>
 7    1  0.5957303E-006  0.3086284E+03  0.7818608E-02  0.1222895E+00
          2   -1    0    0  502    0  0.00000000000E+00  0.00000000000E+00  0.11939472771E+04  0.11939472771E+04  0.00000000000E+00 0. -1.
          1   -1    0    0  501    0 -0.00000000000E+00 -0.00000000000E+00 -0.37221913578E+04  0.37221913578E+04  0.00000000000E+00 0. -1.
         25    2    1    2    0    0  0.25460096867E+03 -0.80202302846E+02 -0.68737111198E+03  0.74790759821E+03  0.12503066518E+03 0.  0.
          2    1    1    2  501    0 -0.31175066888E+03  0.74631129051E+02 -0.29952861693E+04  0.30123906654E+04  0.00000000000E+00 0. -1.
          1    1    1    2  502    0  0.57149700213E+02  0.55711737956E+01  0.11544132006E+04  0.11558403713E+04  0.00000000000E+00 0. -1.
         22    1    3    3    0    0 -0.75580635600E+01 -0.22234946879E+02 -0.89258167370E+02  0.92295924231E+02  0.00000000000E+00 0.  1.
         22    1    3    3    0    0  0.26215903223E+03 -0.57967355967E+02 -0.59811294461E+03  0.65561167397E+03  0.00000000000E+00 0.  1.
</event>
<event>
 7    1  0.5957303E-006  0.1850302E+03  0.7818608E-02  0.1282400E+00
          2   -1    0    0  502    0  0.00000000000E+00  0.00000000000E+00  0.91624478102E+03  0.91624478102E+03  0.00000000000E+00 0. -1.
          1   -1    0    0  501    0 -0.00000000000E+00 -0.00000000000E+00 -0.12254856503E+04  0.12254856503E+04  0.00000000000E+00 0. -1.
         25    2    1    2    0    0  0.12405368098E+03  0.88546822984E+02 -0.33796228036E+03  0.39124603237E+03  0.12500039710E+03 0.  0.
          2    1    1    2  501    0 -0.14514440356E+03 -0.13714359379E+03 -0.84849186220E+03  0.87167293374E+03  0.00000000000E+00 0. -1.
          1    1    1    2  502    0  0.21090722586E+02  0.48596770804E+02  0.87721327323E+03  0.87881146525E+03  0.00000000000E+00 0. -1.
         22    1    3    3    0    0 -0.23837882204E+02  0.38388912300E+01 -0.66164602032E+02  0.70432494460E+02  0.00000000000E+00 0.  1.
         22    1    3    3    0    0  0.14789156318E+03  0.84707931754E+02 -0.27179767833E+03  0.32081353791E+03  0.00000000000E+00 0.  1.
</event>
<event>
 7    1  0.5957303E-006  0.5712553E+02  0.7818608E-02  0.1413896E+00
          2   -1    0    0  502    0  0.00000000000E+00  0.00000000000E+00  0.16523498693E+04  0.16523498693E+04  0.00000000000E+00 0. -1.
          1   -1    0    0  501    0 -0.00000000000E+00 -0.00000000000E+00 -0.34296649690E+03  0.34296649690E+03  0.00000000000E+00 0. -1.
         25    2    1    2    0    0 -0.22745550091E+02 -0.38229470682E+02  0.10656838127E+03  0.17017777006E+03  0.12499920423E+03 0.  0.
          2    1    1    2  501    0  0.57639348234E+02 -0.49967431471E+01 -0.30795755011E+03  0.31334504077E+03  0.00000000000E+00 0. -1.
          1    1    1    2  502    0 -0.34893798144E+02  0.43226213829E+02  0.15107725412E+04  0.15117935554E+04  0.00000000000E+00 0. -1.
         22    1    3    3    0    0 -0.89735548328E+01  0.23376822711E+02 -0.17788831774E+02  0.30715518265E+02  0.00000000000E+00 0. -1.
         22    1    3    3    0    0 -0.13771995258E+02 -0.61606293393E+02  0.12435721305E+03  0.13946225179E+03  0.00000000000E+00 0. -1.
</event>
<event>
 7    1  0.5957303E-006  0.5719664E+02  0.7818608E-02  0.1418562E+00
          2   -1    0    0  502    0  0.00000000000E+00  0.00000000000E+00  0.12518762885E+04  0.12518762885E+04  0.00000000000E+00 0. -1.
          1   -1    0    0  501    0 -0.00000000000E+00 -0.00000000000E+00 -0.48316344934E+03  0.48316344934E+03  0.00000000000E+00 0. -1.
         25    2    1    2    0    0  0.28032242975E+02  0.12681742489E+02  0.68714361287E+02  0.14592183269E+03  0.12499953828E+03 0.  0.
          2    1    1    2  501    0  0.46288829295E+00 -0.57981993834E+02 -0.44203971531E+03  0.44582646376E+03  0.00000000000E+00 0. -1.
          1    1    1    2  502    0 -0.28495131268E+02  0.45300251345E+02  0.11420381932E+04  0.11432914414E+04  0.00000000000E+00 0. -1.
         22    1    3    3    0    0 -0.18882460119E+02 -0.31313788691E+01 -0.29943816300E+02  0.35538499805E+02  0.00000000000E+00 0. -1.
         22    1    3    3    0    0  0.46914703094E+02  0.15813121358E+02  0.98658177587E+02  0.11038333288E+03  0.00000000000E+00 0. -1.
</event>
<event>
 7    1  0.5957303E-006  0.6340956E+02  0.7818608E-02  0.1450536E+00
          2   -1    0    0  502    0  0.00000000000E+00  0.00000000000E+00  0.25586755731E+04  0.25586755731E+04  0.00000000000E+00 0. -1.
          1   -1    0    0  501    0 -0.00000000000E+00 -0.00000000000E+00 -0.16448395953E+03  0.16448395953E+03  0.00000000000E+00 0. -1.
         25    2    1    2    0    0 -0.82790845649E+02  0.53297375092E+01  0.22922888093E+03  0.27395939477E+03  0.12500055962E+03 0.  0.
          2    1    1    2  501    0  0.58439782791E+02  0.23766612185E+02 -0.13495322015E+03  0.14897124453E+03  0.00000000000E+00 0. -1.
          1    1    1    2  502    0  0.24351062858E+02 -0.29096349694E+02  0.22999159527E+04  0.23002288933E+04  0.00000000000E+00 0. -1.
         22    1    3    3    0    0 -0.52771090712E+02 -0.15640192708E+02  0.15590575629E+02  0.57205504030E+02  0.00000000000E+00 0. -1.
         22    1    3    3    0    0 -0.30019754937E+02  0.20969930217E+02  0.21363830530E+03  0.21675389074E+03  0.00000000000E+00 0. -1.
</event>
<event>
 7    1  0.5957303E-006  0.1536435E+03  0.7818608E-02  0.1251784E+00
          2   -1    0    0  502    0  0.00000000000E+00  0.00000000000E+00  0.63400151916E+03  0.63400151916E+03  0.00000000000E+00 0. -1.
          1   -1    0    0  501    0 -0.00000000000E+00 -0.00000000000E+00 -0.78235986734E+03  0.78235986734E+03  0.00000000000E+00 0. -1.
         25    2    1    2    0    0 -0.17688382693E+03 -0.62229620689E+02 -0.94967487553E+02  0.24454709242E+03  0.12499617113E+03 0.  0.
          2    1    1    2  501    0  0.15032328205E+03 -0.19463244230E+02 -0.59981908987E+03  0.61867507431E+03  0.00000000000E+00 0. -1.
          1    1    1    2  502    0  0.26560544879E+02  0.81692864919E+02  0.54642822925E+03  0.55313921977E+03  0.00000000000E+00 0. -1.
         22    1    3    3    0    0  0.23275040670E+01  0.22751225427E+02  0.34562562800E+01  0.23129661499E+02  0.00000000000E+00 0. -1.
         22    1    3    3    0    0 -0.17921133100E+03 -0.84980846116E+02 -0.98423743833E+02  0.22141743092E+03  0.00000000000E+00 0. -1.
</event>
<event>
 7    1  0.5957303E-006  0.4797202E+02  0.7818608E-02  0.1465304E+00
          2   -1    0    0  502    0  0.00000000000E+00  0.00000000000E+00  0.20570290316E+03  0.20570290316E+03  0.00000000000E+00 0. -1.
          1   -1    0    0  501    0 -0.00000000000E+00 -0.00000000000E+00 -0.92429124795E+03  0.92429124795E+03  0.00000000000E+00 0. -1.
         25    2    1    2    0    0  0.36304942506E+01 -0.27060173233E+02 -0.39446782882E+03  0.41469907046E+03  0.12500007042E+03 0.  0.
          2    1    1    2  501    0 -0.48180074120E+02  0.20459401663E+02 -0.51577297022E+03  0.51842228295E+03  0.00000000000E+00 0. -1.
          1    1    1    2  502    0  0.44549579869E+02  0.66007715706E+01  0.19165245424E+03  0.19687279769E+03  0.00000000000E+00 0. -1.
         22    1    3    3    0    0 -0.51167916439E+02 -0.38338186940E+02 -0.28107650043E+03  0.28825678022E+03  0.00000000000E+00 0.  1.
         22    1    3    3    0    0  0.54798410690E+02  0.11278013707E+02 -0.11339132839E+03  0.12644229024E+03  0.00000000000E+00 0.  1.
</event>
<event>
 7    1  0.5957303E-006  0.1005098E+03  0.7818608E-02  0.1302553E+00
          2   -1    0    0  502    0  0.00000000000E+00  0.00000000000E+00  0.12393157128E+04  0.12393157128E+04  0.00000000000E+00 0. -1.
          1   -1    0    0  501    0 -0.00000000000E+00 -0.00000000000E+00 -0.39861814860E+03  0.39861814860E+03  0.00000000000E+00 0. -1.
         25    2    1    2    0    0  0.82012704470E+01  0.10867971672E+03 -0.94643022564E+01  0.16611039878E+03  0.12499819960E+03 0.  0.
          2    1    1    2  501    0 -0.74167158707E+02 -0.32087415348E+02 -0.30333051287E+03  0.31391044852E+03  0.00000000000E+00 0. -1.
          1    1    1    2  502    0  0.65965888260E+02 -0.76592301376E+02  0.11534923793E+04  0.11579130141E+04  0.00000000000E+00 0. -1.
         22    1    3    3    0    0  0.41966440336E+02  0.49776638349E+02 -0.54274134177E+02  0.84761886957E+02  0.00000000000E+00 0. -1.
         22    1    3    3    0    0 -0.33765169889E+02  0.58903078375E+02  0.44809831920E+02  0.81348511827E+02  0.00000000000E+00 0. -1.
</event>
<event>
 7    1  0.5957303E-006  0.8883385E+02  0.7818608E-02  0.1333334E+00
          2   -1    0    0  502    0  0.00000000000E+00  0.00000000000E+00  0.50629954554E+03  0.50629954554E+03  0.00000000000E+00 0. -1.
          1   -1    0    0  501    0 -0.00000000000E+00 -0.00000000000E+00 -0.13737784896E+04  0.13737784896E+04  0.00000000000E+00 0. -1.
         25    2    1    2    0    0 -0.40440230852E+02 -0.14793055072E+03  0.83227570243E+02  0.21464255807E+03  0.12500295667E+03 0.  0.
          2    1    1    2  501    0  0.18821868344E+02  0.66783984569E+02 -0.13022011714E+04  0.13040484094E+04  0.00000000000E+00 0. -1.
          1    1    1    2  502    0  0.21618362508E+02  0.81146566153E+02  0.35149465703E+03  0.36138706772E+03  0.00000000000E+00 0. -1.
         22    1    3    3    0    0 -0.28483501483E+02 -0.14834409636E+03  0.22467291101E+02  0.15271561790E+03  0.00000000000E+00 0. -1.
         22    1    3    3    0    0 -0.11956729368E+02  0.41354563730E+00  0.60760279141E+02  0.61926940168E+02  0.00000000000E+00 0. -1.
</event>
<event>
 7    1  0.5957303E-006  0.8606245E+02  0.7818608E-02  0.1491615E+00
          2   -1    0    0  502    0  0.00000000000E+00  0.00000000000E+00  0.58835445593E+03  0.58835445593E+03  0.00000000000E+00 0. -1.
          1   -1    0    0  501    0 -0.00000000000E+00 -0.00000000000E+00 -0.30639653692E+03  0.30639653692E+03  0.00000000000E+00 0. -1.
         25    2    1    2    0    0  0.51420200992E+02  0.60563231300E+02 -0.48258663798E+02  0.15578137593E+03  0.12500798534E+03 0.  0.
          2    1    1    2  501    0  0.18414138010E+02 -0.97523378495E+01 -0.20034467193E+03  0.20142536122E+03  0.00000000000E+00 0. -1.
          1    1    1    2  502    0 -0.69834339002E+02 -0.50810893450E+02  0.53056125474E+03  0.53754425569E+03  0.00000000000E+00 0. -1.
         22    1    3    3    0    0  0.32578246369E+02  0.84931950896E+02  0.83358726316E+01  0.91346949549E+02  0.00000000000E+00 0.  1.
         22    1    3    3    0    0  0.18841954623E+02 -0.24368719596E+02 -0.56594536430E+02  0.64434426376E+02  0.00000000000E+00 0.  1.
</event>
<event>
 7    1  0.5957303E-006  0.2057237E+03  0.7818608E-02  0.1265762E+00
          2   -1    0    0  502    0  0.00000000000E+00  0.00000000000E+00  0.24028753265E+04  0.24028753265E+04  0.00000000000E+00 0. -1.
          1   -1    0    0  501    0 -0.00000000000E+00 -0.00000000000E+00 -0.74880735568E+02  0.74880735568E+02  0.00000000000E+00 0. -1.
         25    2    1    2    0    0  0.15614596581E+03  0.23301991012E+02  0.10420480999E+04  0.10613267184E+04  0.12500246027E+03 0.  0.
          2    1    1    2  501    0 -0.21158509596E+03 -0.30508245180E+02  0.11234336318E+03  0.24149541840E+03  0.00000000000E+00 0. -1.
          1    1    1    2  502    0  0.55439130157E+02  0.72062541680E+01  0.11736031278E+04  0.11749339253E+04  0.00000000000E+00 0. -1.
         22    1    3    3    0    0  0.15103950091E+03 -0.24375849940E+02  0.76279065922E+03  0.77798245654E+03  0.00000000000E+00 0. -1.
         22    1    3    3    0    0  0.51064648911E+01  0.47677840952E+02  0.27925744073E+03  0.28334426181E+03  0.00000000000E+00 0. -1.
</event>
<event>
 7    1  0.5957303E-006  0.1157911E+03  0.7818608E-02  0.1333427E+00
          2   -1    0    0  502    0  0.00000000000E+00  0.00000000000E+00  0.21981791947E+04  0.21981791947E+04  0.00000000000E+00 0. -1.
          1   -1    0    0  501    0 -0.00000000000E+00 -0.00000000000E+00 -0.14028161629E+04  0.14028161629E+04  0.00000000000E+00 0. -1.
         25    2    1    2    0    0  0.10301395807E+03 -0.99500447326E+02 -0.22840981259E+02  0.19146524533E+03  0.12500006068E+03 0.  0.
          2    1    1    2  501    0 -0.49999509009E+02  0.10380348211E+03 -0.12927659473E+04  0.12978901757E+04  0.00000000000E+00 0. -1.
          1    1    1    2  502    0 -0.53014449059E+02 -0.43030347881E+01  0.21109699603E+04  0.21116399365E+04  0.00000000000E+00 0. -1.
         22    1    3    3    0    0 -0.16560089144E+02 -0.17104041870E+02  0.28778396248E+02  0.37349442986E+02  0.00000000000E+00 0. -1.
         22    1    3    3    0    0  0.11957404721E+03 -0.82396405456E+02 -0.51619377507E+02  0.15411580235E+03  0.00000000000E+00 0. -1.
</event>
<event>
 7    1  0.5957303E-006  0.1477963E+03  0.7818608E-02  0.1339915E+00
          2   -1    0    0  502    0  0.00000000000E+00  0.00000000000E+00  0.21720019676E+03  0.21720019676E+03  0.00000000000E+00 0. -1.
          1   -1    0    0  501    0 -0.00000000000E+00 -0.00000000000E+00 -0.10772703143E+04  0.10772703143E+04  0.00000000000E+00 0. -1.
         25    2    1    2    0    0 -0.11776584794E+03  0.88346805334E+02 -0.12605561127E+03  0.23062696666E+03  0.12499931066E+03 0.  0.
          2    1    1    2  501    0  0.26522830141E+02  0.29111809866E+02 -0.86485428525E+03  0.86575047947E+03  0.00000000000E+00 0. -1.
          1    1    1    2  502    0  0.91243017796E+02 -0.11745861520E+03  0.13083977902E+03  0.19809306489E+03  0.00000000000E+00 0. -1.
         22    1    3    3    0    0 -0.13891855193E+03  0.80037275372E+02 -0.79794863936E+02  0.17908531439E+03  0.00000000000E+00 0.  1.
         22    1    3    3    0    0  0.21152703996E+02  0.83095299621E+01 -0.46260747337E+02  0.51541652270E+02  0.00000000000E+00 0.  1.
</event>
<event>
 7    1  0.5957303E-006  0.1365868E+03  0.7818608E-02  0.1274507E+00
          2   -1    0    0  502    0  0.00000000000E+00  0.00000000000E+00  0.30110445868E+04  0.30110445868E+04  0.00000000000E+00 0. -1.
          1   -1    0    0  501    0 -0.00000000000E+00 -0.00000000000E+00 -0.59641061421E+03  0.59641061421E+03  0.00000000000E+00 0. -1.
         25    2    1    2    0    0  0.50768767059E+02 -0.48632056177E+02  0.22092844137E+03  0.26339253922E+03  0.12499483555E+03 0.  0.
          2    1    1    2  501    0  0.21174347782E+02 -0.74423887287E+02 -0.57073160173E+03  0.57595297483E+03  0.00000000000E+00 0. -1.
          1    1    1    2  502    0 -0.71943114841E+02  0.12305594346E+03  0.27644371329E+04  0.27681096869E+04  0.00000000000E+00 0. -1.
         22    1    3    3    0    0 -0.21288522308E+02 -0.20399339326E+02  0.16573312165E+03  0.16833538498E+03  0.00000000000E+00 0.  1.
         22    1    3    3    0    0  0.72057289367E+02 -0.28232716851E+02  0.55195319722E+02  0.95057154233E+02  0.00000000000E+00 0.  1.
</event>
<event>
 7    1  0.5957303E-006  0.5002240E+02  0.7818608E-02  0.1529448E+00
          2   -1    0    0  502    0  0.00000000000E+00  0.00000000000E+00  0.37371531644E+03  0.37371531644E+03  0.00000000000E+00 0. -1.
          1   -1    0    0  501    0 -0.00000000000E+00 -0.00000000000E+00 -0.12670552931E+04  0.12670552931E+04  0.00000000000E+00 0. -1.
         25    2    1    2    0    0  0.21280390348E+02  0.24934020532E+02  0.48584808526E+02  0.13803490894E+03  0.12497436566E+03 0.  0.
          2    1    1    2  501    0 -0.11487633221E+02  0.25255232842E+02 -0.12198398661E+04  0.12201553555E+04  0.00000000000E+00 0. -1.
          1    1    1    2  502    0 -0.97927571273E+01 -0.50189253374E+02  0.27791508093E+03  0.28258034513E+03  0.00000000000E+00 0. -1.
         22    1    3    3    0    0  0.28103273806E+02 -0.47066165006E+02  0.88879840521E+01  0.55533900885E+02  0.00000000000E+00 0. -1.
         22    1    3    3    0    0 -0.68228834573E+01  0.72000185539E+02  0.39696824474E+02  0.82501008052E+02  0.00000000000E+00 0. -1.
</event>
<event>
 7    1  0.5957303E-006  0.4904359E+02  0.7818608E-02  0.1471603E+00
          2   -1    0    0  502    0  0.00000000000E+00  0.00000000000E+00  0.15804550913E+04  0.15804550913E+04  0.00000000000E+00 0. -1.
          1   -1    0    0  501    0 -0.00000000000E+00 -0.00000000000E+00 -0.16016691775E+02  0.16016691775E+02  0.00000000000E+00 0. -1.
         25    2    1    2    0    0 -0.28377340540E+02 -0.18356594116E+02  0.98806592730E+03  0.99651520305E+03  0.12500414082E+03 0.  0.
          2    1    1    2  501    0  0.46918623025E+02 -0.19445391031E+02  0.47912072773E+02  0.69821537769E+02  0.00000000000E+00 0. -1.
          1    1    1    2  502    0 -0.18541282486E+02  0.37801985147E+02  0.52846039949E+03  0.53013504230E+03  0.00000000000E+00 0. -1.
         22    1    3    3    0    0  0.45197598623E+02 -0.26507433090E+02  0.30713713246E+03  0.31157452570E+03  0.00000000000E+00 0.  1.
         22    1    3    3    0    0 -0.73574939162E+02  0.81508389742E+01  0.68092879484E+03  0.68494067735E+03  0.00000000000E+00 0.  1.
</event>
<event>
 7    1  0.5957303E-006  0.8387925E+02  0.7818608E-02  0.1388771E+00
          2   -1    0    0  502    0  0.00000000000E+00  0.00000000000E+00  0.77435708229E+03  0.77435708229E+03  0.00000000000E+00 0. -1.
          1   -1    0    0  501    0 -0.00000000000E+00 -0.00000000000E+00 -0.23860556377E+03  0.23860556377E+03  0.00000000000E+00 0. -1.
         25    2    1    2    0    0 -0.80238434061E+01 -0.38167915777E+02  0.29883189675E+03  0.32626257714E+03  0.12500237945E+03 0.  0.
          2    1    1    2  501    0  0.21960572439E+02  0.82156697235E+02 -0.21563540312E+03  0.23179865557E+03  0.00000000000E+00 0. -1.
          1    1    1    2  502    0 -0.13936729033E+02 -0.43988781458E+02  0.45255502490E+03  0.45490141335E+03  0.00000000000E+00 0. -1.
         22    1    3    3    0    0  0.32145287258E+02 -0.31831542860E+02  0.29794107067E+02  0.54168768028E+02  0.00000000000E+00 0.  1.
         22    1    3    3    0    0 -0.40169130664E+02 -0.63363729171E+01  0.26903778968E+03  0.27209380911E+03  0.00000000000E+00 0.  1.
</event>
<event>
 7    1  0.5957303E-006  0.9900155E+02  0.7818608E-02  0.1332521E+00
          2   -1    0    0  502    0  0.00000000000E+00  0.00000000000E+00  0.37305614060E+03  0.37305614060E+03  0.00000000000E+00 0. -1.
          1   -1    0    0  501    0 -0.00000000000E+00 -0.00000000000E+00 -0.14453150248E+04  0.14453150248E+04  0.00000000000E+00 0. -1.
         25    2    1    2    0    0  0.11190587430E+03 -0.70354431671E+02  0.22227555472E+02  0.18328054856E+03  0.12500009800E+03 0.  0.
          2    1    1    2  501    0 -0.98240571872E+02  0.91572123073E+01 -0.13593397373E+04  0.13629158396E+04  0.00000000000E+00 0. -1.
          1    1    1    2  502    0 -0.13665302426E+02  0.61197219364E+02  0.26485329757E+03  0.27217477727E+03  0.00000000000E+00 0. -1.
         22    1    3    3    0    0  0.12945731253E+03 -0.23127533283E+02  0.17742827340E+02  0.13269847958E+03  0.00000000000E+00 0.  1.
         22    1    3    3    0    0 -0.17551438227E+02 -0.47226898388E+02  0.44847281326E+01  0.50582068973E+02  0.00000000000E+00 0.  1.
</event>
<event>
 7    1  0.5957303E-006  0.1070596E+03  0.7818608E-02  0.1307948E+00
          2   -1    0    0  502    0  0.00000000000E+00  0.00000000000E+00  0.72750982379E+03  0.72750982379E+03  0.00000000000E+00 0. -1.
          1   -1    0    0  501    0 -0.00000000000E+00 -0.00000000000E+00 -0.13037695362E+04  0.13037695362E+04  0.00000000000E+00 0. -1.
         25    2    1    2    0    0 -0.10172121008E+02 -0.46408185218E+02 -0.23797426434E+03  0.27297153337E+03  0.12499806336E+03 0.  0.
          2    1    1    2  501    0  0.44415112576E+02  0.10998905272E+03 -0.10430901957E+04  0.10498130550E+04  0.00000000000E+00 0. -1.
          1    1    1    2  502    0 -0.34242991569E+02 -0.63580867502E+02  0.70480474765E+03  0.70849477167E+03  0.00000000000E+00 0. -1.
         22    1    3    3    0    0 -0.31234090694E+02  0.35498798786E+02 -0.10809920053E+03  0.11798800910E+03  0.00000000000E+00 0.  1.
         22    1    3    3    0    0  0.21061969687E+02 -0.81906984003E+02 -0.12987506381E+03  0.15498352427E+03  0.00000000000E+00 0.  1.
</event>
<event>
 7    1  0.5957303E-006  0.1232049E+03  0.7818608E-02  0.1362620E+00
          2   -1    0    0  502    0  0.00000000000E+00  0.00000000000E+00  0.20632641129E+04  0.20632641129E+04  0.00000000000E+00 0. -1.
          1   -1    0    0  501    0 -0.00000000000E+00 -0.00000000000E+00 -0.60192233527E+03  0.60192233527E+03  0.00000000000E+00 0. -1.
         25    2    1    2    0    0 -0.95924201871E+02  0.37220896305E+02  0.63285459575E+01  0.16202516135E+03  0.12500101915E+03 0.  0.
          2    1    1    2  501    0 -0.27514259698E+02 -0.27551448463E+02 -0.52141082910E+03  0.52286266792E+03  0.00000000000E+00 0. -1.
          1    1    1    2  502    0  0.12343846157E+03 -0.96694478420E+01  0.19764240608E+04  0.19802986189E+04  0.00000000000E+00 0. -1.
         22    1    3    3    0    0  0.46895339352E+01 -0.18290196706E+02 -0.35114344340E+02  0.39869038143E+02  0.00000000000E+00 0. -1.
         22    1    3    3    0    0 -0.10061373581E+03  0.55511093011E+02  0.41442890297E+02  0.12215612320E+03  0.00000000000E+00 0. -1.
</event>
<event>
 7    1  0.5957303E-006  0.7229230E+02  0.7818608E-02  0.1445286E+00
          2   -1    0    0  502    0  0.00000000000E+00  0.00000000000E+00  0.22238649880E+04  0.22238649880E+04  0.00000000000E+00 0. -1.
          1   -1    0    0  501    0 -0.00000000000E+00 -0.00000000000E+00 -0.42102617946E+03  0.42102617946E+03  0.00000000000E+00 0. -1.
         25    2    1    2    0    0 -0.49337791390E+02  0.90908342513E+02  0.27226235868E+02  0.16451765159E+03  0.12500498137E+03 0.  0.
          2    1    1    2  501    0  0.48597919385E+01 -0.34253130983E+02 -0.35092009979E+03  0.35262134223E+03  0.00000000000E+00 0. -1.
          1    1    1    2  502    0  0.44477999452E+02 -0.56655211530E+02  0.21265326725E+04  0.21277521736E+04  0.00000000000E+00 0. -1.
         22    1    3    3    0    0 -0.58509689432E+02  0.38566219993E+02 -0.38532341428E+02  0.79971735119E+02  0.00000000000E+00 0.  1.
         22    1    3    3    0    0  0.91718980420E+01  0.52342122519E+02  0.65758577295E+02  0.84545916468E+02  0.00000000000E+00 0.  1.
</event>
<event>
 7    1  0.5957303E-006  0.5868179E+02  0.7818608E-02  0.1451082E+00
          2   -1    0    0  502    0  0.00000000000E+00  0.00000000000E+00  0.11490177501E+04  0.11490177501E+04  0.00000000000E+00 0. -1.
          1   -1    0    0  501    0 -0.00000000000E+00 -0.00000000000E+00 -0.28339830297E+03  0.28339830297E+03  0.00000000000E+00 0. -1.
         25    2    1    2    0    0 -0.98018729329E+02  0.10795393312E+02 -0.13598522473E+03  0.20938260314E+03  0.12499952535E+03 0.  0.
          2    1    1    2  501    0  0.40808352379E+02  0.14467321554E+01 -0.10615087956E+03  0.11373400498E+03  0.00000000000E+00 0. -1.
          1    1    1    2  502    0  0.57210376949E+02 -0.12242125468E+02  0.11077555514E+04  0.11092994449E+04  0.00000000000E+00 0. -1.
         22    1    3    3    0    0  0.27781762429E+02  0.15693447557E+02 -0.16987807981E+02  0.36148253621E+02  0.00000000000E+00 0. -1.
         22    1    3    3    0    0 -0.12580049176E+03 -0.48980542447E+01 -0.11899741675E+03  0.17323434952E+03  0.00000000000E+00 0. -1.
</event>
<event>
 7    1  0.5957303E-006  0.9487959E+02  0.7818608E-02  0.1473892E+00
          2   -1    0    0  502    0  0.00000000000E+00  0.00000000000E+00  0.16664250254E+03  0.16664250254E+03  0.00000000000E+00 0. -1.
          1   -1    0    0  501    0 -0.00000000000E+00 -0.00000000000E+00 -0.37103532020E+03  0.37103532020E+03  0.00000000000E+00 0. -1.
         25    2    1    2    0    0 -0.65619726746E+02 -0.40417547870E+02 -0.20985911909E+03  0.25613427267E+03  0.12499755620E+03 0.  0.
          2    1    1    2  501    0 -0.21406274207E+02 -0.46686452388E+00 -0.12088574149E+03  0.12276729627E+03  0.00000000000E+00 0. -1.
          1    1    1    2  502    0  0.87026000952E+02  0.40884412394E+02  0.12635204292E+03  0.15877625379E+03  0.00000000000E+00 0. -1.
         22    1    3    3    0    0 -0.29252750477E+01 -0.40983535192E+02 -0.18363219526E+03  0.18817276776E+03  0.00000000000E+00 0.  1.
         22    1    3    3    0    0 -0.62694451698E+02  0.56598732239E+00 -0.26226923827E+02  0.67961504904E+02  0.00000000000E+00 0.  1.
</event>
<event>
 7    1  0.7233777E-006  0.4658976E+02  0.7818608E-02  0.1557404E+00
          2   -1    0    0  502    0  0.00000000000E+00  0.00000000000E+00  0.79563713895E+03  0.79563713895E+03  0.00000000000E+00 0. -1.
          1   -1    0    0  501    0 -0.00000000000E+00 -0.00000000000E+00 -0.19255775466E+04  0.19255775466E+04  0.00000000000E+00 0. -1.
         25    2    1    2    0    0  0.39981094154E+00 -0.28748907239E+02 -0.36097314075E+03  0.38308454306E+03  0.12500199707E+03 0.  0.
          2    1    1    2  501    0 -0.21189147609E+02 -0.12989088457E+02 -0.15527563638E+04  0.15529552542E+04  0.00000000000E+00 0. -1.
          1    1    1    2  502    0  0.20789336668E+02  0.41737995696E+02  0.78378909687E+03  0.78517488827E+03  0.00000000000E+00 0. -1.
         22    1    3    3    0    0  0.60774411086E+02 -0.35385163128E+01 -0.20753499438E+03  0.21627950442E+03  0.00000000000E+00 0.  1.
         22    1    3    3    0    0 -0.60374600144E+02 -0.25210390926E+02 -0.15343814637E+03  0.16680503864E+03  0.00000000000E+00 0.  1.
</event>
<event>
 7    1  0.5957303E-006  0.5938327E+02  0.7818608E-02  0.1486772E+00
          2   -1    0    0  502    0  0.00000000000E+00  0.00000000000E+00  0.21530084392E+04  0.21530084392E+04  0.00000000000E+00 0. -1.
          1   -1    0    0  501    0 -0.00000000000E+00 -0.00000000000E+00 -0.83487968886E+03  0.83487968886E+03  0.00000000000E+00 0. -1.
         25    2    1    2    0    0 -0.69035813741E+01  0.85682515496E+02  0.22952884694E+03  0.27513162202E+03  0.12499905983E+03 0.  0.
          2    1    1    2  501    0  0.17994412191E+02 -0.56481647752E+02 -0.81086793709E+03  0.81303184857E+03  0.00000000000E+00 0. -1.
          1    1    1    2  502    0 -0.11090830817E+02 -0.29200867744E+02  0.18994678404E+04  0.18997246574E+04  0.00000000000E+00 0. -1.
         22    1    3    3    0    0 -0.40853768441E+02  0.24500437085E+02  0.15718688279E+02  0.50163522349E+02  0.00000000000E+00 0.  1.
         22    1    3    3    0    0  0.33950187067E+02  0.61182078410E+02  0.21381015867E+03  0.22496809967E+03  0.00000000000E+00 0.  1.
</event>
<event>
 7    1  0.5957303E-006  0.4602298E+02  0.7818608E-02  0.1487332E+00
          2   -1    0    0  502    0  0.00000000000E+00  0.00000000000E+00  0.11503444049E+04  0.11503444049E+04  0.00000000000E+00 0. -1.
          1   -1    0    0  501    0 -0.00000000000E+00 -0.00000000000E+00 -0.34443424185E+03  0.34443424185E+03  0.00000000000E+00 0. -1.
         25    2    1    2    0    0 -0.46638605216E+02 -0.69193328628E+02  0.52498426453E+02  0.15919942217E+03  0.12500198005E+03 0.  0.
          2    1    1    2  501    0  0.13398537396E+02  0.37844461416E+02 -0.28919677207E+03  0.29197002764E+03  0.00000000000E+00 0. -1.
          1    1    1    2  502    0  0.33240067819E+02  0.31348867212E+02  0.10426085086E+04  0.10436091969E+04  0.00000000000E+00 0. -1.
         22    1    3    3    0    0 -0.85134145046E+02 -0.61841898851E+02  0.17528487175E+02  0.10667469695E+03  0.00000000000E+00 0.  1.
         22    1    3    3    0    0  0.38495539830E+02 -0.73514297769E+01  0.34969939278E+02  0.52524725222E+02  0.00000000000E+00 0.  1.
</event>
<event>
 7    1  0.5957303E-006  0.7894745E+02  0.7818608E-02  0.1417256E+00
          2   -1    0    0  502    0  0.00000000000E+00  0.00000000000E+00  0.16174602453E+04  0.16174602453E+04  0.00000000000E+00 0. -1.
          1   -1    0    0  501    0 -0.00000000000E+00 -0.00000000000E+00 -0.10484367933E+03  0.10484367933E+03  0.00000000000E+00 0. -1.
         25    2    1    2    0    0  0.68728815585E+02 -0.66803948305E+02  0.90470091917E+03  0.91831080749E+03  0.12499827362E+03 0.  0.
          2    1    1    2  501    0 -0.39075186350E+02 -0.26530930913E+01 -0.92013170372E+02  0.10000166305E+03  0.00000000000E+00 0. -1.
          1    1    1    2  502    0 -0.29653629235E+02  0.69457041396E+02  0.69992881714E+03  0.70399145406E+03  0.00000000000E+00 0. -1.
         22    1    3    3    0    0  0.11936219301E+02  0.11023931193E+02  0.56440423276E+03  0.56463805960E+03  0.00000000000E+00 0.  1.
         22    1    3    3    0    0  0.56792596284E+02 -0.77827879498E+02  0.34029668640E+03  0.35367274788E+03  0.00000000000E+00 0.  1.
</event>
<event>
 7    1  0.5957303E-006  0.1019366E+03  0.7818608E-02  0.1291084E+00
          2   -1    0    0  502    0  0.00000000000E+00  0.00000000000E+00  0.16722586130E+04  0.16722586130E+04  0.00000000000E+00 0. -1.
          1   -1    0    0  501    0 -0.00000000000E+00 -0.00000000000E+00 -0.57163425610E+03  0.57163425610E+03  0.00000000000E+00 0. -1.
         25    2    1    2    0    0  0.10698791067E+03  0.13161900039E+03  0.12980496157E+03  0.24747727929E+03  0.12500280566E+03 0.  0.
          2    1    1    2  501    0 -0.90100355795E+02 -0.44631528886E+02 -0.50652889985E+03  0.51641221313E+03  0.00000000000E+00 0. -1.
          1    1    1    2  502    0 -0.16887554870E+02 -0.86987471504E+02  0.14773482952E+04  0.14800033767E+04  0.00000000000E+00 0. -1.
         22    1    3    3    0    0  0.13325352164E+03  0.88431964982E+02  0.10348297545E+03  0.19048737404E+03  0.00000000000E+00 0.  1.
         22    1    3    3    0    0 -0.26265610971E+02  0.43187035409E+02  0.26321986120E+02  0.56989905250E+02  0.00000000000E+00 0.  1.
</event>
<event>
 7    1  0.5957303E-006  0.8267584E+02  0.7818608E-02  0.1416161E+00
          2   -1    0    0  502    0  0.00000000000E+00  0.00000000000E+00  0.58700492897E+02  0.58700492897E+02  0.00000000000E+00 0. -1.
          1   -1    0    0  501    0 -0.00000000000E+00 -0.00000000000E+00 -0.12361730111E+04  0.12361730111E+04  0.00000000000E+00 0. -1.
         25    2    1    2    0    0  0.57142203848E+02 -0.72252179489E+00 -0.29270978917E+03  0.32337211471E+03  0.12499900160E+03 0.  0.
          2    1    1    2  501    0 -0.81885671106E+02 -0.27743610625E+02 -0.91749635602E+03  0.92156092277E+03  0.00000000000E+00 0. -1.
          1    1    1    2  502    0  0.24743467258E+02  0.28466132420E+02  0.32733626946E+02  0.49940466557E+02  0.00000000000E+00 0. -1.
         22    1    3    3    0    0 -0.48246190193E+01 -0.41439629314E+01  0.11367754197E+02  0.13025943841E+02  0.00000000000E+00 0. -1.
         22    1    3    3    0    0  0.61966822867E+02  0.34214411365E+01 -0.30407754336E+03  0.31034617087E+03  0.00000000000E+00 0. -1.
</event>
<event>
 7    1  0.1032698E-005  0.4998572E+02  0.7818608E-02  0.1481866E+00
          2   -1    0    0  502    0  0.00000000000E+00  0.00000000000E+00  0.15595218065E+04  0.15595218065E+04  0.00000000000E+00 0. -1.
          1   -1    0    0  501    0 -0.00000000000E+00 -0.00000000000E+00 -0.14053024512E+04  0.14053024512E+04  0.00000000000E+00 0. -1.
         25    2    1    2    0    0  0.48202216155E+02  0.60993866686E+01 -0.65491689782E+03  0.66850684306E+03  0.12499840002E+03 0.  0.
          2    1    1    2  501    0 -0.41094858677E+02  0.31646561448E+02 -0.74244813025E+03  0.74425769621E+03  0.00000000000E+00 0. -1.
          1    1    1    2  502    0 -0.71073574781E+01 -0.37745948116E+02  0.15515843833E+04  0.15520597185E+04  0.00000000000E+00 0. -1.
         22    1    3    3    0    0  0.64639073327E+02 -0.10600497807E+02 -0.15802549406E+03  0.17106325475E+03  0.00000000000E+00 0. -1.
         22    1    3    3    0    0 -0.16436857172E+02  0.16699884476E+02 -0.49689140377E+03  0.49744358831E+03  0.00000000000E+00 0. -1.
</event>
<event>
 7    1  0.5957303E-006  0.2339783E+03  0.7818608E-02  0.1228812E+00
          2   -1    0    0  502    0  0.00000000000E+00  0.00000000000E+00  0.23757755495E+03  0.23757755495E+03  0.00000000000E+00 0. -1.
          1   -1    0    0  501    0 -0.00000000000E+00 -0.00000000000E+00 -0.10535266494E+04  0.10535266494E+04  0.00000000000E+00 0. -1.
         25    2    1    2    0    0 -0.18455124934E+03 -0.22638854592E+02 -0.14784907429E+03  0.26841503934E+03  0.12496240716E+03 0.  0.
          2    1    1    2  501    0 -0.70668425664E+02  0.88605477540E+01 -0.75070864892E+03  0.75407957886E+03  0.00000000000E+00 0. -1.
          1    1    1    2  502    0  0.25521967501E+03  0.13778306838E+02  0.82608628732E+02  0.26860958619E+03  0.00000000000E+00 0. -1.
         22    1    3    3    0    0 -0.11547788259E+03 -0.73395233954E+02 -0.75683081588E+02  0.15636473571E+03  0.00000000000E+00 0.  1.
         22    1    3    3    0    0 -0.69073366758E+02  0.50756379362E+02 -0.72165992707E+02  0.11205030363E+03  0.00000000000E+00 0.  1.
</event>
<event>
 7    1  0.5957303E-006  0.1065487E+03  0.7818608E-02  0.1459370E+00
          2   -1    0    0  502    0  0.00000000000E+00  0.00000000000E+00  0.10691553721E+04  0.10691553721E+04  0.00000000000E+00 0. -1.
          1   -1    0    0  501    0 -0.00000000000E+00 -0.00000000000E+00 -0.75181848967E+02  0.75181848967E+02  0.00000000000E+00 0. -1.
         25    2    1    2    0    0  0.15484088606E+01  0.11295179616E+03  0.62738871000E+02  0.17978075681E+03  0.12499779502E+03 0.  0.
          2    1    1    2  501    0  0.13791999864E+02 -0.98367413073E+02  0.13278291580E+03  0.16582421398E+03  0.00000000000E+00 0. -1.
          1    1    1    2  502    0 -0.15340408724E+02 -0.14584383088E+02  0.79845173632E+03  0.79873225026E+03  0.00000000000E+00 0. -1.
         22    1    3    3    0    0 -0.46206430904E+02  0.55929690112E+02 -0.12915325856E+02  0.73688331063E+02  0.00000000000E+00 0.  1.
         22    1    3    3    0    0  0.47754839764E+02  0.57022106050E+02  0.75654196857E+02  0.10609242575E+03  0.00000000000E+00 0.  1.
</event>
<event>
 7    1  0.5957303E-006  0.4151139E+02  0.7818608E-02  0.1557868E+00
          2   -1    0    0  502    0  0.00000000000E+00  0.00000000000E+00  0.15173962416E+04  0.15173962416E+04  0.00000000000E+00 0. -1.
          1   -1    0    0  501    0 -0.00000000000E+00 -0.00000000000E+00 -0.48657329430E+02  0.48657329430E+02  0.00000000000E+00 0. -1.
         25    2    1    2    0    0  0.51993345135E+02  0.26767598858E+02  0.59209014819E+03  0.60796056644E+03  0.12500197789E+03 0.  0.
          2    1    1    2  501    0 -0.24883891597E+02 -0.32977999915E+02 -0.29975657330E+02  0.51042105871E+02  0.00000000000E+00 0. -1.
          1    1    1    2  502    0 -0.27109453538E+02  0.62104010567E+01  0.90662442132E+03  0.90705089873E+03  0.00000000000E+00 0. -1.
         22    1    3    3    0    0  0.82260019867E+02 -0.15823987482E+02  0.31265581954E+03  0.32368313355E+03  0.00000000000E+00 0.  1.
         22    1    3    3    0    0 -0.30266674732E+02  0.42591586340E+02  0.27943432864E+03  0.28427743289E+03  0.00000000000E+00 0.  1.
</event>
<event>
 7    1  0.5957303E-006  0.5930861E+02  0.7818608E-02  0.1420092E+00
          2   -1    0    0  502    0  0.00000000000E+00  0.00000000000E+00  0.27645504975E+04  0.27645504975E+04  0.00000000000E+00 0. -1.
          1   -1    0    0  501    0 -0.00000000000E+00 -0.00000000000E+00 -0.33300380287E+02  0.33300380287E+02  0.00000000000E+00 0. -1.
         25    2    1    2    0    0  0.56332716631E+02 -0.90906975170E+02  0.74853636694E+03  0.76639308805E+03  0.12495687131E+03 0.  0.
          2    1    1    2  501    0 -0.19671061312E+02  0.47061246905E+02  0.31873302679E+01  0.51106464245E+02  0.00000000000E+00 0. -1.
          1    1    1    2  502    0 -0.36661655319E+02  0.43845728265E+02  0.19795264200E+04  0.19803513255E+04  0.00000000000E+00 0. -1.
         22    1    3    3    0    0  0.86668231708E+02 -0.64481142607E+02  0.36214650020E+03  0.37791439209E+03  0.00000000000E+00 0. -1.
         22    1    3    3    0    0 -0.30335515077E+02 -0.26425832563E+02  0.38638986674E+03  0.38847869596E+03  0.00000000000E+00 0. -1.
</event>
<event>
 7    1  0.5957303E-006  0.6358496E+02  0.7818608E-02  0.1414161E+00
          2   -1    0    0  502    0  0.00000000000E+00  0.00000000000E+00  0.80844354814E+03  0.80844354814E+03  0.00000000000E+00 0. -1.
          1   -1    0    0  501    0 -0.00000000000E+00 -0.00000000000E+00 -0.89600434926E+02  0.89600434926E+02  0.00000000000E+00 0. -1.
         25    2    1    2    0    0  0.70400864023E+02  0.69851011720E+02  0.23247912578E+03  0.28196601201E+03  0.12499136975E+03 0.  0.
          2    1    1    2  501    0 -0.22043760721E+02 -0.57922307832E+02 -0.48626067811E+02  0.78774460341E+02  0.00000000000E+00 0. -1.
          1    1    1    2  502    0 -0.48357103302E+02 -0.11928703888E+02  0.53499005525E+03  0.53730351072E+03  0.00000000000E+00 0. -1.
         22    1    3    3    0    0  0.81644843617E+02  0.40946201333E+02  0.66163680988E+02  0.11278344105E+03  0.00000000000E+00 0.  1.
         22    1    3    3    0    0 -0.11243979593E+02  0.28904810387E+02  0.16631544479E+03  0.16918257096E+03  0.00000000000E+00 0.  1.
</event>
<event>
 7    1  0.5957303E-006  0.7720694E+02  0.7818608E-02  0.1433861E+00
          2   -1    0    0  502    0  0.00000000000E+00  0.00000000000E+00  0.16417595106E+03  0.16417595106E+03  0.00000000000E+00 0. -1.
          1   -1    0    0  501    0 -0.00000000000E+00 -0.00000000000E+00 -0.42110140319E+03  0.42110140319E+03  0.00000000000E+00 0. -1.
         25    2    1    2    0    0 -0.54435002904E+02 -0.80131961492E+02 -0.11038805988E+03  0.19285881486E+03  0.12499879164E+03 0.  0.
          2    1    1    2  501    0  0.19976673662E+02  0.72548667892E+02 -0.26152714507E+03  0.27213750993E+03  0.00000000000E+00 0. -1.
          1    1    1    2  502    0  0.34458329242E+02  0.75832936002E+01  0.11498975281E+03  0.12028102946E+03  0.00000000000E+00 0. -1.
         22    1    3    3    0    0 -0.18238948628E+02 -0.43198860339E+02  0.21209741804E+02  0.51465074847E+02  0.00000000000E+00 0. -1.
         22    1    3    3    0    0 -0.36196054276E+02 -0.36933101154E+02 -0.13159780168E+03  0.14139374001E+03  0.00000000000E+00 0. -1.
</event>
<event>
 7    1  0.5957303E-006  0.6346011E+02  0.7818608E-02  0.1462962E+00
          2   -1    0    0  502    0  0.00000000000E+00  0.00000000000E+00  0.10022132672E+04  0.10022132672E+04  0.00000000000E+00 0. -1.
          1   -1    0    0  501    0 -0.00000000000E+00 -0.00000000000E+00 -0.36187142741E+03  0.36187142741E+03  0.00000000000E+00 0. -1.
         25    2    1    2    0    0  0.37151586718E+02  0.54745663617E+02  0.22893223436E+03  0.26909679480E+03  0.12500315580E+03 0.  0.
          2    1    1    2  501    0 -0.57605776980E+02 -0.26808016271E+02 -0.33843327848E+03  0.34434601677E+03  0.00000000000E+00 0. -1.
          1    1    1    2  502    0  0.20454190262E+02 -0.27937647345E+02  0.74984288394E+03  0.75064188308E+03  0.00000000000E+00 0. -1.
         22    1    3    3    0    0  0.80502885065E+02  0.20241094976E+02  0.16344045133E+03  0.18331174966E+03  0.00000000000E+00 0.  1.
         22    1    3    3    0    0 -0.43351298347E+02  0.34504568641E+02  0.65491783027E+02  0.85785045139E+02  0.00000000000E+00 0.  1.
</event>
<event>
 7    1  0.5957303E-006  0.4382486E+02  0.7818608E-02  0.1485941E+00
          2   -1    0    0  502    0  0.00000000000E+00  0.00000000000E+00  0.17233710934E+04  0.17233710934E+04  0.00000000000E+00 0. -1.
          1   -1    0    0  501    0 -0.00000000000E+00 -0.00000000000E+00 -0.21226892985E+03  0.21226892985E+03  0.00000000000E+00 0. -1.
         25    2    1    2    0    0  0.71450809264E+02 -0.41787809320E+02 -0.23034757055E+02  0.15168181139E+03  0.12500133087E+03 0.  0.
          2    1    1    2  501    0 -0.29070227834E+02  0.31101985004E+02 -0.12098633887E+03  0.12825796588E+03  0.00000000000E+00 0. -1.
          1    1    1    2  502    0 -0.42380581430E+02  0.10685824317E+02  0.16551232595E+04  0.16557002460E+04  0.00000000000E+00 0. -1.
         22    1    3    3    0    0  0.63275198889E+02  0.18025328149E+02 -0.52813137787E+02  0.84367593140E+02  0.00000000000E+00 0. -1.
         22    1    3    3    0    0  0.81756103744E+01 -0.59813137469E+02  0.29778380732E+02  0.67314218245E+02  0.00000000000E+00 0. -1.
</event>
<event>
 7    1  0.5957303E-006  0.1524617E+03  0.7818608E-02  0.1249053E+00
          2   -1    0    0  502    0  0.00000000000E+00  0.00000000000E+00  0.85637684916E+03  0.85637684916E+03  0.00000000000E+00 0. -1.
          1   -1    0    0  501    0 -0.00000000000E+00 -0.00000000000E+00 -0.14122032734E+04  0.14122032734E+04  0.00000000000E+00 0. -1.
         25    2    1    2    0    0  0.52149197105E+01 -0.12260162746E+03  0.18457926969E+02  0.17613777712E+03  0.12500186805E+03 0.  0.
          2    1    1    2  501    0  0.83398261381E+02  0.13045438949E+03 -0.13262375473E+04  0.13352451646E+04  0.00000000000E+00 0. -1.
          1    1    1    2  502    0 -0.88613181092E+02 -0.78527620228E+01  0.75195319603E+03  0.75719718090E+03  0.00000000000E+00 0. -1.
         22    1    3    3    0    0  0.55499332837E+02 -0.77548460012E+02  0.42588239955E+02  0.10443992425E+03  0.00000000000E+00 0. -1.
         22    1    3    3    0    0 -0.50284413126E+02 -0.45053167453E+02 -0.24130312985E+02  0.71697852867E+02  0.00000000000E+00 0. -1.
</event>
<event>
 7    1  0.5957303E-006  0.1631952E+03  0.7818608E-02  0.1348193E+00
          2   -1    0    0  502    0  0.00000000000E+00  0.00000000000E+00  0.12416943165E+04  0.12416943165E+04  0.00000000000E+00 0. -1.
          1   -1    0    0  501    0 -0.00000000000E+00 -0.00000000000E+00 -0.29128382216E+04  0.29128382216E+04  0.00000000000E+00 0. -1.
         25    2    1    2    0    0 -0.81061448421E+02  0.17636031720E+03  0.45187263539E+03  0.50743245294E+03  0.12499958314E+03 0.  0.
          2    1    1    2  501    0  0.58130292360E+02 -0.15233442380E+03 -0.28823913704E+04  0.28869992933E+04  0.00000000000E+00 0. -1.
          1    1    1    2  502    0  0.22931156061E+02 -0.24025893397E+02  0.75937482990E+03  0.76010079185E+03  0.00000000000E+00 0. -1.
         22    1    3    3    0    0 -0.10123310147E+03  0.89166862404E+02  0.21066803669E+03  0.25015973270E+03  0.00000000000E+00 0. -1.
         22    1    3    3    0    0  0.20171653049E+02  0.87193454796E+02  0.24120459870E+03  0.25727272024E+03  0.00000000000E+00 0. -1.
</event>
<event>
 7    1  0.5957303E-006  0.1128297E+03  0.7818608E-02  0.1313617E+00
          2   -1    0    0  502    0  0.00000000000E+00  0.00000000000E+00  0.23921854007E+04  0.23921854007E+04  0.00000000000E+00 0. -1.
          1   -1    0    0  501    0 -0.00000000000E+00 -0.00000000000E+00 -0.55224695700E+03  0.55224695700E+03  0.00000000000E+00 0. -1.
         25    2    1    2    0    0  0.11496180843E+03 -0.13029754409E+03  0.27119364947E+03  0.34549315661E+03  0.12500343338E+03 0.  0.
          2    1    1    2  501    0 -0.51371994632E+02  0.39971340173E+02 -0.51156963958E+03  0.51569398484E+03  0.00000000000E+00 0. -1.
          1    1    1    2  502    0 -0.63589813799E+02  0.90326203922E+02  0.20803144338E+04  0.20832452162E+04  0.00000000000E+00 0. -1.
         22    1    3    3    0    0  0.10096644807E+03 -0.25544149541E+02  0.10049846756E+03  0.14472964172E+03  0.00000000000E+00 0.  1.
         22    1    3    3    0    0  0.13995360363E+02 -0.10475339455E+03  0.17069518191E+03  0.20076351489E+03  0.00000000000E+00 0.  1.
</event>
<event>
 7    1  0.5957303E-006  0.7088028E+02  0.7818608E-02  0.1488527E+00
          2   -1    0    0  502    0  0.00000000000E+00  0.00000000000E+00  0.72719718760E+03  0.72719718760E+03  0.00000000000E+00 0. -1.
          1   -1    0    0  501    0 -0.00000000000E+00 -0.00000000000E+00 -0.96139581664E+02  0.96139581664E+02  0.00000000000E+00 0. -1.
         25    2    1    2    0    0 -0.64542823049E+02  0.66573902314E+02  0.12883037892E+03  0.20203910785E+03  0.12499869635E+03 0.  0.
          2    1    1    2  501    0  0.23795534082E+02 -0.10100469981E+02 -0.54453547381E+02  0.60277987346E+02  0.00000000000E+00 0. -1.
          1    1    1    2  502    0  0.40747288967E+02 -0.56473432332E+02  0.55668077439E+03  0.56101967407E+03  0.00000000000E+00 0. -1.
         22    1    3    3    0    0 -0.26206762869E+01  0.57574266293E+02  0.12697047120E+03  0.13943874870E+03  0.00000000000E+00 0.  1.
         22    1    3    3    0    0 -0.61922146762E+02  0.89996360210E+01  0.18599077256E+01  0.62600359143E+02  0.00000000000E+00 0.  1.
</event>
<event>
 7    1  0.5957303E-006  0.5875153E+02  0.7818608E-02  0.1479622E+00
          2   -1    0    0  502    0  0.00000000000E+00  0.00000000000E+00  0.77669913976E+02  0.77669913976E+02  0.00000000000E+00 0. -1.
          1   -1    0    0  501    0 -0.00000000000E+00 -0.00000000000E+00 -0.20325096095E+04  0.20325096095E+04  0.00000000000E+00 0. -1.
         25    2    1    2    0    0  0.48684387180E+02  0.76157980683E+02 -0.51607753101E+03  0.53863797603E+03  0.12499857452E+03 0.  0.
          2    1    1    2  501    0 -0.29812080617E+02 -0.48843458095E+02 -0.15004214157E+04  0.15015121939E+04  0.00000000000E+00 0. -1.
          1    1    1    2  502    0 -0.18872306564E+02 -0.27314522588E+02  0.61659251228E+02  0.70029353568E+02  0.00000000000E+00 0. -1.
         22    1    3    3    0    0  0.88955588382E+01 -0.11723163565E+02 -0.11600055206E+01  0.14761745961E+02  0.00000000000E+00 0. -1.
         22    1    3    3    0    0  0.39788828342E+02  0.87881144247E+02 -0.51491752549E+03  0.52387623007E+03  0.00000000000E+00 0. -1.
</event>
<event>
 7    1  0.5957303E-006  0.2461939E+03  0.7818608E-02  0.1219367E+00
          2   -1    0    0  502    0  0.00000000000E+00  0.00000000000E+00  0.70655334196E+03  0.70655334196E+03  0.00000000000E+00 0. -1.
          1   -1    0    0  501    0 -0.00000000000E+00 -0.00000000000E+00 -0.40998768662E+03  0.40998768662E+03  0.00000000000E+00 0. -1.
         25    2    1    2    0    0 -0.15762399566E+02  0.29335629392E+03 -0.54284236874E+02  0.32386622900E+03  0.12504474197E+03 0.  0.
          2    1    1    2  501    0 -0.15639585624E+02 -0.22558535611E+03 -0.15960771039E+03  0.27678144942E+03  0.00000000000E+00 0. -1.
          1    1    1    2  502    0  0.31401985190E+02 -0.67770937811E+02  0.51045760260E+03  0.51589335016E+03  0.00000000000E+00 0. -1.
         22    1    3    3    0    0  0.51942096026E+02  0.17104251479E+03 -0.41286650760E+02  0.18346146935E+03  0.00000000000E+00 0.  1.
         22    1    3    3    0    0 -0.67704495593E+02  0.12231377912E+03 -0.12997586114E+02  0.14040475965E+03  0.00000000000E+00 0.  1.
</event>
<event>
 7    1  0.5957303E-006  0.1302124E+03  0.7818608E-02  0.1379717E+00
          2   -1    0    0  502    0  0.00000000000E+00  0.00000000000E+00  0.16523031861E+04  0.16523031861E+04  0.00000000000E+00 0. -1.
          1   -1    0    0  501    0 -0.00000000000E+00 -0.00000000000E+00 -0.63638322077E+03  0.63638322077E+03  0.00000000000E+00 0. -1.
         25    2    1    2    0    0  0.65806285829E+02 -0.12395478447E+03 -0.93192068806E+02  0.20977537152E+03  0.12500275581E+03 0.  0.
          2    1    1    2  501    0 -0.31944696551E+02 -0.16567735945E+01 -0.48171372979E+03  0.48277461201E+03  0.00000000000E+00 0. -1.
          1    1    1    2  502    0 -0.33861589278E+02  0.12561155807E+03  0.15908257639E+04  0.15961364233E+04  0.00000000000E+00 0. -1.
         22    1    3    3    0    0 -0.26729211833E+02  0.17818086314E+01 -0.32884832292E+02  0.42415065744E+02  0.00000000000E+00 0. -1.
         22    1    3    3    0    0  0.92535497661E+02 -0.12573659310E+03 -0.60307236515E+02  0.16736030577E+03  0.00000000000E+00 0. -1.
</event>
<event>
 7    1  0.5957303E-006  0.6403454E+02  0.7818608E-02  0.1460816E+00
          2   -1    0    0  502    0  0.00000000000E+00  0.00000000000E+00  0.13245541715E+03  0.13245541715E+03  0.00000000000E+00 0. -1.
          1   -1    0    0  501    0 -0.00000000000E+00 -0.00000000000E+00 -0.33241358481E+03  0.33241358481E+03  0.00000000000E+00 0. -1.
         25    2    1    2    0    0  0.31737657361E+02  0.27122587801E+02 -0.18486160872E+03  0.22702096685E+03  0.12498716473E+03 0.  0.
          2    1    1    2  501    0 -0.58285329045E+02 -0.49703483602E+02 -0.11153459055E+03  0.13530550895E+03  0.00000000000E+00 0. -1.
          1    1    1    2  502    0  0.26547671685E+02  0.22580895801E+02  0.96438031618E+02  0.10254252615E+03  0.00000000000E+00 0. -1.
         22    1    3    3    0    0 -0.12556617993E+02  0.42735546581E+01  0.15588331006E+02  0.20467730417E+02  0.00000000000E+00 0. -1.
         22    1    3    3    0    0  0.44294275354E+02  0.22849033142E+02 -0.20044993973E+03  0.20655323644E+03  0.00000000000E+00 0. -1.
</event>
<event>
 7    1  0.5957303E-006  0.3569379E+02  0.7818608E-02  0.1567469E+00
          2   -1    0    0  502    0  0.00000000000E+00  0.00000000000E+00  0.46207450705E+03  0.46207450705E+03  0.00000000000E+00 0. -1.
          1   -1    0    0  501    0 -0.00000000000E+00 -0.00000000000E+00 -0.70057729975E+03  0.70057729975E+03  0.00000000000E+00 0. -1.
         25    2    1    2    0    0 -0.19519063559E+02  0.10657195814E+02 -0.43053299997E+03  0.44886478468E+03  0.12500544468E+03 0.  0.
          2    1    1    2  501    0  0.36138683722E+02  0.14847138760E+02 -0.25889955533E+03  0.26183090295E+03  0.00000000000E+00 0. -1.
          1    1    1    2  502    0 -0.16619620163E+02 -0.25504334574E+02  0.45092976260E+03  0.45195611917E+03  0.00000000000E+00 0. -1.
         22    1    3    3    0    0  0.21162291528E+02  0.39317041547E+02 -0.58881750137E+02  0.73896771498E+02  0.00000000000E+00 0. -1.
         22    1    3    3    0    0 -0.40681355087E+02 -0.28659845733E+02 -0.37165124983E+03  0.37496801318E+03  0.00000000000E+00 0. -1.
</event>
<event>
 7    1  0.5957303E-006  0.3390027E+02  0.7818608E-02  0.1589412E+00
          2   -1    0    0  502    0  0.00000000000E+00  0.00000000000E+00  0.18822957652E+04  0.18822957652E+04  0.00000000000E+00 0. -1.
          1   -1    0    0  501    0 -0.00000000000E+00 -0.00000000000E+00 -0.22105022862E+04  0.22105022862E+04  0.00000000000E+00 0. -1.
         25    2    1    2    0    0 -0.17646136615E+02  0.19942323574E+02 -0.31771778746E+02  0.13171662057E+03  0.12502295710E+03 0.  0.
          2    1    1    2  501    0 -0.69847102101E+01 -0.33222732432E+02 -0.21285158806E+04  0.21287866004E+04  0.00000000000E+00 0. -1.
          1    1    1    2  502    0  0.24630846825E+02  0.13280408858E+02  0.18320811384E+04  0.18322948304E+04  0.00000000000E+00 0. -1.
         22    1    3    3    0    0 -0.38318780323E+02 -0.31321501777E+02  0.22398011341E+02  0.54323441635E+02  0.00000000000E+00 0.  1.
         22    1    3    3    0    0  0.20672643708E+02  0.51263825351E+02 -0.54169790087E+02  0.77393178934E+02  0.00000000000E+00 0.  1.
</event>
<event>
 7    1  0.5957303E-006  0.1815514E+03  0.7818608E-02  0.1263636E+00
          2   -1    0    0  502    0  0.00000000000E+00  0.00000000000E+00  0.42074933406E+03  0.42074933406E+03  0.00000000000E+00 0. -1.
          1   -1    0    0  501    0 -0.00000000000E+00 -0.00000000000E+00 -0.23400776993E+04  0.23400776993E+04  0.00000000000E+00 0. -1.
         25    2    1    2    0    0 -0.22072294056E+03 -0.63688907824E+02  0.69317450234E+02  0.27056617574E+03  0.12500501221E+03 0.  0.
          2    1    1    2  501    0  0.55139005819E+02  0.33804293245E+02 -0.22107071034E+04  0.22116529875E+04  0.00000000000E+00 0. -1.
          1    1    1    2  502    0  0.16558393475E+03  0.29884614579E+02  0.22206128798E+03  0.27860787005E+03  0.00000000000E+00 0. -1.
         22    1    3    3    0    0 -0.16036503449E+03  0.85903249425E+01  0.72822025935E+02  0.17633430021E+03  0.00000000000E+00 0. -1.
         22    1    3    3    0    0 -0.60357906076E+02 -0.72279232767E+02 -0.35045757014E+01  0.94231875531E+02  0.00000000000E+00 0. -1.
</event>
<event>
 7    1  0.5957303E-006  0.4616219E+02  0.7818608E-02  0.1537596E+00
          2   -1    0    0  502    0  0.00000000000E+00  0.00000000000E+00  0.18692662518E+03  0.18692662518E+03  0.00000000000E+00 0. -1.
          1   -1    0    0  501    0 -0.00000000000E+00 -0.00000000000E+00 -0.13718307145E+04  0.13718307145E+04  0.00000000000E+00 0. -1.
         25    2    1    2    0    0 -0.45761160441E+02  0.40920882012E+01 -0.49303880507E+03  0.51070883401E+03  0.12500168336E+03 0.  0.
          2    1    1    2  501    0  0.40211996951E+02  0.23861395491E+02 -0.86818359684E+03  0.86944184896E+03  0.00000000000E+00 0. -1.
          1    1    1    2  502    0  0.55491634891E+01 -0.27953483692E+02  0.17631831260E+03  0.17860665671E+03  0.00000000000E+00 0. -1.
         22    1    3    3    0    0 -0.55211016267E+02  0.14734952888E+02 -0.49317593193E+03  0.49647545255E+03  0.00000000000E+00 0.  1.
         22    1    3    3    0    0  0.94498558268E+01 -0.10642864687E+02  0.13712686160E+00  0.14233381456E+02  0.00000000000E+00 0.  1.
</event>
<event>
 7    1  0.5957303E-006  0.4862674E+02  0.7818608E-02  0.1559753E+00
          2   -1    0    0  502    0  0.00000000000E+00  0.00000000000E+00  0.13909113858E+04  0.13909113858E+04  0.00000000000E+00 0. -1.
          1   -1    0    0  501    0 -0.00000000000E+00 -0.00000000000E+00 -0.38711908964E+03  0.38711908964E+03  0.00000000000E+00 0. -1.
         25    2    1    2    0    0  0.58208900071E+02  0.41379806912E+02  0.66409849681E+02  0.15854159505E+03  0.12499841902E+03 0.  0.
          2    1    1    2  501    0 -0.21040999232E+02 -0.10374817837E+02 -0.34019097155E+03  0.34099891146E+03  0.00000000000E+00 0. -1.
          1    1    1    2  502    0 -0.37167900839E+02 -0.31004989075E+02  0.12775734180E+04  0.12784899689E+04  0.00000000000E+00 0. -1.
         22    1    3    3    0    0  0.95568616031E+02  0.45120387221E+02  0.41811119048E+02  0.11365464966E+03  0.00000000000E+00 0. -1.
         22    1    3    3    0    0 -0.37359715960E+02 -0.37405803093E+01  0.24598730634E+02  0.44886945391E+02  0.00000000000E+00 0. -1.
</event>
<event>
 7    1  0.5957303E-006  0.7602976E+02  0.7818608E-02  0.1351527E+00
          2   -1    0    0  502    0  0.00000000000E+00  0.00000000000E+00  0.26190229617E+02  0.26190229617E+02  0.00000000000E+00 0. -1.
          1   -1    0    0  501    0 -0.00000000000E+00 -0.00000000000E+00 -0.10437778691E+04  0.10437778691E+04  0.00000000000E+00 0. -1.
         25    2    1    2    0    0  0.17513860372E+02  0.14751583842E+02 -0.66601548448E+03  0.67803073780E+03  0.12499884521E+03 0.  0.
          2    1    1    2  501    0  0.68686173422E+02 -0.91290158108E+01 -0.24576489923E+03  0.25534587336E+03  0.00000000000E+00 0. -1.
          1    1    1    2  502    0 -0.86200033793E+02 -0.56225680310E+01 -0.10580725574E+03  0.13659148753E+03  0.00000000000E+00 0. -1.
         22    1    3    3    0    0 -0.18689726042E+02 -0.34598847605E+02 -0.49192740632E+03  0.49349666585E+03  0.00000000000E+00 0. -1.
         22    1    3    3    0    0  0.36203586414E+02  0.49350431447E+02 -0.17408807816E+03  0.18453407195E+03  0.00000000000E+00 0. -1.
</event>
<event>
 7    1  0.5957303E-006  0.1823870E+03  0.7818608E-02  0.1244088E+00
          2   -1    0    0  502    0  0.00000000000E+00  0.00000000000E+00  0.56207232380E+03  0.56207232380E+03  0.00000000000E+00 0. -1.
          1   -1    0    0  501    0 -0.00000000000E+00 -0.00000000000E+00 -0.11750001852E+04  0.11750001852E+04  0.00000000000E+00 0. -1.
         25    2    1    2    0    0 -0.18567771678E+03  0.11766019231E+03 -0.51215218288E+02  0.25800731441E+03  0.12499856137E+03 0.  0.
          2    1    1    2  501    0  0.17586981010E+03 -0.40110914392E+02 -0.10090007365E+04  0.10249983228E+04  0.00000000000E+00 0. -1.
          1    1    1    2  502    0  0.98079066817E+01 -0.77549277918E+02  0.44728809338E+03  0.45406687175E+03  0.00000000000E+00 0. -1.
         22    1    3    3    0    0 -0.17353010106E+03  0.91491723340E+02  0.34430318987E+01  0.19620215565E+03  0.00000000000E+00 0. -1.
         22    1    3    3    0    0 -0.12147615714E+02  0.26168468969E+02 -0.54658250186E+02  0.61805158758E+02  0.00000000000E+00 0. -1.
</event>
<event>
 7    1  0.5957303E-006  0.1312976E+03  0.7818608E-02  0.1316061E+00
          2   -1    0    0  502    0  0.00000000000E+00  0.00000000000E+00  0.22073706724E+03  0.22073706724E+03  0.00000000000E+00 0. -1.
          1   -1    0    0  501    0 -0.00000000000E+00 -0.00000000000E+00 -0.13565289620E+04  0.13565289620E+04  0.00000000000E+00 0. -1.
         25    2    1    2    0    0 -0.79331776243E+02  0.23207799140E+02 -0.94520244590E+01  0.15014353000E+03  0.12498642395E+03 0.  0.
          2    1    1    2  501    0  0.13313990962E+03 -0.13272467918E+02 -0.12681152949E+04  0.12751544201E+04  0.00000000000E+00 0. -1.
          1    1    1    2  502    0 -0.53808133374E+02 -0.99353312223E+01  0.14177542466E+03  0.15196807909E+03  0.00000000000E+00 0. -1.
         22    1    3    3    0    0 -0.38458083073E+02 -0.58309561886E+01 -0.64727394393E+02  0.75515957179E+02  0.00000000000E+00 0. -1.
         22    1    3    3    0    0 -0.40873693170E+02  0.29038755329E+02  0.55275369934E+02  0.74627572825E+02  0.00000000000E+00 0. -1.
</event>
<event>
 7    1  0.5957303E-006  0.3096119E+03  0.7818608E-02  0.1200583E+00
          2   -1    0    0  502    0  0.00000000000E+00  0.00000000000E+00  0.98264958648E+03  0.98264958648E+03  0.00000000000E+00 0. -1.
          1   -1    0    0  501    0 -0.00000000000E+00 -0.00000000000E+00 -0.15862020291E+04  0.15862020291E+04  0.00000000000E+00 0. -1.
         25    2    1    2    0    0  0.25252090925E+02  0.13824360198E+02 -0.59400706324E+03  0.60769986684E+03  0.12500382375E+03 0.  0.
          2    1    1    2  501    0 -0.18009929272E+03  0.25428355628E+03 -0.93485441544E+03  0.98541801298E+03  0.00000000000E+00 0. -1.
          1    1    1    2  502    0  0.15484720180E+03 -0.26810791648E+03  0.92530903609E+03  0.97573373573E+03  0.00000000000E+00 0. -1.
         22    1    3    3    0    0  0.86700174548E+01  0.68819517837E+02 -0.36999021435E+03  0.37643598918E+03  0.00000000000E+00 0.  1.
         22    1    3    3    0    0  0.16582073470E+02 -0.54995157638E+02 -0.22401684889E+03  0.23126387766E+03  0.00000000000E+00 0.  1.
</event>
<event>
 7    1  0.5957303E-006  0.1197770E+03  0.7818608E-02  0.1422209E+00
          2   -1    0    0  502    0  0.00000000000E+00  0.00000000000E+00  0.12484866824E+04  0.12484866824E+04  0.00000000000E+00 0. -1.
          1   -1    0    0  501    0 -0.00000000000E+00 -0.00000000000E+00 -0.94831150445E+03  0.94831150445E+03  0.00000000000E+00 0. -1.
         25    2    1    2    0    0 -0.46395214365E+02  0.11650829439E+03 -0.30238249250E+03  0.35040990441E+03  0.12500092306E+03 0.  0.
          2    1    1    2  501    0 -0.18902865047E+02 -0.16130002997E+02 -0.61873759521E+03  0.61923639026E+03  0.00000000000E+00 0. -1.
          1    1    1    2  502    0  0.65298079412E+02 -0.10037829140E+03  0.12212952657E+04  0.12271518922E+04  0.00000000000E+00 0. -1.
         22    1    3    3    0    0 -0.75740515585E+02  0.48889147129E+02 -0.23028145960E+03  0.24729804901E+03  0.00000000000E+00 0.  1.
         22    1    3    3    0    0  0.29345301220E+02  0.67619147263E+02 -0.72101032897E+02  0.10311185541E+03  0.00000000000E+00 0.  1.
</event>
<event>
 7    1  0.5957303E-006  0.7842114E+02  0.7818608E-02  0.1359255E+00
          2   -1    0    0  502    0  0.00000000000E+00  0.00000000000E+00  0.16966360588E+03  0.16966360588E+03  0.00000000000E+00 0. -1.
          1   -1    0    0  501    0 -0.00000000000E+00 -0.00000000000E+00 -0.57301441295E+03  0.57301441295E+03  0.00000000000E+00 0. -1.
         25    2    1    2    0    0  0.60244246411E+00  0.24569308157E+02 -0.75173965192E+02  0.14792039143E+03  0.12500121326E+03 0.  0.
          2    1    1    2  501    0  0.33060351666E+02 -0.77732766581E+02 -0.44988427610E+03  0.45774581564E+03  0.00000000000E+00 0. -1.
          1    1    1    2  502    0 -0.33662794130E+02  0.53163458424E+02  0.12170743422E+03  0.13701181177E+03  0.00000000000E+00 0. -1.
         22    1    3    3    0    0  0.28706883478E+02  0.93264365030E+01  0.27223827090E+02  0.40647316495E+02  0.00000000000E+00 0. -1.
         22    1    3    3    0    0 -0.28104441014E+02  0.15242871654E+02 -0.10239779228E+03  0.10727307493E+03  0.00000000000E+00 0. -1.
</event>
<event>
 7    1  0.8564010E-006  0.1057897E+03  0.7818608E-02  0.1272259E+00
          2   -1    0    0  502    0  0.00000000000E+00  0.00000000000E+00  0.12734133190E+04  0.12734133190E+04  0.00000000000E+00 0. -1.
          1   -1    0    0  501    0 -0.00000000000E+00 -0.00000000000E+00 -0.13534166659E+04  0.13534166659E+04  0.00000000000E+00 0. -1.
         25    2    1    2    0    0  0.41534162212E+01  0.59188165899E+01 -0.10776037174E+03  0.16519806090E+03  0.12500327336E+03 0.  0.
          2    1    1    2  501    0 -0.13891793953E+02  0.10113703099E+03 -0.12124673703E+04  0.12167574964E+04  0.00000000000E+00 0. -1.
          1    1    1    2  502    0  0.97383777319E+01 -0.10705584758E+03  0.12402243951E+04  0.12448744277E+04  0.00000000000E+00 0. -1.
         22    1    3    3    0    0 -0.51235090729E+02  0.31603850958E+02 -0.32915830664E+02  0.68609691922E+02  0.00000000000E+00 0. -1.
         22    1    3    3    0    0  0.55388506950E+02 -0.25685034368E+02 -0.74844541075E+02  0.96588368975E+02  0.00000000000E+00 0. -1.
</event>
<event>
 7    1  0.5957303E-006  0.4474375E+02  0.7818608E-02  0.1489915E+00
          2   -1    0    0  502    0  0.00000000000E+00  0.00000000000E+00  0.52824153830E+03  0.52824153830E+03  0.00000000000E+00 0. -1.
          1   -1    0    0  501    0 -0.00000000000E+00 -0.00000000000E+00 -0.11806484573E+03  0.11806484573E+03  0.00000000000E+00 0. -1.
         25    2    1    2    0    0  0.33063999785E+01  0.59166642007E+02  0.29110790481E+03  0.32230370613E+03  0.12499697171E+03 0.  0.
          2    1    1    2  501    0  0.28981909002E+02 -0.28370263558E+02 -0.96073007881E+02  0.10428252848E+03  0.00000000000E+00 0. -1.
          1    1    1    2  502    0 -0.32288308980E+02 -0.30796378448E+02  0.21514179565E+03  0.21972014941E+03  0.00000000000E+00 0. -1.
         22    1    3    3    0    0 -0.12012528536E+02  0.92851863795E+02  0.25019046377E+03  0.26713486783E+03  0.00000000000E+00 0.  1.
         22    1    3    3    0    0  0.15318928515E+02 -0.33685221788E+02  0.40917441038E+02  0.55168838295E+02  0.00000000000E+00 0.  1.
</event>
<event>
 7    1  0.5957303E-006  0.1174246E+03  0.7818608E-02  0.1315224E+00
          2   -1    0    0  502    0  0.00000000000E+00  0.00000000000E+00  0.34999929939E+03  0.34999929939E+03  0.00000000000E+00 0. -1.
          1   -1    0    0  501    0 -0.00000000000E+00 -0.00000000000E+00 -0.22333105966E+04  0.22333105966E+04  0.00000000000E+00 0. -1.
         25    2    1    2    0    0  0.88391448882E+02  0.25336345874E+02 -0.74837873176E+02  0.17228078695E+03  0.12499993453E+03 0.  0.
          2    1    1    2  501    0  0.29146853851E+02 -0.54318604036E+02 -0.20971191594E+04  0.20980249805E+04  0.00000000000E+00 0. -1.
          1    1    1    2  502    0 -0.11753830273E+03  0.28982258162E+02  0.28864573543E+03  0.31300412854E+03  0.00000000000E+00 0. -1.
         22    1    3    3    0    0  0.37430480240E+02  0.34234018283E+02  0.27434945328E+02  0.57668753099E+02  0.00000000000E+00 0. -1.
         22    1    3    3    0    0  0.50960968641E+02 -0.88976724085E+01 -0.10227281850E+03  0.11461203385E+03  0.00000000000E+00 0. -1.
</event>
<event>
 7    1  0.5957303E-006  0.6595563E+02  0.7818608E-02  0.1481927E+00
          2   -1    0    0  502    0  0.00000000000E+00  0.00000000000E+00  0.42503411781E+02  0.42503411781E+02  0.00000000000E+00 0. -1.
          1   -1    0    0  501    0 -0.00000000000E+00 -0.00000000000E+00 -0.68921636595E+03  0.68921636595E+03  0.00000000000E+00 0. -1.
         25    2    1    2    0    0  0.52225964709E+02  0.16110190679E+02 -0.29772434057E+03  0.32749397338E+03  0.12500171998E+03 0.  0.
          2    1    1    2  501    0  0.15344529138E+02 -0.24721573204E+02 -0.33298532022E+03  0.33425414618E+03  0.00000000000E+00 0. -1.
          1    1    1    2  502    0 -0.67570493847E+02  0.86113825253E+01 -0.16003293371E+02  0.69971658166E+02  0.00000000000E+00 0. -1.
         22    1    3    3    0    0  0.56556665001E+02 -0.24998914000E+02 -0.59854221875E+02  0.86058874809E+02  0.00000000000E+00 0.  1.
         22    1    3    3    0    0 -0.43307002919E+01  0.41109104679E+02 -0.23787011870E+03  0.24143509857E+03  0.00000000000E+00 0.  1.
</event>
<event>
 7    1  0.5957303E-006  0.3126827E+02  0.7818608E-02  0.1585010E+00
          2   -1    0    0  502    0  0.00000000000E+00  0.00000000000E+00  0.59524560045E+03  0.59524560045E+03  0.00000000000E+00 0. -1.
          1   -1    0    0  501    0 -0.00000000000E+00 -0.00000000000E+00 -0.24919897585E+02  0.24919897585E+02  0.00000000000E+00 0. -1.
         25    2    1    2    0    0  0.14478045639E+02  0.13849460643E+02  0.35615717103E+03  0.37798700751E+03  0.12499930402E+03 0.  0.
          2    1    1    2  501    0 -0.29514373921E+02  0.13566108363E+02  0.77360981583E+01  0.33391387793E+02  0.00000000000E+00 0. -1.
          1    1    1    2  502    0  0.15036328282E+02 -0.27415569005E+02  0.20643243368E+03  0.20878710273E+03  0.00000000000E+00 0. -1.
         22    1    3    3    0    0 -0.15238160845E+01  0.67155574411E+02  0.14823252747E+03  0.16274235893E+03  0.00000000000E+00 0. -1.
         22    1    3    3    0    0  0.16001861724E+02 -0.53306113768E+02  0.20792464356E+03  0.21524464858E+03  0.00000000000E+00 0. -1.
</event>
<event>
 7    1  0.5957303E-006  0.7407105E+02  0.7818608E-02  0.1470289E+00
          2   -1    0    0  502    0  0.00000000000E+00  0.00000000000E+00  0.79893719145E+02  0.79893719145E+02  0.00000000000E+00 0. -1.
          1   -1    0    0  501    0 -0.00000000000E+00 -0.00000000000E+00 -0.64300267092E+03  0.64300267092E+03  0.00000000000E+00 0. -1.
         25    2    1    2    0    0  0.58906769453E+02 -0.20690635436E+02 -0.25992003028E+03  0.29509697314E+03  0.12500276610E+03 0.  0.
          2    1    1    2  501    0  0.16419820831E+02  0.22854302930E+02 -0.34191661410E+03  0.34307273380E+03  0.00000000000E+00 0. -1.
          1    1    1    2  502    0 -0.75326590284E+02 -0.21636674939E+01  0.38727692600E+02  0.84726683135E+02  0.00000000000E+00 0. -1.
         22    1    3    3    0    0 -0.30291096075E+02  0.25160547876E+02 -0.77131450601E+02  0.86601757157E+02  0.00000000000E+00 0. -1.
         22    1    3    3    0    0  0.89197865527E+02 -0.45851183313E+02 -0.18278857968E+03  0.20849521598E+03  0.00000000000E+00 0. -1.
</event>
<event>
 7    1  0.5957303E-006  0.1014706E+03  0.7818608E-02  0.1381510E+00
          2   -1    0    0  502    0  0.00000000000E+00  0.00000000000E+00  0.38253987987E+03  0.38253987987E+03  0.00000000000E+00 0. -1.
          1   -1    0    0  501    0 -0.00000000000E+00 -0.00000000000E+00 -0.51447416957E+03  0.51447416957E+03  0.00000000000E+00 0. -1.
         25    2    1    2    0    0 -0.70861054274E+02 -0.91056740228E+00 -0.59246265091E+01  0.14381766206E+03  0.12500520219E+03 0.  0.
          2    1    1    2  501    0  0.10048936505E+03  0.28453108244E+02 -0.43205005191E+03  0.44449402607E+03  0.00000000000E+00 0. -1.
          1    1    1    2  502    0 -0.29628310776E+02 -0.27542540842E+02  0.30604038872E+03  0.30870236132E+03  0.00000000000E+00 0. -1.
         22    1    3    3    0    0 -0.36766406995E+02 -0.61021233242E+02 -0.18434077911E+02  0.73587871406E+02  0.00000000000E+00 0. -1.
         22    1    3    3    0    0 -0.34094647279E+02  0.60110665840E+02  0.12509451402E+02  0.70229790653E+02  0.00000000000E+00 0. -1.
</event>
<event>
 7    1  0.5957303E-006  0.1834640E+03  0.7818608E-02  0.1194010E+00
          2   -1    0    0  502    0  0.00000000000E+00  0.00000000000E+00  0.36618295384E+04  0.36618295384E+04  0.00000000000E+00 0. -1.
          1   -1    0    0  501    0 -0.00000000000E+00 -0.00000000000E+00 -0.91474486087E+03  0.91474486087E+03  0.00000000000E+00 0. -1.
         25    2    1    2    0    0  0.47578861651E+02 -0.26795813941E+03  0.66498461038E+03  0.72931007383E+03  0.12499335662E+03 0.  0.
          2    1    1    2  501    0  0.46997048139E+02  0.17644790504E+03 -0.87165671696E+03  0.89057735091E+03  0.00000000000E+00 0. -1.
          1    1    1    2  502    0 -0.94575909790E+02  0.91510234369E+02  0.29537567841E+04  0.29566869745E+04  0.00000000000E+00 0. -1.
         22    1    3    3    0    0 -0.23678322907E+02 -0.66353498339E+02  0.28209742958E+03  0.29076177447E+03  0.00000000000E+00 0.  1.
         22    1    3    3    0    0  0.71257184558E+02 -0.20160464107E+03  0.38288718080E+03  0.43854829936E+03  0.00000000000E+00 0.  1.
</event>
<event>
 7    1  0.5957303E-006  0.6203111E+02  0.7818608E-02  0.1478693E+00
          2   -1    0    0  502    0  0.00000000000E+00  0.00000000000E+00  0.73577866643E+03  0.73577866643E+03  0.00000000000E+00 0. -1.
          1   -1    0    0  501    0 -0.00000000000E+00 -0.00000000000E+00 -0.19705749260E+03  0.19705749260E+03  0.00000000000E+00 0. -1.
         25    2    1    2    0    0  0.37257765234E+02 -0.84401192729E+02  0.26141927297E+03  0.30409949753E+03  0.12499906286E+03 0.  0.
          2    1    1    2  501    0 -0.19250975463E+02  0.58370136074E+02 -0.16976602881E+03  0.18054965351E+03  0.00000000000E+00 0. -1.
          1    1    1    2  502    0 -0.18006789772E+02  0.26031056655E+02  0.44706792967E+03  0.44818700799E+03  0.00000000000E+00 0. -1.
         22    1    3    3    0    0  0.17726565733E+00  0.83320313205E+01 -0.11086110456E+02  0.13869247063E+02  0.00000000000E+00 0.  1.
         22    1    3    3    0    0  0.37080499577E+02 -0.92733224050E+02  0.27250538343E+03  0.29023025047E+03  0.00000000000E+00 0.  1.
</event>
<event>
 7    1  0.5957303E-006  0.6358748E+02  0.7818608E-02  0.1444619E+00
          2   -1    0    0  502    0  0.00000000000E+00  0.00000000000E+00  0.32507247045E+03  0.32507247045E+03  0.00000000000E+00 0. -1.
          1   -1    0    0  501    0 -0.00000000000E+00 -0.00000000000E+00 -0.27715270807E+03  0.27715270807E+03  0.00000000000E+00 0. -1.
         25    2    1    2    0    0  0.24753867301E+02 -0.82404218948E+02 -0.13316920313E+03  0.20189253203E+03  0.12499339415E+03 0.  0.
          2    1    1    2  501    0  0.17610270543E+02  0.35387669486E+02 -0.10245299646E+03  0.10981359325E+03  0.00000000000E+00 0. -1.
          1    1    1    2  502    0 -0.42364137844E+02  0.47016549462E+02  0.28354196196E+03  0.29051905323E+03  0.00000000000E+00 0. -1.
         22    1    3    3    0    0 -0.14035994631E+02 -0.54203740806E+02  0.44387365533E+01  0.56167223937E+02  0.00000000000E+00 0. -1.
         22    1    3    3    0    0  0.38789861932E+02 -0.28200478142E+02 -0.13760793968E+03  0.14572530810E+03  0.00000000000E+00 0. -1.
</event>
<event>
 7    1  0.5957303E-006  0.6845321E+02  0.7818608E-02  0.1469955E+00
          2   -1    0    0  502    0  0.00000000000E+00  0.00000000000E+00  0.50138233595E+03  0.50138233595E+03  0.00000000000E+00 0. -1.
          1   -1    0    0  501    0 -0.00000000000E+00 -0.00000000000E+00 -0.31757034886E+02  0.31757034886E+02  0.00000000000E+00 0. -1.
         25    2    1    2    0    0  0.69744636962E+02 -0.31650250304E+02  0.20571500930E+03  0.25260706537E+03  0.12500244675E+03 0.  0.
          2    1    1    2  501    0 -0.64532431643E+02  0.15748464137E+01  0.17468593589E+03  0.18623128382E+03  0.00000000000E+00 0. -1.
          1    1    1    2  502    0 -0.52122053191E+01  0.30075403891E+02  0.89224355867E+02  0.94301021645E+02  0.00000000000E+00 0. -1.
         22    1    3    3    0    0  0.70796737867E+02  0.15929669762E+02  0.45919588632E+02  0.85875148276E+02  0.00000000000E+00 0.  1.
         22    1    3    3    0    0 -0.10521009058E+01 -0.47579920066E+02  0.15979542067E+03  0.16673191709E+03  0.00000000000E+00 0.  1.
</event>
<event>
 7    1  0.5957303E-006  0.1561965E+03  0.7818608E-02  0.1239829E+00
          2   -1    0    0  502    0  0.00000000000E+00  0.00000000000E+00  0.44432534776E+03  0.44432534776E+03  0.00000000000E+00 0. -1.
          1   -1    0    0  501    0 -0.00000000000E+00 -0.00000000000E+00 -0.19083404634E+04  0.19083404634E+04  0.00000000000E+00 0. -1.
         25    2    1    2    0    0 -0.79501946791E+02 -0.63352366502E+02 -0.11550482964E+03  0.19824331384E+03  0.12499985570E+03 0.  0.
          2    1    1    2  501    0  0.16188712764E+03  0.15458731231E+02 -0.17419916814E+04  0.17495660698E+04  0.00000000000E+00 0. -1.
          1    1    1    2  502    0 -0.82385180851E+02  0.47893635271E+02  0.39348139544E+03  0.40485642750E+03  0.00000000000E+00 0. -1.
         22    1    3    3    0    0  0.15394692444E+02 -0.48097623103E+02 -0.82290935014E+02  0.96551415780E+02  0.00000000000E+00 0.  1.
         22    1    3    3    0    0 -0.94896639235E+02 -0.15254743399E+02 -0.33213894630E+02  0.10169189806E+03  0.00000000000E+00 0.  1.
</event>
<event>
 7    1  0.5957303E-006  0.2611595E+02  0.7818608E-02  0.1652521E+00
          2   -1    0    0  502    0  0.00000000000E+00  0.00000000000E+00  0.16331585215E+04  0.16331585215E+04  0.00000000000E+00 0. -1.
          1   -1    0    0  501    0 -0.00000000000E+00 -0.00000000000E+00 -0.57927367259E+03  0.57927367259E+03  0.00000000000E+00 0. -1.
         25    2    1    2    0    0 -0.20151176295E+02 -0.14016119118E+01  0.34288095140E+03  0.36551321807E+03  0.12499812530E+03 0.  0.
          2    1    1    2  501    0  0.10157758313E+02 -0.22947987878E+02 -0.56754480986E+03  0.56809937634E+03  0.00000000000E+00 0. -1.
          1    1    1    2  502    0  0.99934179817E+01  0.24349599790E+02  0.12785487074E+04  0.12788195997E+04  0.00000000000E+00 0. -1.
         22    1    3    3    0    0  0.25787314112E+01  0.51544302913E+02  0.25675774831E+03  0.26189312006E+03  0.00000000000E+00 0. -1.
         22    1    3    3    0    0 -0.22729907706E+02 -0.52945914825E+02  0.86123203094E+02  0.10362009801E+03  0.00000000000E+00 0. -1.
</event>
<event>
 7    1  0.5957303E-006  0.5673423E+02  0.7818608E-02  0.1463450E+00
          2   -1    0    0  502    0  0.00000000000E+00  0.00000000000E+00  0.10920963418E+04  0.10920963418E+04  0.00000000000E+00 0. -1.
          1   -1    0    0  501    0 -0.00000000000E+00 -0.00000000000E+00 -0.42514658441E+02  0.42514658441E+02  0.00000000000E+00 0. -1.
         25    2    1    2    0    0 -0.36431322067E+02 -0.37319213963E+02  0.14860495969E+03  0.20106806231E+03  0.12499986672E+03 0.  0.
          2    1    1    2  501    0  0.60135119712E+01  0.61072225112E+02  0.43554830661E+02  0.75252922071E+02  0.00000000000E+00 0. -1.
          1    1    1    2  502    0  0.30417810096E+02 -0.23753011149E+02  0.85742189306E+03  0.85829001591E+03  0.00000000000E+00 0. -1.
         22    1    3    3    0    0 -0.25894368586E+01  0.88931760877E+00 -0.22421359197E+02  0.22587904225E+02  0.00000000000E+00 0.  1.
         22    1    3    3    0    0 -0.33841885208E+02 -0.38208531572E+02  0.17102631888E+03  0.17848015808E+03  0.00000000000E+00 0.  1.
</event>
<event>
 7    1  0.5957303E-006  0.1667132E+03  0.7818608E-02  0.1229730E+00
          2   -1    0    0  502    0  0.00000000000E+00  0.00000000000E+00  0.11279208917E+04  0.11279208917E+04  0.00000000000E+00 0. -1.
          1   -1    0    0  501    0 -0.00000000000E+00 -0.00000000000E+00 -0.11656332139E+03  0.11656332139E+03  0.00000000000E+00 0. -1.
         25    2    1    2    0    0  0.13476769592E+03 -0.20871063178E+03  0.37109597508E+03  0.46374595266E+03  0.12500250480E+03 0.  0.
          2    1    1    2  501    0 -0.73508693851E+02  0.13092178224E+03  0.18661897587E+02  0.15130204082E+03  0.00000000000E+00 0. -1.
          1    1    1    2  502    0 -0.61259002072E+02  0.77788849549E+02  0.62159969767E+03  0.62943621964E+03  0.00000000000E+00 0. -1.
         22    1    3    3    0    0  0.92004364092E+02 -0.12825619259E+03  0.12506088992E+03  0.20138192605E+03  0.00000000000E+00 0.  1.
         22    1    3    3    0    0  0.42763331831E+02 -0.80454439194E+02  0.24603508515E+03  0.26236402661E+03  0.00000000000E+00 0.  1.
</event>
<event>
 7    1  0.5957303E-006  0.7365417E+02  0.7818608E-02  0.1386152E+00
          2   -1    0    0  502    0  0.00000000000E+00  0.00000000000E+00  0.96100362795E+03  0.96100362795E+03  0.00000000000E+00 0. -1.
          1   -1    0    0  501    0 -0.00000000000E+00 -0.00000000000E+00 -0.77497507815E+02  0.77497507815E+02  0.00000000000E+00 0. -1.
         25    2    1    2    0    0 -0.11228832825E+02 -0.41385287633E+02  0.35386676094E+03  0.37773717452E+03  0.12499943920E+03 0.  0.
          2    1    1    2  501    0 -0.35741545979E+02  0.67355178593E+02 -0.41700532638E+02  0.86908645223E+02  0.00000000000E+00 0. -1.
          1    1    1    2  502    0  0.46970378804E+02 -0.25969890960E+02  0.57133989183E+03  0.57385531602E+03  0.00000000000E+00 0. -1.
         22    1    3    3    0    0 -0.19085169001E+02  0.42643491834E+02  0.14950344261E+03  0.15663329922E+03  0.00000000000E+00 0. -1.
         22    1    3    3    0    0  0.78563361765E+01 -0.84028779466E+02  0.20436331833E+03  0.22110387531E+03  0.00000000000E+00 0. -1.
</event>
<event>
 7    1  0.5957303E-006  0.4072891E+02  0.7818608E-02  0.1509588E+00
          2   -1    0    0  502    0  0.00000000000E+00  0.00000000000E+00  0.59899891004E+03  0.59899891004E+03  0.00000000000E+00 0. -1.
          1   -1    0    0  501    0 -0.00000000000E+00 -0.00000000000E+00 -0.71662492833E+02  0.71662492833E+02  0.00000000000E+00 0. -1.
         25    2    1    2    0    0 -0.27458249039E+02  0.34910265269E+02  0.39209274682E+02  0.13832936485E+03  0.12499985559E+03 0.  0.
          2    1    1    2  501    0 -0.13028177860E+02 -0.39347944719E+02 -0.10502819295E+01  0.41461997830E+02  0.00000000000E+00 0. -1.
          1    1    1    2  502    0  0.40486426899E+02  0.44376794499E+01  0.48917742445E+03  0.49087004019E+03  0.00000000000E+00 0. -1.
         22    1    3    3    0    0 -0.15399674557E+02  0.82308555218E+02  0.23884539449E+02  0.87076514993E+02  0.00000000000E+00 0.  1.
         22    1    3    3    0    0 -0.12058574482E+02 -0.47398289949E+02  0.15324735233E+02  0.51252849858E+02  0.00000000000E+00 0.  1.
</event>
<event>
 7    1  0.5957303E-006  0.1560651E+03  0.7818608E-02  0.1215557E+00
          2   -1    0    0  502    0  0.00000000000E+00  0.00000000000E+00  0.15828002081E+03  0.15828002081E+03  0.00000000000E+00 0. -1.
          1   -1    0    0  501    0 -0.00000000000E+00 -0.00000000000E+00 -0.75230883728E+03  0.75230883728E+03  0.00000000000E+00 0. -1.
         25    2    1    2    0    0 -0.62223045559E+02 -0.47959004803E+01 -0.64830681883E+02  0.15402084664E+03  0.12499878329E+03 0.  0.
          2    1    1    2  501    0 -0.56714980325E+02  0.14539505722E+03 -0.54955718236E+03  0.57128750060E+03  0.00000000000E+00 0. -1.
          1    1    1    2  502    0  0.11893802588E+03 -0.14059915674E+03  0.20359047781E+02  0.18528051086E+03  0.00000000000E+00 0. -1.
         22    1    3    3    0    0  0.10998223298E+02 -0.42435209283E+02 -0.56149541774E+02  0.71235377054E+02  0.00000000000E+00 0.  1.
         22    1    3    3    0    0 -0.73221268857E+02  0.37639308803E+02 -0.86811401098E+01  0.82785469582E+02  0.00000000000E+00 0.  1.
</event>
<event>
 7    1  0.5957303E-006  0.1430267E+03  0.7818608E-02  0.1278314E+00
          2   -1    0    0  502    0  0.00000000000E+00  0.00000000000E+00  0.20172390023E+04  0.20172390023E+04  0.00000000000E+00 0. -1.
          1   -1    0    0  501    0 -0.00000000000E+00 -0.00000000000E+00 -0.65540870886E+03  0.65540870886E+03  0.00000000000E+00 0. -1.
         25    2    1    2    0    0  0.34497161561E+02  0.76064744337E+02  0.14704291142E+04  0.14780943550E+04  0.12500097097E+03 0.  0.
          2    1    1    2  501    0 -0.10124158556E+02 -0.14301623279E+03 -0.64128824280E+03  0.65712004366E+03  0.00000000000E+00 0. -1.
          1    1    1    2  502    0 -0.24373003005E+02  0.66951488455E+02  0.53268942206E+03  0.53743331257E+03  0.00000000000E+00 0. -1.
         22    1    3    3    0    0  0.45775826298E+02  0.66903315163E+01  0.11049669838E+04  0.11059349990E+04  0.00000000000E+00 0. -1.
         22    1    3    3    0    0 -0.11278664737E+02  0.69374412821E+02  0.36546213043E+03  0.37215935594E+03  0.00000000000E+00 0. -1.
</event>
<event>
 7    1  0.5957303E-006  0.1053397E+03  0.7818608E-02  0.1332187E+00
          2   -1    0    0  502    0  0.00000000000E+00  0.00000000000E+00  0.51871250451E+03  0.51871250451E+03  0.00000000000E+00 0. -1.
          1   -1    0    0  501    0 -0.00000000000E+00 -0.00000000000E+00 -0.16686973251E+03  0.16686973251E+03  0.00000000000E+00 0. -1.
         25    2    1    2    0    0 -0.59946729852E+02  0.58481817125E+02  0.28241539127E+03  0.31999615142E+03  0.12500140136E+03 0.  0.
          2    1    1    2  501    0  0.19816763043E-01  0.59104608683E+02 -0.12055340121E+03  0.13426271896E+03  0.00000000000E+00 0. -1.
          1    1    1    2  502    0  0.59926913089E+02 -0.11758642581E+03  0.18998078195E+03  0.23132336664E+03  0.00000000000E+00 0. -1.
         22    1    3    3    0    0 -0.56691952359E+02 -0.24561628767E+02  0.16463910081E+03  0.17585017653E+03  0.00000000000E+00 0.  1.
         22    1    3    3    0    0 -0.32547774931E+01  0.83043445892E+02  0.11777629046E+03  0.14414597489E+03  0.00000000000E+00 0.  1.
</event>
<event>
 7    1  0.5957303E-006  0.1615633E+03  0.7818608E-02  0.1267857E+00
          2   -1    0    0  502    0  0.00000000000E+00  0.00000000000E+00  0.58281564707E+03  0.58281564707E+03  0.00000000000E+00 0. -1.
          1   -1    0    0  501    0 -0.00000000000E+00 -0.00000000000E+00 -0.36386564639E+03  0.36386564639E+03  0.00000000000E+00 0. -1.
         25    2    1    2    0    0 -0.68205495154E+02 -0.92418168072E+02  0.39251913517E+02  0.17423964891E+03  0.12500254069E+03 0.  0.
          2    1    1    2  501    0 -0.68177647080E+02 -0.14732209871E+02 -0.27609241514E+03  0.28476701226E+03  0.00000000000E+00 0. -1.
          1    1    1    2  502    0  0.13638314223E+03  0.10715037794E+03  0.45579050231E+03  0.48767463228E+03  0.00000000000E+00 0. -1.
         22    1    3    3    0    0 -0.48285666563E+02 -0.25851360842E+02  0.77518885830E+02  0.94915626285E+02  0.00000000000E+00 0. -1.
         22    1    3    3    0    0 -0.19919828591E+02 -0.66566807230E+02 -0.38266972313E+02  0.79324022628E+02  0.00000000000E+00 0. -1.
</event>
<event>
 7    1  0.5957303E-006  0.8351982E+02  0.7818608E-02  0.1451918E+00
          2   -1    0    0  502    0  0.00000000000E+00  0.00000000000E+00  0.36772974713E+04  0.36772974713E+04  0.00000000000E+00 0. -1.
          1   -1    0    0  501    0 -0.00000000000E+00 -0.00000000000E+00 -0.38599806858E+03  0.38599806858E+03  0.00000000000E+00 0. -1.
         25    2    1    2    0    0  0.26396086333E+02  0.80975319427E+02 -0.21949051173E+03  0.26655758415E+03  0.12499242056E+03 0.  0.
          2    1    1    2  501    0  0.24435220838E+02 -0.14697224549E+02 -0.14106997042E+03  0.14392298281E+03  0.00000000000E+00 0. -1.
          1    1    1    2  502    0 -0.50831307171E+02 -0.66278094878E+02  0.36518598849E+04  0.36528149729E+04  0.00000000000E+00 0. -1.
         22    1    3    3    0    0  0.41452596182E+02  0.58218709093E+02 -0.34130501443E+02  0.79199917597E+02  0.00000000000E+00 0. -1.
         22    1    3    3    0    0 -0.15056509849E+02  0.22756610335E+02 -0.18536001028E+03  0.18735766655E+03  0.00000000000E+00 0. -1.
</event>
<event>
 7    1  0.5957303E-006  0.9972839E+02  0.7818608E-02  0.1326023E+00
          2   -1    0    0  502    0  0.00000000000E+00  0.00000000000E+00  0.40985395535E+04  0.40985395535E+04  0.00000000000E+00 0. -1.
          1   -1    0    0  501    0 -0.00000000000E+00 -0.00000000000E+00 -0.17337232840E+03  0.17337232840E+03  0.00000000000E+00 0. -1.
         25    2    1    2    0    0  0.13688482802E+03 -0.15480450748E+02  0.43683055975E+03  0.47478851616E+03  0.12500438650E+03 0.  0.
          2    1    1    2  501    0 -0.43926232989E+02  0.49143670548E+02 -0.14665548722E+03  0.16078695914E+03  0.00000000000E+00 0. -1.
          1    1    1    2  502    0 -0.92958595032E+02 -0.33663219800E+02  0.36349921526E+04  0.36363364066E+04  0.00000000000E+00 0. -1.
         22    1    3    3    0    0  0.10295207302E+03  0.11559538486E+02  0.41193963044E+03  0.42476700836E+03  0.00000000000E+00 0.  1.
         22    1    3    3    0    0  0.33932755000E+02 -0.27039989235E+02  0.24890929313E+02  0.50021507792E+02  0.00000000000E+00 0.  1.
</event>
<event>
 7    1  0.5957303E-006  0.1217115E+03  0.7818608E-02  0.1241107E+00
          2   -1    0    0  502    0  0.00000000000E+00  0.00000000000E+00  0.61796476160E+03  0.61796476160E+03  0.00000000000E+00 0. -1.
          1   -1    0    0  501    0 -0.00000000000E+00 -0.00000000000E+00 -0.15659453773E+04  0.15659453773E+04  0.00000000000E+00 0. -1.
         25    2    1    2    0    0  0.32968065234E+02  0.24056004046E+02 -0.11191351733E+03  0.17267004180E+03  0.12499889326E+03 0.  0.
          2    1    1    2  501    0 -0.77715941415E+02  0.93669231305E+02 -0.14142610214E+04  0.14194886154E+04  0.00000000000E+00 0. -1.
          1    1    1    2  502    0  0.44747876181E+02 -0.11772523535E+03  0.57819392307E+03  0.59175148173E+03  0.00000000000E+00 0. -1.
         22    1    3    3    0    0 -0.12808835869E+01 -0.31415262947E+02  0.11187235621E+02  0.33372348579E+02  0.00000000000E+00 0.  1.
         22    1    3    3    0    0  0.34248948821E+02  0.55471266993E+02 -0.12310075296E+03  0.13929769322E+03  0.00000000000E+00 0.  1.
</event>
<event>
 7    1  0.5957303E-006  0.9292495E+02  0.7818608E-02  0.1320504E+00
          2   -1    0    0  502    0  0.00000000000E+00  0.00000000000E+00  0.67681223498E+03  0.67681223498E+03  0.00000000000E+00 0. -1.
          1   -1    0    0  501    0 -0.00000000000E+00 -0.00000000000E+00 -0.53219735937E+03  0.53219735937E+03  0.00000000000E+00 0. -1.
         25    2    1    2    0    0 -0.88633779644E+02  0.11509923092E+03 -0.30548741006E+03  0.36062681761E+03  0.12500145608E+03 0.  0.
          2    1    1    2  501    0  0.56740455923E+01 -0.74079510045E+02 -0.18875825004E+03  0.20285375412E+03  0.00000000000E+00 0. -1.
          1    1    1    2  502    0  0.82959734052E+02 -0.41019720879E+02  0.63886053571E+03  0.64552902263E+03  0.00000000000E+00 0. -1.
         22    1    3    3    0    0 -0.75203141970E+01  0.10214713897E+03 -0.21660929654E+03  0.23960421631E+03  0.00000000000E+00 0.  1.
         22    1    3    3    0    0 -0.81113465447E+02  0.12952091956E+02 -0.88878113515E+02  0.12102260130E+03  0.00000000000E+00 0.  1.
</event>
<event>
 7    1  0.5957303E-006  0.4189791E+02  0.7818608E-02  0.1500108E+00
          2   -1    0    0  502    0  0.00000000000E+00  0.00000000000E+00  0.16424992500E+04  0.16424992500E+04  0.00000000000E+00 0. -1.
          1   -1    0    0  501    0 -0.00000000000E+00 -0.00000000000E+00 -0.11418103397E+03  0.11418103397E+03  0.00000000000E+00 0. -1.
         25    2    1    2    0    0 -0.10068456699E+01 -0.48090237157E+02  0.82393957945E+03  0.83475326807E+03  0.12499161301E+03 0.  0.
          2    1    1    2  501    0 -0.32845942726E+02  0.26111095057E+02 -0.10420544224E+03  0.11233618932E+03  0.00000000000E+00 0. -1.
          1    1    1    2  502    0  0.33852788395E+02  0.21979142100E+02  0.80858407886E+03  0.80959082662E+03  0.00000000000E+00 0. -1.
         22    1    3    3    0    0 -0.60295131149E+02 -0.39489336511E+02  0.51939599752E+03  0.52437306641E+03  0.00000000000E+00 0. -1.
         22    1    3    3    0    0  0.59288285479E+02 -0.86009006463E+01  0.30454358193E+03  0.31038020166E+03  0.00000000000E+00 0. -1.
</event>
<event>
 7    1  0.5957303E-006  0.4527770E+02  0.7818608E-02  0.1491815E+00
          2   -1    0    0  502    0  0.00000000000E+00  0.00000000000E+00  0.15928522417E+02  0.15928522417E+02  0.00000000000E+00 0. -1.
          1   -1    0    0  501    0 -0.00000000000E+00 -0.00000000000E+00 -0.17658729806E+04  0.17658729806E+04  0.00000000000E+00 0. -1.
         25    2    1    2    0    0  0.33020697499E+02  0.61772916125E+02 -0.88280990200E+03  0.89436322781E+03  0.12500400212E+03 0.  0.
          2    1    1    2  501    0 -0.35497054529E+02 -0.17443963175E+02 -0.82589703406E+03  0.82684354240E+03  0.00000000000E+00 0. -1.
          1    1    1    2  502    0  0.24763570300E+01 -0.44328952950E+02 -0.41237522100E+02  0.60594732797E+02  0.00000000000E+00 0. -1.
         22    1    3    3    0    0 -0.22881823663E+02 -0.86598706484E+01 -0.52002707871E+03  0.52060227987E+03  0.00000000000E+00 0.  1.
         22    1    3    3    0    0  0.55902521162E+02  0.70432786774E+02 -0.36278282330E+03  0.37376094794E+03  0.00000000000E+00 0.  1.
</event>
<event>
 7    1  0.5957303E-006  0.9281289E+02  0.7818608E-02  0.1421089E+00
          2   -1    0    0  502    0  0.00000000000E+00  0.00000000000E+00  0.17688796485E+04  0.17688796485E+04  0.00000000000E+00 0. -1.
          1   -1    0    0  501    0 -0.00000000000E+00 -0.00000000000E+00 -0.27594329750E+02  0.27594329750E+02  0.00000000000E+00 0. -1.
         25    2    1    2    0    0  0.95273506102E+02 -0.70523332184E+02  0.71909453597E+03  0.73944047480E+03  0.12499873106E+03 0.  0.
          2    1    1    2  501    0 -0.19226566438E+02  0.26010841083E+02  0.13256759320E+01  0.32372552070E+02  0.00000000000E+00 0. -1.
          1    1    1    2  502    0 -0.76046939663E+02  0.44512491101E+02  0.10208651068E+04  0.10246609514E+04  0.00000000000E+00 0. -1.
         22    1    3    3    0    0  0.11157958851E+03 -0.90489178074E+02  0.65018708218E+03  0.66586900945E+03  0.00000000000E+00 0. -1.
         22    1    3    3    0    0 -0.16306082405E+02  0.19965845890E+02  0.68907453788E+02  0.73571465345E+02  0.00000000000E+00 0. -1.
</event>
<event>
 7    1  0.5957303E-006  0.6483759E+02  0.7818608E-02  0.1412516E+00
          2   -1    0    0  502    0  0.00000000000E+00  0.00000000000E+00  0.11601982149E+03  0.11601982149E+03  0.00000000000E+00 0. -1.
          1   -1    0    0  501    0 -0.00000000000E+00 -0.00000000000E+00 -0.10420519673E+04  0.10420519673E+04  0.00000000000E+00 0. -1.
         25    2    1    2    0    0  0.65771712716E+02 -0.76088435357E+02 -0.69320174076E+02  0.17478557937E+03  0.12501737493E+03 0.  0.
          2    1    1    2  501    0 -0.46021566267E+02  0.18152939518E+02 -0.90436322936E+03  0.90571538818E+03  0.00000000000E+00 0. -1.
          1    1    1    2  502    0 -0.19750146448E+02  0.57935495839E+02  0.47651257588E+02  0.77570821271E+02  0.00000000000E+00 0. -1.
         22    1    3    3    0    0  0.24703809052E+02 -0.89238246487E+01 -0.89698900765E+02  0.93465531757E+02  0.00000000000E+00 0.  1.
         22    1    3    3    0    0  0.41067903663E+02 -0.67164610709E+02  0.20378726689E+02  0.81320047617E+02  0.00000000000E+00 0.  1.
</event>
<event>
 7    1  0.5957303E-006  0.4771005E+02  0.7818608E-02  0.1526769E+00
          2   -1    0    0  502    0  0.00000000000E+00  0.00000000000E+00  0.12169975668E+04  0.12169975668E+04  0.00000000000E+00 0. -1.
          1   -1    0    0  501    0 -0.00000000000E+00 -0.00000000000E+00 -0.36553769078E+02  0.36553769078E+02  0.00000000000E+00 0. -1.
         25    2    1    2    0    0  0.39371536628E+02 -0.57800645945E+01  0.10518791386E+04  0.10600272782E+04  0.12499832501E+03 0.  0.
          2    1    1    2  501    0 -0.33133097734E+02  0.34725259674E+02 -0.12327481366E+02  0.49554138291E+02  0.00000000000E+00 0. -1.
          1    1    1    2  502    0 -0.62384388942E+01 -0.28945195079E+02  0.14089214052E+03  0.14396991943E+03  0.00000000000E+00 0. -1.
         22    1    3    3    0    0  0.20362741915E+02 -0.61755917210E+01  0.24411112651E+02  0.32383353938E+02  0.00000000000E+00 0.  1.
         22    1    3    3    0    0  0.19008794713E+02  0.39552712650E+00  0.10274680259E+04  0.10276439242E+04  0.00000000000E+00 0.  1.
</event>
<event>
 7    1  0.5957303E-006  0.9947841E+02  0.7818608E-02  0.1345243E+00
          2   -1    0    0  502    0  0.00000000000E+00  0.00000000000E+00  0.13289303968E+03  0.13289303968E+03  0.00000000000E+00 0. -1.
          1   -1    0    0  501    0 -0.00000000000E+00 -0.00000000000E+00 -0.19007749400E+04  0.19007749400E+04  0.00000000000E+00 0. -1.
         25    2    1    2    0    0  0.59269276347E+02  0.12756988595E+02 -0.11077887957E+03  0.17768650777E+03  0.12499978803E+03 0.  0.
          2    1    1    2  501    0 -0.77448988770E+02 -0.65598413434E+02 -0.17471005519E+04  0.17500462383E+04  0.00000000000E+00 0. -1.
          1    1    1    2  502    0  0.18179712423E+02  0.52841424839E+02  0.89997531120E+02  0.10593523366E+03  0.00000000000E+00 0. -1.
         22    1    3    3    0    0 -0.31302715464E+02  0.16385823857E+02 -0.10335903958E+01  0.35347185574E+02  0.00000000000E+00 0. -1.
         22    1    3    3    0    0  0.90571991811E+02 -0.36288352626E+01 -0.10974528917E+03  0.14233932219E+03  0.00000000000E+00 0. -1.
</event>
<event>
 7    1  0.5957303E-006  0.8073742E+02  0.7818608E-02  0.1388652E+00
          2   -1    0    0  502    0  0.00000000000E+00  0.00000000000E+00  0.21585660488E+03  0.21585660488E+03  0.00000000000E+00 0. -1.
          1   -1    0    0  501    0 -0.00000000000E+00 -0.00000000000E+00 -0.23484907124E+04  0.23484907124E+04  0.00000000000E+00 0. -1.
         25    2    1    2    0    0  0.22085970197E+01 -0.11736419076E+03 -0.14333879900E+04  0.14436089852E+04  0.12500616419E+03 0.  0.
          2    1    1    2  501    0 -0.25943725028E+02  0.40367532373E+02 -0.90162981058E+03  0.90290582558E+03  0.00000000000E+00 0. -1.
          1    1    1    2  502    0  0.23735128008E+02  0.76996658385E+02  0.20238369302E+03  0.21783250654E+03  0.00000000000E+00 0. -1.
         22    1    3    3    0    0 -0.59110214306E+02 -0.49596442460E+02 -0.52586925765E+03  0.53150004767E+03  0.00000000000E+00 0. -1.
         22    1    3    3    0    0  0.61318811325E+02 -0.67767748298E+02 -0.90751873234E+03  0.91210893751E+03  0.00000000000E+00 0. -1.
</event>
<event>
 7    1  0.5957303E-006  0.5299140E+02  0.7818608E-02  0.1506267E+00
          2   -1    0    0  502    0  0.00000000000E+00  0.00000000000E+00  0.18823552125E+03  0.18823552125E+03  0.00000000000E+00 0. -1.
          1   -1    0    0  501    0 -0.00000000000E+00 -0.00000000000E+00 -0.70785656252E+03  0.70785656252E+03  0.00000000000E+00 0. -1.
         25    2    1    2    0    0  0.71209894286E+01  0.38842582370E+02 -0.32363745120E+02  0.13502673301E+03  0.12500140772E+03 0.  0.
          2    1    1    2  501    0  0.21811683499E+02 -0.48792534700E+02 -0.62129017758E+03  0.62358475425E+03  0.00000000000E+00 0. -1.
          1    1    1    2  502    0 -0.28932672928E+02  0.99499523294E+01  0.13403288143E+03  0.13748059651E+03  0.00000000000E+00 0. -1.
         22    1    3    3    0    0 -0.69533017275E+01  0.79292723336E+02  0.27488752769E+01  0.79644464304E+02  0.00000000000E+00 0. -1.
         22    1    3    3    0    0  0.14074291156E+02 -0.40450140966E+02 -0.35112620397E+02  0.55382268704E+02  0.00000000000E+00 0. -1.
</event>
<event>
 7    1  0.5957303E-006  0.2163277E+03  0.7818608E-02  0.1206347E+00
          2   -1    0    0  502    0  0.00000000000E+00  0.00000000000E+00  0.93662155030E+03  0.93662155030E+03  0.00000000000E+00 0. -1.
          1   -1    0    0  501    0 -0.00000000000E+00 -0.00000000000E+00 -0.17881546043E+04  0.17881546043E+04  0.00000000000E+00 0. -1.
         25    2    1    2    0    0  0.11539054791E+03  0.22110218988E+03 -0.27444748080E+01  0.27898536629E+03  0.12499658214E+03 0.  0.
          2    1    1    2  501    0 -0.97355805946E+02 -0.71434845123E+01 -0.16313698491E+04  0.16342878470E+04  0.00000000000E+00 0. -1.
          1    1    1    2  502    0 -0.18034741968E+02 -0.21395870537E+03  0.78258126998E+03  0.81150294124E+03  0.00000000000E+00 0. -1.
         22    1    3    3    0    0 -0.20323422432E+01  0.13073429875E+03 -0.39561658473E+01  0.13080993286E+03  0.00000000000E+00 0.  1.
         22    1    3    3    0    0  0.11742289016E+03  0.90367891123E+02  0.12116910393E+01  0.14817543344E+03  0.00000000000E+00 0.  1.
</event>
<event>
 7    1  0.5957303E-006  0.9745799E+02  0.7818608E-02  0.1292345E+00
          2   -1    0    0  502    0  0.00000000000E+00  0.00000000000E+00  0.14833945191E+04  0.14833945191E+04  0.00000000000E+00 0. -1.
          1   -1    0    0  501    0 -0.00000000000E+00 -0.00000000000E+00 -0.12792338841E+04  0.12792338841E+04  0.00000000000E+00 0. -1.
         25    2    1    2    0    0 -0.75384290228E+02  0.12669416562E+03  0.41989050678E+03  0.46224224727E+03  0.12500261863E+03 0.  0.
          2    1    1    2  501    0 -0.12544593918E+02 -0.90735150405E+02 -0.12542198480E+04  0.12575602020E+04  0.00000000000E+00 0. -1.
          1    1    1    2  502    0  0.87928884146E+02 -0.35959015212E+02  0.10384899763E+04  0.10428259540E+04  0.00000000000E+00 0. -1.
         22    1    3    3    0    0 -0.57962941774E+00 -0.22001885421E+02  0.91073612613E+02  0.93695367263E+02  0.00000000000E+00 0.  1.
         22    1    3    3    0    0 -0.74804660810E+02  0.14869605104E+03  0.32881689416E+03  0.36854688000E+03  0.00000000000E+00 0.  1.
</event>
<event>
 7    1  0.5957303E-006  0.5776571E+02  0.7818608E-02  0.1506663E+00
          2   -1    0    0  502    0  0.00000000000E+00  0.00000000000E+00  0.98027243139E+03  0.98027243139E+03  0.00000000000E+00 0. -1.
          1   -1    0    0  501    0 -0.00000000000E+00 -0.00000000000E+00 -0.14223816851E+02  0.14223816851E+02  0.00000000000E+00 0. -1.
         25    2    1    2    0    0  0.68970215677E+02  0.50429093168E+01  0.56550765110E+03  0.58327252757E+03  0.12500246552E+03 0.  0.
          2    1    1    2  501    0 -0.52655595736E+02  0.17702423708E+02  0.16667941272E+03  0.17569295430E+03  0.00000000000E+00 0. -1.
          1    1    1    2  502    0 -0.16314619940E+02 -0.22745333025E+02  0.23386155072E+03  0.23553076636E+03  0.00000000000E+00 0. -1.
         22    1    3    3    0    0 -0.34665179962E+02  0.67478882767E+01  0.91818792030E+02  0.98376314568E+02  0.00000000000E+00 0. -1.
         22    1    3    3    0    0  0.10363539564E+03 -0.17049789599E+01  0.47368885907E+03  0.48489621301E+03  0.00000000000E+00 0. -1.
</event>
<event>
 7    1  0.5957303E-006  0.2080006E+03  0.7818608E-02  0.1230026E+00
          2   -1    0    0  502    0  0.00000000000E+00  0.00000000000E+00  0.34528508611E+04  0.34528508611E+04  0.00000000000E+00 0. -1.
          1   -1    0    0  501    0 -0.00000000000E+00 -0.00000000000E+00 -0.12012809996E+04  0.12012809996E+04  0.00000000000E+00 0. -1.
         25    2    1    2    0    0 -0.11181155071E+03 -0.12550750430E+03  0.12216504421E+04  0.12394791205E+04  0.12499892382E+03 0.  0.
          2    1    1    2  501    0  0.18510083200E+03  0.95702872412E+02 -0.11825501433E+04  0.12007690032E+04  0.00000000000E+00 0. -1.
          1    1    1    2  502    0 -0.73289281286E+02  0.29804631887E+02  0.22124695627E+04  0.22138837369E+04  0.00000000000E+00 0. -1.
         22    1    3    3    0    0 -0.10432862092E+03 -0.25176955244E+02  0.70522402571E+03  0.71334372266E+03  0.00000000000E+00 0.  1.
         22    1    3    3    0    0 -0.74829297868E+01 -0.10033054906E+03  0.51642641635E+03  0.52613539780E+03  0.00000000000E+00 0.  1.
</event>
<event>
 7    1  0.5957303E-006  0.1132521E+03  0.7818608E-02  0.1304816E+00
          2   -1    0    0  502    0  0.00000000000E+00  0.00000000000E+00  0.73474817081E+03  0.73474817081E+03  0.00000000000E+00 0. -1.
          1   -1    0    0  501    0 -0.00000000000E+00 -0.00000000000E+00 -0.79105465162E+03  0.79105465162E+03  0.00000000000E+00 0. -1.
         25    2    1    2    0    0 -0.95948208872E+02 -0.12275249328E+03  0.10011791852E+01  0.19975077245E+03  0.12500054137E+03 0.  0.
          2    1    1    2  501    0  0.98787227593E+02  0.52563609185E+02 -0.68518245069E+03  0.69425992256E+03  0.00000000000E+00 0. -1.
          1    1    1    2  502    0 -0.28390187217E+01  0.70188884099E+02  0.62787479069E+03  0.63179212741E+03  0.00000000000E+00 0. -1.
         22    1    3    3    0    0 -0.10211241069E+03 -0.14390154815E+03 -0.62451891748E+01  0.17656047793E+03  0.00000000000E+00 0.  1.
         22    1    3    3    0    0  0.61642018143E+01  0.21149054871E+02  0.72463683600E+01  0.23190294529E+02  0.00000000000E+00 0.  1.
</event>
<event>
 7    1  0.5957303E-006  0.9994996E+02  0.7818608E-02  0.1443032E+00
          2   -1    0    0  502    0  0.00000000000E+00  0.00000000000E+00  0.59242945837E+03  0.59242945837E+03  0.00000000000E+00 0. -1.
          1   -1    0    0  501    0 -0.00000000000E+00 -0.00000000000E+00 -0.16635669954E+04  0.16635669954E+04  0.00000000000E+00 0. -1.
         25    2    1    2    0    0 -0.12374693368E+03 -0.16971187221E+02 -0.19670700484E+03  0.26442451352E+03  0.12500141122E+03 0.  0.
          2    1    1    2  501    0  0.25111519257E+02  0.41082275223E+01 -0.14284585853E+04  0.14286851983E+04  0.00000000000E+00 0. -1.
          1    1    1    2  502    0  0.98635414424E+02  0.12862959698E+02  0.55402805308E+03  0.56288674199E+03  0.00000000000E+00 0. -1.
         22    1    3    3    0    0 -0.13644443146E+03 -0.39220457343E+02 -0.19132995969E+03  0.23824877886E+03  0.00000000000E+00 0.  1.
         22    1    3    3    0    0  0.12697497779E+02  0.22249270122E+02 -0.53770451525E+01  0.26175734668E+02  0.00000000000E+00 0.  1.
</event>
<event>
 7    1  0.5957303E-006  0.2969884E+02  0.7818608E-02  0.1620869E+00
          2   -1    0    0  502    0  0.00000000000E+00  0.00000000000E+00  0.97470951989E+03  0.97470951989E+03  0.00000000000E+00 0. -1.
          1   -1    0    0  501    0 -0.00000000000E+00 -0.00000000000E+00 -0.16838813026E+04  0.16838813026E+04  0.00000000000E+00 0. -1.
         25    2    1    2    0    0 -0.14401373617E+02  0.80882348761E+01  0.51903022186E+03  0.53412583819E+03  0.12500088282E+03 0.  0.
          2    1    1    2  501    0 -0.88922777516E+00 -0.29691038155E+02 -0.16758109797E+04  0.16760742192E+04  0.00000000000E+00 0. -1.
          1    1    1    2  502    0  0.15290601393E+02  0.21602803279E+02  0.44760897515E+03  0.44839076511E+03  0.00000000000E+00 0. -1.
         22    1    3    3    0    0  0.37462820763E+02  0.46926903179E+02  0.21241042292E+03  0.22073464827E+03  0.00000000000E+00 0. -1.
         22    1    3    3    0    0 -0.51864194380E+02 -0.38838668303E+02  0.30661979895E+03  0.31339118992E+03  0.00000000000E+00 0. -1.
</event>
<event>
 7    1  0.5957303E-006  0.2059963E+03  0.7818608E-02  0.1210345E+00
          2   -1    0    0  502    0  0.00000000000E+00  0.00000000000E+00  0.19016512799E+04  0.19016512799E+04  0.00000000000E+00 0. -1.
          1   -1    0    0  501    0 -0.00000000000E+00 -0.00000000000E+00 -0.79837322706E+02  0.79837322706E+02  0.00000000000E+00 0. -1.
         25    2    1    2    0    0  0.59328978980E+02 -0.17861022934E+03  0.31532309620E+03  0.38791083282E+03  0.12499846978E+03 0.  0.
          2    1    1    2  501    0 -0.15713185164E+03  0.16958845997E+03  0.27978724130E+03  0.36294843290E+03  0.00000000000E+00 0. -1.
          1    1    1    2  502    0  0.97802872661E+02  0.90217693754E+01  0.12267036197E+04  0.12306293369E+04  0.00000000000E+00 0. -1.
         22    1    3    3    0    0  0.87431409388E+02 -0.14835850337E+03  0.19225985359E+03  0.25810530442E+03  0.00000000000E+00 0.  1.
         22    1    3    3    0    0 -0.28102430409E+02 -0.30251725973E+02  0.12306324261E+03  0.12980552839E+03  0.00000000000E+00 0.  1.
</event>
<event>
 7    1  0.5957303E-006  0.7658895E+02  0.7818608E-02  0.1373127E+00
          2   -1    0    0  502    0  0.00000000000E+00  0.00000000000E+00  0.27950660292E+04  0.27950660292E+04  0.00000000000E+00 0. -1.
          1   -1    0    0  501    0 -0.00000000000E+00 -0.00000000000E+00 -0.36420726338E+03  0.36420726338E+03  0.00000000000E+00 0. -1.
         25    2    1    2    0    0  0.89299763115E+02  0.60426260442E+01  0.26645632555E+03  0.30762799559E+03  0.12500019689E+03 0.  0.
          2    1    1    2  501    0 -0.33447592007E+02  0.46651300436E+02 -0.34063170631E+03  0.34543457353E+03  0.00000000000E+00 0. -1.
          1    1    1    2  502    0 -0.55852171108E+02 -0.52693926480E+02  0.25050341465E+04  0.25062107234E+04  0.00000000000E+00 0. -1.
         22    1    3    3    0    0  0.39519136833E+02 -0.37037143587E+02  0.29454891944E+02  0.61653084599E+02  0.00000000000E+00 0. -1.
         22    1    3    3    0    0  0.49780626282E+02  0.43079769631E+02  0.23700143361E+03  0.24597491099E+03  0.00000000000E+00 0. -1.
</event>
<event>
 7    1  0.5957303E-006  0.5932044E+02  0.7818608E-02  0.1449341E+00
          2   -1    0    0  502    0  0.00000000000E+00  0.00000000000E+00  0.73493479399E+03  0.73493479399E+03  0.00000000000E+00 0. -1.
          1   -1    0    0  501    0 -0.00000000000E+00 -0.00000000000E+00 -0.96493545715E+03  0.96493545715E+03  0.00000000000E+00 0. -1.
         25    2    1    2    0    0 -0.70538350734E+02  0.71023198451E+02 -0.37649157160E+03  0.40913445288E+03  0.12500057361E+03 0.  0.
          2    1    1    2  501    0  0.28339128167E+02 -0.29512593665E+02 -0.57016912515E+03  0.57163531263E+03  0.00000000000E+00 0. -1.
          1    1    1    2  502    0  0.42199222567E+02 -0.41510604786E+02  0.71666003359E+03  0.71910048563E+03  0.00000000000E+00 0. -1.
         22    1    3    3    0    0  0.24114334969E+02  0.80532585705E+01 -0.18268093283E+03  0.18444153368E+03  0.00000000000E+00 0. -1.
         22    1    3    3    0    0 -0.94652685703E+02  0.62969939880E+02 -0.19381063877E+03  0.22469291920E+03  0.00000000000E+00 0. -1.
</event>
<event>
 7    1  0.5957303E-006  0.6246491E+02  0.7818608E-02  0.1389269E+00
          2   -1    0    0  502    0  0.00000000000E+00  0.00000000000E+00  0.39000381841E+04  0.39000381841E+04  0.00000000000E+00 0. -1.
          1   -1    0    0  501    0 -0.00000000000E+00 -0.00000000000E+00 -0.23507874791E+02  0.23507874791E+02  0.00000000000E+00 0. -1.
         25    2    1    2    0    0  0.28522680958E+02 -0.20301817392E+02  0.84957717554E+03  0.85943703337E+03  0.12499972002E+03 0.  0.
          2    1    1    2  501    0 -0.43179164920E+02 -0.44094505490E+02  0.34065344849E+02  0.70492647966E+02  0.00000000000E+00 0. -1.
          1    1    1    2  502    0  0.14656483962E+02  0.64396322882E+02  0.29928877889E+04  0.29936163776E+04  0.00000000000E+00 0. -1.
         22    1    3    3    0    0  0.54655334059E+02  0.19879004945E+02  0.20528071532E+03  0.21336014731E+03  0.00000000000E+00 0.  1.
         22    1    3    3    0    0 -0.26132653101E+02 -0.40180822337E+02  0.64429646022E+03  0.64607688606E+03  0.00000000000E+00 0.  1.
</event>
<event>
 7    1  0.5957303E-006  0.8235340E+02  0.7818608E-02  0.1345775E+00
          2   -1    0    0  502    0  0.00000000000E+00  0.00000000000E+00  0.22676739168E+02  0.22676739168E+02  0.00000000000E+00 0. -1.
          1   -1    0    0  501    0 -0.00000000000E+00 -0.00000000000E+00 -0.18952056408E+04  0.18952056408E+04  0.00000000000E+00 0. -1.
         25    2    1    2    0    0 -0.62351802843E+02  0.51742898401E+02 -0.78335756650E+03  0.79739544097E+03  0.12500134975E+03 0.  0.
          2    1    1    2  501    0  0.87729386515E+02  0.10474549526E+02 -0.10208273558E+04  0.10246436706E+04  0.00000000000E+00 0. -1.
          1    1    1    2  502    0 -0.25377583672E+02 -0.62217447927E+02 -0.68343979382E+02  0.95843268399E+02  0.00000000000E+00 0. -1.
         22    1    3    3    0    0 -0.55573655383E+02  0.27277017520E+02 -0.76115665573E+03  0.76367003439E+03  0.00000000000E+00 0. -1.
         22    1    3    3    0    0 -0.67781474605E+01  0.24465880881E+02 -0.22200910763E+02  0.33725406580E+02  0.00000000000E+00 0. -1.
</event>
<event>
 7    1  0.5957303E-006  0.1389357E+03  0.7818608E-02  0.1217997E+00
          2   -1    0    0  502    0  0.00000000000E+00  0.00000000000E+00  0.18455920982E+03  0.18455920982E+03  0.00000000000E+00 0. -1.
          1   -1    0    0  501    0 -0.00000000000E+00 -0.00000000000E+00 -0.13484045778E+04  0.13484045778E+04  0.00000000000E+00 0. -1.
         25    2    1    2    0    0 -0.14384649429E+03 -0.40660832417E+01 -0.28914774840E+03  0.34631867200E+03  0.12498742023E+03 0.  0.
          2    1    1    2  501    0  0.88898205299E+02 -0.11845317834E+03 -0.99524000284E+03  0.10061991401E+04  0.00000000000E+00 0. -1.
          1    1    1    2  502    0  0.54948288992E+02  0.12251926158E+03  0.12054238323E+03  0.18044597551E+03  0.00000000000E+00 0. -1.
         22    1    3    3    0    0 -0.59907126004E+02 -0.46079835139E+02 -0.53314429648E+02  0.92491315058E+02  0.00000000000E+00 0. -1.
         22    1    3    3    0    0 -0.83939368288E+02  0.42013751897E+02 -0.23583331875E+03  0.25382735694E+03  0.00000000000E+00 0. -1.
</event>
<event>
 7    1  0.5957303E-006  0.8525270E+02  0.7818608E-02  0.1482894E+00
          2   -1    0    0  502    0  0.00000000000E+00  0.00000000000E+00  0.14716530514E+04  0.14716530514E+04  0.00000000000E+00 0. -1.
          1   -1    0    0  501    0 -0.00000000000E+00 -0.00000000000E+00 -0.12891790700E+03  0.12891790700E+03  0.00000000000E+00 0. -1.
         25    2    1    2    0    0  0.95877150429E+02 -0.35873888927E+02  0.95243183495E+02  0.18755174010E+03  0.12500010932E+03 0.  0.
          2    1    1    2  501    0 -0.80456691401E+02  0.19684806312E+02 -0.61920281657E+02  0.10341611128E+03  0.00000000000E+00 0. -1.
          1    1    1    2  502    0 -0.15420459027E+02  0.16189082615E+02  0.13094122426E+04  0.13096031071E+04  0.00000000000E+00 0. -1.
         22    1    3    3    0    0  0.96790637693E+02 -0.12877943531E+02  0.11936326692E+03  0.15421367794E+03  0.00000000000E+00 0.  1.
         22    1    3    3    0    0 -0.91348726405E+00 -0.22995945396E+02 -0.24120083428E+02  0.33338062155E+02  0.00000000000E+00 0.  1.
</event>
<event>
 7    1  0.5957303E-006  0.1430565E+03  0.7818608E-02  0.1252926E+00
          2   -1    0    0  502    0  0.00000000000E+00  0.00000000000E+00  0.33503977586E+04  0.33503977586E+04  0.00000000000E+00 0. -1.
          1   -1    0    0  501    0 -0.00000000000E+00 -0.00000000000E+00 -0.19098205133E+03  0.19098205133E+03  0.00000000000E+00 0. -1.
         25    2    1    2    0    0  0.65628499666E+02 -0.13450686420E+02  0.20602281352E+03  0.25011614486E+03  0.12499866119E+03 0.  0.
          2    1    1    2  501    0 -0.14121103943E+03  0.64518045707E+02 -0.13244940679E+03  0.20407347019E+03  0.00000000000E+00 0. -1.
          1    1    1    2  502    0  0.75582539762E+02 -0.51067359287E+02  0.30858423006E+04  0.30871901949E+04  0.00000000000E+00 0. -1.
         22    1    3    3    0    0  0.41565932604E+00 -0.18734771711E+02 -0.12157165727E+02  0.22337437684E+02  0.00000000000E+00 0. -1.
         22    1    3    3    0    0  0.65212840340E+02  0.52840852919E+01  0.21817997924E+03  0.22777870718E+03  0.00000000000E+00 0. -1.
</event>
<event>
 7    1  0.5957303E-006  0.6205232E+02  0.7818608E-02  0.1493640E+00
          2   -1    0    0  502    0  0.00000000000E+00  0.00000000000E+00  0.17189886597E+03  0.17189886597E+03  0.00000000000E+00 0. -1.
          1   -1    0    0  501    0 -0.00000000000E+00 -0.00000000000E+00 -0.47706536772E+03  0.47706536772E+03  0.00000000000E+00 0. -1.
         25    2    1    2    0    0 -0.54389074983E+02  0.15688637639E+02 -0.47849573436E+02  0.14531492056E+03  0.12499015814E+03 0.  0.
          2    1    1    2  501    0 -0.74811332573E+01 -0.27497020868E+02 -0.37184930162E+03  0.37293961526E+03  0.00000000000E+00 0. -1.
          1    1    1    2  502    0  0.61870208240E+02  0.11808383229E+02  0.11453237330E+03  0.13070969787E+03  0.00000000000E+00 0. -1.
         22    1    3    3    0    0  0.52293161919E+00 -0.50565522908E+02 -0.11258463981E+02  0.51806356518E+02  0.00000000000E+00 0.  1.
         22    1    3    3    0    0 -0.54912006602E+02  0.66254160547E+02 -0.36591109455E+02  0.93508564046E+02  0.00000000000E+00 0.  1.
</event>
<event>
 7    1  0.5957303E-006  0.1183842E+03  0.7818608E-02  0.1285312E+00
          2   -1    0    0  502    0  0.00000000000E+00  0.00000000000E+00  0.19128776535E+04  0.19128776535E+04  0.00000000000E+00 0. -1.
          1   -1    0    0  501    0 -0.00000000000E+00 -0.00000000000E+00 -0.78016727458E+03  0.78016727458E+03  0.00000000000E+00 0. -1.
         25    2    1    2    0    0 -0.18148575348E+00  0.15135915427E+03  0.86367352449E+03  0.88570002381E+03  0.12499179472E+03 0.  0.
          2    1    1    2  501    0 -0.62343547885E+02 -0.10057529111E+03 -0.76302426300E+03  0.77214515026E+03  0.00000000000E+00 0. -1.
          1    1    1    2  502    0  0.62525033638E+02 -0.50783863163E+02  0.10320611174E+04  0.10351997540E+04  0.00000000000E+00 0. -1.
         22    1    3    3    0    0  0.62038672857E+02  0.65455370321E+02  0.40614289527E+03  0.41603515935E+03  0.00000000000E+00 0.  1.
         22    1    3    3    0    0 -0.62220158611E+02  0.85903783951E+02  0.45753062922E+03  0.46966486446E+03  0.00000000000E+00 0.  1.
</event>
<event>
 7    1  0.5957303E-006  0.1389609E+03  0.7818608E-02  0.1360644E+00
          2   -1    0    0  502    0  0.00000000000E+00  0.00000000000E+00  0.24633360267E+03  0.24633360267E+03  0.00000000000E+00 0. -1.
          1   -1    0    0  501    0 -0.00000000000E+00 -0.00000000000E+00 -0.21698902240E+03  0.21698902240E+03  0.00000000000E+00 0. -1.
         25    2    1    2    0    0 -0.89925208862E+02  0.68896647957E+02  0.44340783652E+02  0.17442634601E+03  0.12500061520E+03 0.  0.
          2    1    1    2  501    0  0.12209625002E+03 -0.82930722761E+02 -0.11229566840E+03  0.18545974277E+03  0.00000000000E+00 0. -1.
          1    1    1    2  502    0 -0.32171041158E+02  0.14034074803E+02  0.97299465028E+02  0.10343653629E+03  0.00000000000E+00 0. -1.
         22    1    3    3    0    0  0.13247443550E+02  0.61493417553E+02  0.31011689419E+02  0.70133159373E+02  0.00000000000E+00 0.  1.
         22    1    3    3    0    0 -0.10317265241E+03  0.74032304045E+01  0.13329094232E+02  0.10429318664E+03  0.00000000000E+00 0.  1.
</event>
<event>
 7    1  0.5957303E-006  0.5906684E+02  0.7818608E-02  0.1503624E+00
          2   -1    0    0  502    0  0.00000000000E+00  0.00000000000E+00  0.16793090767E+04  0.16793090767E+04  0.00000000000E+00 0. -1.
          1   -1    0    0  501    0 -0.00000000000E+00 -0.00000000000E+00 -0.11073439442E+03  0.11073439442E+03  0.00000000000E+00 0. -1.
         25    2    1    2    0    0  0.69804263776E+02 -0.50410194631E+02  0.27228714881E+03  0.31173551585E+03  0.12499966988E+03 0.  0.
          2    1    1    2  501    0 -0.23594590296E+02  0.14980153822E+02 -0.88238055683E+02  0.92558436517E+02  0.00000000000E+00 0. -1.
          1    1    1    2  502    0 -0.46209673480E+02  0.35430040809E+02  0.13845255892E+04  0.13857495188E+04  0.00000000000E+00 0. -1.
         22    1    3    3    0    0 -0.35626574527E+02 -0.16113217951E+02  0.93717937447E+02  0.10154772476E+03  0.00000000000E+00 0. -1.
         22    1    3    3    0    0  0.10543083830E+03 -0.34296976680E+02  0.17856921137E+03  0.21018779109E+03  0.00000000000E+00 0. -1.
</event>
<event>
 7    1  0.5957303E-006  0.2864330E+02  0.7818608E-02  0.1640286E+00
          2   -1    0    0  502    0  0.00000000000E+00  0.00000000000E+00  0.19126044806E+04  0.19126044806E+04  0.00000000000E+00 0. -1.
          1   -1    0    0  501    0 -0.00000000000E+00 -0.00000000000E+00 -0.70451578199E+03  0.70451578199E+03  0.00000000000E+00 0. -1.
         25    2    1    2    0    0 -0.83763594968E+01  0.16452840885E+01 -0.13641957956E+03  0.18522332585E+03  0.12499803357E+03 0.  0.
          2    1    1    2  501    0 -0.40210762630E+01  0.24193722381E+02 -0.54330892787E+03  0.54386220347E+03  0.00000000000E+00 0. -1.
          1    1    1    2  502    0  0.12397435760E+02 -0.25839006470E+02  0.18878172060E+04  0.18880347332E+04  0.00000000000E+00 0. -1.
         22    1    3    3    0    0 -0.26403893131E+02  0.45034301027E+02 -0.12698973434E+03  0.13730129814E+03  0.00000000000E+00 0. -1.
         22    1    3    3    0    0  0.18027533635E+02 -0.43389016938E+02 -0.94298452143E+01  0.47922027718E+02  0.00000000000E+00 0. -1.
</event>
<event>
 7    1  0.5957303E-006  0.2080544E+03  0.7818608E-02  0.1267942E+00
          2   -1    0    0  502    0  0.00000000000E+00  0.00000000000E+00  0.23280248533E+03  0.23280248533E+03  0.00000000000E+00 0. -1.
          1   -1    0    0  501    0 -0.00000000000E+00 -0.00000000000E+00 -0.27517833637E+04  0.27517833637E+04  0.00000000000E+00 0. -1.
         25    2    1    2    0    0 -0.14801252969E+03  0.16595600902E+03 -0.82324682060E+03  0.86186404285E+03  0.12500077940E+03 0.  0.
          2    1    1    2  501    0 -0.23344974751E+02 -0.48826452340E+02 -0.18582910959E+04  0.18590790213E+04  0.00000000000E+00 0. -1.
          1    1    1    2  502    0  0.17135750444E+03 -0.11712955668E+03  0.16255703813E+03  0.26364278489E+03  0.00000000000E+00 0. -1.
         22    1    3    3    0    0 -0.10312194973E+02  0.97175755462E+02 -0.39109094402E+03  0.40311486614E+03  0.00000000000E+00 0. -1.
         22    1    3    3    0    0 -0.13770033472E+03  0.68780253557E+02 -0.43215587659E+03  0.45874917671E+03  0.00000000000E+00 0. -1.
</event>
<event>
 7    1  0.7279203E-006  0.9277187E+02  0.7818608E-02  0.1320783E+00
          2   -1    0    0  502    0  0.00000000000E+00  0.00000000000E+00  0.27197558046E+04  0.27197558046E+04  0.00000000000E+00 0. -1.
          1   -1    0    0  501    0 -0.00000000000E+00 -0.00000000000E+00 -0.52662055245E+03  0.52662055245E+03  0.00000000000E+00 0. -1.
         25    2    1    2    0    0  0.11345987215E+03 -0.97361605300E+02 -0.16649945823E+03  0.25631964286E+03  0.12500105980E+03 0.  0.
          2    1    1    2  501    0 -0.72877342938E+02  0.14125029938E+02 -0.31002647087E+03  0.31878995628E+03  0.00000000000E+00 0. -1.
          1    1    1    2  502    0 -0.40582529215E+02  0.83236575362E+02  0.26696611813E+04  0.26712667579E+04  0.00000000000E+00 0. -1.
         22    1    3    3    0    0  0.43316215724E+02 -0.55997190462E+02  0.19792530752E+00  0.70795614686E+02  0.00000000000E+00 0. -1.
         22    1    3    3    0    0  0.70143656428E+02 -0.41364414837E+02 -0.16669738354E+03  0.18552402818E+03  0.00000000000E+00 0. -1.
</event>
<event>
 7    1  0.5957303E-006  0.7465331E+02  0.7818608E-02  0.1345494E+00
          2   -1    0    0  502    0  0.00000000000E+00  0.00000000000E+00  0.14940296239E+04  0.14940296239E+04  0.00000000000E+00 0. -1.
          1   -1    0    0  501    0 -0.00000000000E+00 -0.00000000000E+00 -0.68955076715E+02  0.68955076715E+02  0.00000000000E+00 0. -1.
         25    2    1    2    0    0  0.58013269229E+01 -0.31041781392E+01  0.35524889486E+03  0.37665557869E+03  0.12499742537E+03 0.  0.
          2    1    1    2  501    0 -0.77815383614E+02 -0.16570496790E+02 -0.29216046084E+02  0.84754897438E+02  0.00000000000E+00 0. -1.
          1    1    1    2  502    0  0.72014056691E+02  0.19674674929E+02  0.10990416984E+04  0.11015742244E+04  0.00000000000E+00 0. -1.
         22    1    3    3    0    0  0.16398150787E+02 -0.55934962167E+02  0.99710649696E+02  0.11549819481E+03  0.00000000000E+00 0.  1.
         22    1    3    3    0    0 -0.10596823864E+02  0.52830784028E+02  0.25553824516E+03  0.26115738388E+03  0.00000000000E+00 0.  1.
</event>
<event>
 7    1  0.5957303E-006  0.7829789E+02  0.7818608E-02  0.1422513E+00
          2   -1    0    0  502    0  0.00000000000E+00  0.00000000000E+00  0.90637542158E+03  0.90637542158E+03  0.00000000000E+00 0. -1.
          1   -1    0    0  501    0 -0.00000000000E+00 -0.00000000000E+00 -0.89264533659E+02  0.89264533659E+02  0.00000000000E+00 0. -1.
         25    2    1    2    0    0  0.12228515287E+01  0.10648601333E+03  0.20546661597E+03  0.26302454124E+03  0.12499845045E+03 0.  0.
          2    1    1    2  501    0  0.19003147330E+02 -0.32820549543E+02 -0.52126625113E+02  0.64463114465E+02  0.00000000000E+00 0. -1.
          1    1    1    2  502    0 -0.20225998859E+02 -0.73665463789E+02  0.66377089706E+03  0.66815229953E+03  0.00000000000E+00 0. -1.
         22    1    3    3    0    0 -0.30797073356E+01  0.17313994866E+02 -0.16290384699E+02  0.23971559172E+02  0.00000000000E+00 0. -1.
         22    1    3    3    0    0  0.43025588643E+01  0.89172018467E+02  0.22175700067E+03  0.23905298207E+03  0.00000000000E+00 0. -1.
</event>
<event>
 7    1  0.5957303E-006  0.7523436E+02  0.7818608E-02  0.1445070E+00
          2   -1    0    0  502    0  0.00000000000E+00  0.00000000000E+00  0.24282601794E+03  0.24282601794E+03  0.00000000000E+00 0. -1.
          1   -1    0    0  501    0 -0.00000000000E+00 -0.00000000000E+00 -0.12442730027E+03  0.12442730027E+03  0.00000000000E+00 0. -1.
         25    2    1    2    0    0  0.20484010322E+02  0.51907985581E+02  0.14845944178E+03  0.20194385431E+03  0.12500832289E+03 0.  0.
          2    1    1    2  501    0  0.94899226169E+00 -0.77389157325E+02 -0.76067126376E+02  0.10851815504E+03  0.00000000000E+00 0. -1.
          1    1    1    2  502    0 -0.21433002583E+02  0.25481171743E+02  0.46006402269E+02  0.56791308868E+02  0.00000000000E+00 0. -1.
         22    1    3    3    0    0  0.54899459355E+02  0.68279723019E+02  0.61628780502E+02  0.10711758865E+03  0.00000000000E+00 0.  1.
         22    1    3    3    0    0 -0.34415449034E+02 -0.16371737437E+02  0.86830661282E+02  0.94826265652E+02  0.00000000000E+00 0.  1.
</event>
<event>
 7    1  0.5957303E-006  0.7645339E+02  0.7818608E-02  0.1365815E+00
          2   -1    0    0  502    0  0.00000000000E+00  0.00000000000E+00  0.62577695687E+03  0.62577695687E+03  0.00000000000E+00 0. -1.
          1   -1    0    0  501    0 -0.00000000000E+00 -0.00000000000E+00 -0.95690311824E+03  0.95690311824E+03  0.00000000000E+00 0. -1.
         25    2    1    2    0    0 -0.75416719760E+02 -0.37553537524E+02 -0.88372553772E+02  0.17474487865E+03  0.12501245759E+03 0.  0.
          2    1    1    2  501    0  0.25480701818E+02  0.72754161424E+02 -0.82193416784E+03  0.82554116217E+03  0.00000000000E+00 0. -1.
          1    1    1    2  502    0  0.49936017943E+02 -0.35200623901E+02  0.57918056024E+03  0.58239403429E+03  0.00000000000E+00 0. -1.
         22    1    3    3    0    0 -0.10929695356E+03 -0.19566433065E+02 -0.55043627807E+02  0.12392929565E+03  0.00000000000E+00 0.  1.
         22    1    3    3    0    0  0.33880233795E+02 -0.17987104459E+02 -0.33328925965E+02  0.50815582992E+02  0.00000000000E+00 0.  1.
</event>
<event>
 7    1  0.5957303E-006  0.1529631E+03  0.7818608E-02  0.1272805E+00
          2   -1    0    0  502    0  0.00000000000E+00  0.00000000000E+00  0.12009093818E+04  0.12009093818E+04  0.00000000000E+00 0. -1.
          1   -1    0    0  501    0 -0.00000000000E+00 -0.00000000000E+00 -0.36934824509E+03  0.36934824509E+03  0.00000000000E+00 0. -1.
         25    2    1    2    0    0 -0.80684506631E+02  0.16196575305E+03  0.44683240712E+03  0.49802656222E+03  0.12501344670E+03 0.  0.
          2    1    1    2  501    0  0.68635217233E+02 -0.14896010755E+02 -0.33257318400E+03  0.33990823305E+03  0.00000000000E+00 0. -1.
          1    1    1    2  502    0  0.12049289398E+02 -0.14706974230E+03  0.71730191362E+03  0.73232283165E+03  0.00000000000E+00 0. -1.
         22    1    3    3    0    0 -0.10001692901E+03  0.15848038512E+03  0.32952660596E+03  0.37908732845E+03  0.00000000000E+00 0.  1.
         22    1    3    3    0    0  0.19332422381E+02  0.34853679320E+01  0.11730580116E+03  0.11893923377E+03  0.00000000000E+00 0.  1.
</event>
<event>
 7    1  0.5957303E-006  0.7484212E+02  0.7818608E-02  0.1429856E+00
          2   -1    0    0  502    0  0.00000000000E+00  0.00000000000E+00  0.25724894525E+04  0.25724894525E+04  0.00000000000E+00 0. -1.
          1   -1    0    0  501    0 -0.00000000000E+00 -0.00000000000E+00 -0.10866676450E+02  0.10866676450E+02  0.00000000000E+00 0. -1.
         25    2    1    2    0    0  0.83984056557E+02  0.22471578657E+02  0.11642955439E+04  0.11742091708E+04  0.12499907782E+03 0.  0.
          2    1    1    2  501    0 -0.56224528575E+02 -0.47708421796E+02  0.23683803424E+03  0.24805149785E+03  0.00000000000E+00 0. -1.
          1    1    1    2  502    0 -0.27759527982E+02  0.25236843139E+02  0.11604891979E+04  0.11610954604E+04  0.00000000000E+00 0. -1.
         22    1    3    3    0    0 -0.16056405618E+02 -0.10040467085E+02  0.59348663517E+03  0.59378868739E+03  0.00000000000E+00 0. -1.
         22    1    3    3    0    0  0.10004046217E+03  0.32512045741E+02  0.57080890876E+03  0.58042048336E+03  0.00000000000E+00 0. -1.
</event>
<event>
 7    1  0.7119041E-006  0.6420662E+02  0.7818608E-02  0.1490209E+00
          2   -1    0    0  502    0  0.00000000000E+00  0.00000000000E+00  0.85297468925E+03  0.85297468925E+03  0.00000000000E+00 0. -1.
          1   -1    0    0  501    0 -0.00000000000E+00 -0.00000000000E+00 -0.19461209221E+04  0.19461209221E+04  0.00000000000E+00 0. -1.
         25    2    1    2    0    0  0.13722497743E+02  0.40774158247E+02 -0.21804450433E+03  0.25498856859E+03  0.12499970127E+03 0.  0.
          2    1    1    2  501    0  0.26612712226E+02  0.93419016532E+01 -0.17082479741E+04  0.17084808014E+04  0.00000000000E+00 0. -1.
          1    1    1    2  502    0 -0.40335209969E+02 -0.50116059901E+02  0.83314624563E+03  0.83562624135E+03  0.00000000000E+00 0. -1.
         22    1    3    3    0    0 -0.38366428097E+02  0.35180778369E+02 -0.18696202710E+03  0.19407336126E+03  0.00000000000E+00 0. -1.
         22    1    3    3    0    0  0.52088925840E+02  0.55933798787E+01 -0.31082477230E+02  0.60915207333E+02  0.00000000000E+00 0. -1.
</event>
<event>
 7    1  0.5957303E-006  0.4757836E+02  0.7818608E-02  0.1464833E+00
          2   -1    0    0  502    0  0.00000000000E+00  0.00000000000E+00  0.97375474749E+03  0.97375474749E+03  0.00000000000E+00 0. -1.
          1   -1    0    0  501    0 -0.00000000000E+00 -0.00000000000E+00 -0.26042075420E+03  0.26042075420E+03  0.00000000000E+00 0. -1.
         25    2    1    2    0    0 -0.18960034278E+02  0.15965167506E+02 -0.61850786094E+02  0.14165673588E+03  0.12500696624E+03 0.  0.
          2    1    1    2  501    0  0.35110907204E+02  0.29037722039E+02 -0.15476916537E+03  0.16133647962E+03  0.00000000000E+00 0. -1.
          1    1    1    2  502    0 -0.16150872927E+02 -0.45002889545E+02  0.92995394475E+03  0.93118228619E+03  0.00000000000E+00 0. -1.
         22    1    3    3    0    0 -0.72178427994E+02  0.39519047746E+01 -0.41986512964E+02  0.83595515968E+02  0.00000000000E+00 0. -1.
         22    1    3    3    0    0  0.53218393716E+02  0.12013262732E+02 -0.19864273130E+02  0.58061219916E+02  0.00000000000E+00 0. -1.
</event>
<event>
 7    1  0.5957303E-006  0.1321993E+03  0.7818608E-02  0.1373980E+00
          2   -1    0    0  502    0  0.00000000000E+00  0.00000000000E+00  0.14302190819E+04  0.14302190819E+04  0.00000000000E+00 0. -1.
          1   -1    0    0  501    0 -0.00000000000E+00 -0.00000000000E+00 -0.68098120861E+03  0.68098120861E+03  0.00000000000E+00 0. -1.
         25    2    1    2    0    0 -0.10052815648E+03  0.12458834418E+03 -0.21951956396E+02  0.20429198477E+03  0.12500064360E+03 0.  0.
          2    1    1    2  501    0  0.90754708571E+02 -0.93044517524E+02 -0.56021436547E+03  0.57509463103E+03  0.00000000000E+00 0. -1.
          1    1    1    2  502    0  0.97734479136E+01 -0.31543826656E+02  0.13314041951E+04  0.13318136747E+04  0.00000000000E+00 0. -1.
         22    1    3    3    0    0 -0.10832705681E+03  0.13239630989E+03 -0.46588717030E+02  0.17729648238E+03  0.00000000000E+00 0.  1.
         22    1    3    3    0    0  0.77989003258E+01 -0.78079657083E+01  0.24636760634E+02  0.26995502390E+02  0.00000000000E+00 0.  1.
</event>
<event>
 7    1  0.5957303E-006  0.5983169E+02  0.7818608E-02  0.1505305E+00
          2   -1    0    0  502    0  0.00000000000E+00  0.00000000000E+00  0.61815158571E+03  0.61815158571E+03  0.00000000000E+00 0. -1.
          1   -1    0    0  501    0 -0.00000000000E+00 -0.00000000000E+00 -0.56720056724E+03  0.56720056724E+03  0.00000000000E+00 0. -1.
         25    2    1    2    0    0 -0.40943903827E+02 -0.17332583013E+02  0.34689005389E+03  0.37139287098E+03  0.12499253352E+03 0.  0.
          2    1    1    2  501    0  0.40023207724E+02  0.44593078964E+02 -0.55260698438E+03  0.55584609294E+03  0.00000000000E+00 0. -1.
          1    1    1    2  502    0  0.92069610263E+00 -0.27260495951E+02  0.25666794897E+03  0.25811318902E+03  0.00000000000E+00 0. -1.
         22    1    3    3    0    0  0.19200882386E+02 -0.36055640747E+02  0.26473458281E+03  0.26786765846E+03  0.00000000000E+00 0. -1.
         22    1    3    3    0    0 -0.60144786212E+02  0.18723057734E+02  0.82155471073E+02  0.10352521252E+03  0.00000000000E+00 0. -1.
</event>
<event>
 7    1  0.5957303E-006  0.1127803E+03  0.7818608E-02  0.1285685E+00
          2   -1    0    0  502    0  0.00000000000E+00  0.00000000000E+00  0.15267487348E+04  0.15267487348E+04  0.00000000000E+00 0. -1.
          1   -1    0    0  501    0 -0.00000000000E+00 -0.00000000000E+00 -0.20760381361E+03  0.20760381361E+03  0.00000000000E+00 0. -1.
         25    2    1    2    0    0 -0.27117132272E+02 -0.53333147673E+02  0.16935583223E+03  0.21883054523E+03  0.12500258441E+03 0.  0.
          2    1    1    2  501    0  0.55492160854E+02 -0.63401765225E+02 -0.17028653373E+03  0.18999122958E+03  0.00000000000E+00 0. -1.
          1    1    1    2  502    0 -0.28375028582E+02  0.11673491290E+03  0.13200756227E+04  0.13255307736E+04  0.00000000000E+00 0. -1.
         22    1    3    3    0    0  0.24049997648E+02 -0.28874154785E+02  0.15614019459E+03  0.16059850426E+03  0.00000000000E+00 0. -1.
         22    1    3    3    0    0 -0.51167129920E+02 -0.24458992888E+02  0.13215637635E+02  0.58232040969E+02  0.00000000000E+00 0. -1.
</event>
<event>
 7    1  0.5957303E-006  0.1102949E+03  0.7818608E-02  0.1324640E+00
          2   -1    0    0  502    0  0.00000000000E+00  0.00000000000E+00  0.72083688038E+03  0.72083688038E+03  0.00000000000E+00 0. -1.
          1   -1    0    0  501    0 -0.00000000000E+00 -0.00000000000E+00 -0.34430738636E+03  0.34430738636E+03  0.00000000000E+00 0. -1.
         25    2    1    2    0    0 -0.15609461554E+03 -0.56619217573E+02  0.19747749097E+03  0.28669150447E+03  0.12499357781E+03 0.  0.
          2    1    1    2  501    0  0.10541375944E+03  0.23883717094E+02 -0.28795110554E+03  0.30756841808E+03  0.00000000000E+00 0. -1.
          1    1    1    2  502    0  0.50680856100E+02  0.32735500478E+02  0.46700310859E+03  0.47088434419E+03  0.00000000000E+00 0. -1.
         22    1    3    3    0    0 -0.73630318104E+02 -0.57917815165E+02  0.27291331702E+02  0.97574145365E+02  0.00000000000E+00 0.  1.
         22    1    3    3    0    0 -0.82464297438E+02  0.12985975924E+01  0.17018615927E+03  0.18911735910E+03  0.00000000000E+00 0.  1.
</event>
<event>
 7    1  0.5957303E-006  0.8376203E+02  0.7818608E-02  0.1443756E+00
          2   -1    0    0  502    0  0.00000000000E+00  0.00000000000E+00  0.89377321439E+03  0.89377321439E+03  0.00000000000E+00 0. -1.
          1   -1    0    0  501    0 -0.00000000000E+00 -0.00000000000E+00 -0.14940944832E+03  0.14940944832E+03  0.00000000000E+00 0. -1.
         25    2    1    2    0    0  0.22340794355E+02 -0.10421423257E+03  0.26441664024E+03  0.31128794424E+03  0.12499722890E+03 0.  0.
          2    1    1    2  501    0 -0.32942392430E+02  0.75936340654E+02 -0.11195002018E+03  0.13922764118E+03  0.00000000000E+00 0. -1.
          1    1    1    2  502    0  0.10601598075E+02  0.28277891912E+02  0.59189714600E+03  0.59266707729E+03  0.00000000000E+00 0. -1.
         22    1    3    3    0    0  0.18667384992E+02 -0.12605950702E+03  0.15999792366E+03  0.20454536453E+03  0.00000000000E+00 0.  1.
         22    1    3    3    0    0  0.36734093630E+01  0.21845274458E+02  0.10441871658E+03  0.10674257971E+03  0.00000000000E+00 0.  1.
</event>
<event>
 7    1  0.5957303E-006  0.1619606E+03  0.7818608E-02  0.1237831E+00
          2   -1    0    0  502    0  0.00000000000E+00  0.00000000000E+00  0.18352147126E+04  0.18352147126E+04  0.00000000000E+00 0. -1.
          1   -1    0    0  501    0 -0.00000000000E+00 -0.00000000000E+00 -0.86358784576E+03  0.86358784576E+03  0.00000000000E+00 0. -1.
         25    2    1    2    0    0 -0.10667951530E+03  0.14902900352E+03  0.99790293323E+03  0.10222651389E+04  0.12500234886E+03 0.  0.
          2    1    1    2  501    0  0.13710017412E+02 -0.16141182461E+03 -0.84098647281E+03  0.85644613909E+03  0.00000000000E+00 0. -1.
          1    1    1    2  502    0  0.92969497892E+02  0.12382821091E+02  0.81471040644E+03  0.82009128038E+03  0.00000000000E+00 0. -1.
         22    1    3    3    0    0 -0.64507275033E+01  0.77146060054E+02  0.61828217412E+03  0.62310992072E+03  0.00000000000E+00 0.  1.
         22    1    3    3    0    0 -0.10022878780E+03  0.71882943465E+02  0.37962075912E+03  0.39915521820E+03  0.00000000000E+00 0.  1.
</event>
<event>
 7    1  0.5957303E-006  0.2331171E+02  0.7818608E-02  0.1703289E+00
          2   -1    0    0  502    0  0.00000000000E+00  0.00000000000E+00  0.55289423420E+02  0.55289423420E+02  0.00000000000E+00 0. -1.
          1   -1    0    0  501    0 -0.00000000000E+00 -0.00000000000E+00 -0.79657399546E+03  0.79657399546E+03  0.00000000000E+00 0. -1.
         25    2    1    2    0    0  0.21715468307E+02  0.87566807646E+01 -0.62774999102E+02  0.14181655101E+03  0.12499197017E+03 0.  0.
          2    1    1    2  501    0 -0.11248410678E+01 -0.21282859836E+02 -0.68480518704E+03  0.68513675248E+03  0.00000000000E+00 0. -1.
          1    1    1    2  502    0 -0.20590627239E+02  0.12526179072E+02  0.62956141010E+01  0.24910115398E+02  0.00000000000E+00 0. -1.
         22    1    3    3    0    0  0.40028122856E+02  0.19995328783E+02 -0.93888315701E+02  0.10400519034E+03  0.00000000000E+00 0. -1.
         22    1    3    3    0    0 -0.18312654549E+02 -0.11238648018E+02  0.31113316600E+02  0.37811360670E+02  0.00000000000E+00 0. -1.
</event>
<event>
 7    1  0.5957303E-006  0.1244246E+03  0.7818608E-02  0.1274958E+00
          2   -1    0    0  502    0  0.00000000000E+00  0.00000000000E+00  0.42066237275E+03  0.42066237275E+03  0.00000000000E+00 0. -1.
          1   -1    0    0  501    0 -0.00000000000E+00 -0.00000000000E+00 -0.72922513984E+03  0.72922513984E+03  0.00000000000E+00 0. -1.
         25    2    1    2    0    0  0.46580119780E+02 -0.83669359087E+02 -0.18747642172E+03  0.24482728637E+03  0.12499088863E+03 0.  0.
          2    1    1    2  501    0 -0.12687653836E+03  0.57112598753E+02 -0.49887800674E+03  0.51791772564E+03  0.00000000000E+00 0. -1.
          1    1    1    2  502    0  0.80296418577E+02  0.26556760333E+02  0.37779166137E+03  0.38714250058E+03  0.00000000000E+00 0. -1.
         22    1    3    3    0    0 -0.41440559943E+02 -0.34493656948E+02 -0.87896827585E+02  0.10311636474E+03  0.00000000000E+00 0. -1.
         22    1    3    3    0    0  0.88020679722E+02 -0.49175702139E+02 -0.99579594136E+02  0.14171092163E+03  0.00000000000E+00 0. -1.
</event>
<event>
 7    1  0.5957303E-006  0.6092407E+02  0.7818608E-02  0.1404395E+00
          2   -1    0    0  502    0  0.00000000000E+00  0.00000000000E+00  0.10407410968E+03  0.10407410968E+03  0.00000000000E+00 0. -1.
          1   -1    0    0  501    0 -0.00000000000E+00 -0.00000000000E+00 -0.11577620775E+04  0.11577620775E+04  0.00000000000E+00 0. -1.
         25    2    1    2    0    0  0.39871033182E+01  0.19639352899E+02 -0.20819901971E+03  0.24366373511E+03  0.12499433117E+03 0.  0.
          2    1    1    2  501    0  0.46525632764E+02 -0.44051768745E+02 -0.92148585127E+03  0.92371065109E+03  0.00000000000E+00 0. -1.
          1    1    1    2  502    0 -0.50512736082E+02  0.24412415846E+02  0.75996903164E+02  0.94461800980E+02  0.00000000000E+00 0. -1.
         22    1    3    3    0    0  0.29099291205E+01 -0.37550095684E+02 -0.12354726116E+02  0.39637313617E+02  0.00000000000E+00 0. -1.
         22    1    3    3    0    0  0.10771741977E+01  0.57189448584E+02 -0.19584429359E+03  0.20402642149E+03  0.00000000000E+00 0. -1.
</event>
<event>
 7    1  0.5957303E-006  0.8749879E+02  0.7818608E-02  0.1309514E+00
          2   -1    0    0  502    0  0.00000000000E+00  0.00000000000E+00  0.12101892443E+04  0.12101892443E+04  0.00000000000E+00 0. -1.
          1   -1    0    0  501    0 -0.00000000000E+00 -0.00000000000E+00 -0.23412802179E+03  0.23412802179E+03  0.00000000000E+00 0. -1.
         25    2    1    2    0    0 -0.24315468008E+02  0.81873300991E+02  0.42230813242E+03  0.44862386436E+03  0.12499893424E+03 0.  0.
          2    1    1    2  501    0  0.86025586976E+02 -0.20390411073E+02 -0.20954957058E+03  0.22743612951E+03  0.00000000000E+00 0. -1.
          1    1    1    2  502    0 -0.61710118968E+02 -0.61482889918E+02  0.76330266070E+03  0.76825727225E+03  0.00000000000E+00 0. -1.
         22    1    3    3    0    0 -0.39202761459E+02 -0.20508155824E+02  0.85275932133E+02  0.96069899357E+02  0.00000000000E+00 0.  1.
         22    1    3    3    0    0  0.14887293451E+02  0.10238145682E+03  0.33703220029E+03  0.35255396500E+03  0.00000000000E+00 0.  1.
</event>
<event>
 7    1  0.5957303E-006  0.2585070E+02  0.7818608E-02  0.1660057E+00
          2   -1    0    0  502    0  0.00000000000E+00  0.00000000000E+00  0.82473023415E+03  0.82473023415E+03  0.00000000000E+00 0. -1.
          1   -1    0    0  501    0 -0.00000000000E+00 -0.00000000000E+00 -0.27318778000E+02  0.27318778000E+02  0.00000000000E+00 0. -1.
         25    2    1    2    0    0  0.24427757901E+02  0.17871761034E+02  0.29226472420E+03  0.31931339726E+03  0.12500504575E+03 0.  0.
          2    1    1    2  501    0  0.77383659728E+00 -0.24292684739E+02 -0.24908395022E+01  0.24432307225E+02  0.00000000000E+00 0. -1.
          1    1    1    2  502    0 -0.25201594498E+02  0.64209237058E+01  0.50763757145E+03  0.50830330766E+03  0.00000000000E+00 0. -1.
         22    1    3    3    0    0 -0.26131522999E+02  0.57768917693E+02  0.12713796713E+03  0.14207099293E+03  0.00000000000E+00 0. -1.
         22    1    3    3    0    0  0.50559280900E+02 -0.39897156660E+02  0.16512675707E+03  0.17724240434E+03  0.00000000000E+00 0. -1.
</event>
<event>
 7    1  0.5957303E-006  0.8993123E+02  0.7818608E-02  0.1391857E+00
          2   -1    0    0  502    0  0.00000000000E+00  0.00000000000E+00  0.19557053179E+04  0.19557053179E+04  0.00000000000E+00 0. -1.
          1   -1    0    0  501    0 -0.00000000000E+00 -0.00000000000E+00 -0.11378149259E+03  0.11378149259E+03  0.00000000000E+00 0. -1.
         25    2    1    2    0    0 -0.25966807175E+01  0.94550888320E+02  0.13840233610E+03  0.20910862633E+03  0.12499839093E+03 0.  0.
          2    1    1    2  501    0  0.40043697087E+02 -0.12619440594E+02 -0.71584171962E+02  0.82988201768E+02  0.00000000000E+00 0. -1.
          1    1    1    2  502    0 -0.37447016369E+02 -0.81931447727E+02  0.17751056612E+04  0.17773899824E+04  0.00000000000E+00 0. -1.
         22    1    3    3    0    0 -0.23196584445E+02  0.68595895478E+02  0.60420150558E+01  0.72663500826E+02  0.00000000000E+00 0. -1.
         22    1    3    3    0    0  0.20599903728E+02  0.25954992842E+02  0.13236032104E+03  0.13644512550E+03  0.00000000000E+00 0. -1.
</event>
<event>
 7    1  0.5957303E-006  0.1898105E+03  0.7818608E-02  0.1383267E+00
          2   -1    0    0  502    0  0.00000000000E+00  0.00000000000E+00  0.14531083342E+04  0.14531083342E+04  0.00000000000E+00 0. -1.
          1   -1    0    0  501    0 -0.00000000000E+00 -0.00000000000E+00 -0.59318880976E+03  0.59318880976E+03  0.00000000000E+00 0. -1.
         25    2    1    2    0    0 -0.63702156948E+02 -0.18948680819E+03  0.14207842484E+03  0.27527314513E+03  0.12500324134E+03 0.  0.
          2    1    1    2  501    0  0.20549950022E+02  0.56749321733E+01 -0.51920975631E+03  0.51964726146E+03  0.00000000000E+00 0. -1.
          1    1    1    2  502    0  0.43152206926E+02  0.18381187601E+03  0.12370508559E+04  0.12513767373E+04  0.00000000000E+00 0. -1.
         22    1    3    3    0    0 -0.74912832365E+02 -0.38374275542E+02  0.54096314714E+02  0.10005462879E+03  0.00000000000E+00 0. -1.
         22    1    3    3    0    0  0.11210675418E+02 -0.15111253265E+03  0.87982110126E+02  0.17521851634E+03  0.00000000000E+00 0. -1.
</event>
<event>
 7    1  0.5957303E-006  0.8844101E+02  0.7818608E-02  0.1316390E+00
          2   -1    0    0  502    0  0.00000000000E+00  0.00000000000E+00  0.21794338456E+04  0.21794338456E+04  0.00000000000E+00 0. -1.
          1   -1    0    0  501    0 -0.00000000000E+00 -0.00000000000E+00 -0.28864791638E+03  0.28864791638E+03  0.00000000000E+00 0. -1.
         25    2    1    2    0    0 -0.38893917395E+00  0.13070105763E+03  0.10906128844E+03  0.21118954523E+03  0.12499496646E+03 0.  0.
          2    1    1    2  501    0  0.53771675749E+02 -0.60567309311E+02 -0.22968794091E+03  0.24354946575E+03  0.00000000000E+00 0. -1.
          1    1    1    2  502    0 -0.53382736575E+02 -0.70133748318E+02  0.20114125817E+04  0.20133427510E+04  0.00000000000E+00 0. -1.
         22    1    3    3    0    0  0.25091034367E+02  0.89257007817E+01  0.78759384034E+02  0.83140054808E+02  0.00000000000E+00 0. -1.
         22    1    3    3    0    0 -0.25479973541E+02  0.12177535685E+03  0.30301904405E+02  0.12804949042E+03  0.00000000000E+00 0. -1.
</event>
<event>
 7    1  0.5957303E-006  0.1167347E+03  0.7818608E-02  0.1265151E+00
          2   -1    0    0  502    0  0.00000000000E+00  0.00000000000E+00  0.16588237590E+04  0.16588237590E+04  0.00000000000E+00 0. -1.
          1   -1    0    0  501    0 -0.00000000000E+00 -0.00000000000E+00 -0.24198274506E+03  0.24198274506E+03  0.00000000000E+00 0. -1.
         25    2    1    2    0    0  0.48483422252E+01 -0.37072126289E+02  0.11150320000E+01  0.13047759471E+03  0.12500124182E+03 0.  0.
          2    1    1    2  501    0 -0.83324350254E+02 -0.53667087278E+02 -0.16099160876E+03  0.18905396503E+03  0.00000000000E+00 0. -1.
          1    1    1    2  502    0  0.78476008028E+02  0.90739213567E+02  0.15767175907E+04  0.15812749443E+04  0.00000000000E+00 0. -1.
         22    1    3    3    0    0 -0.50532828967E+02 -0.21123348475E+01 -0.29100278830E+02  0.58351135292E+02  0.00000000000E+00 0.  1.
         22    1    3    3    0    0  0.55381171192E+02 -0.34959791442E+02  0.30215310830E+02  0.72126459422E+02  0.00000000000E+00 0.  1.
</event>
<event>
 7    1  0.5957303E-006  0.1085431E+03  0.7818608E-02  0.1308749E+00
          2   -1    0    0  502    0  0.00000000000E+00  0.00000000000E+00  0.64757181860E+02  0.64757181860E+02  0.00000000000E+00 0. -1.
          1   -1    0    0  501    0 -0.00000000000E+00 -0.00000000000E+00 -0.15543261336E+04  0.15543261336E+04  0.00000000000E+00 0. -1.
         25    2    1    2    0    0 -0.44292671470E+02  0.15683785852E+03 -0.44780350744E+03  0.49265894990E+03  0.12499962013E+03 0.  0.
          2    1    1    2  501    0  0.55296912978E+02 -0.86987873229E+02 -0.10501688830E+04  0.10552152962E+04  0.00000000000E+00 0. -1.
          1    1    1    2  502    0 -0.11004241508E+02 -0.69849985288E+02  0.84034386374E+01  0.71209069344E+02  0.00000000000E+00 0. -1.
         22    1    3    3    0    0 -0.66876151052E+02  0.14462258480E+03 -0.27393218350E+03  0.31690211860E+03  0.00000000000E+00 0. -1.
         22    1    3    3    0    0  0.22583479582E+02  0.12215273718E+02 -0.17387132394E+03  0.17575683131E+03  0.00000000000E+00 0. -1.
</event>
<event>
 7    1  0.5957303E-006  0.1120789E+03  0.7818608E-02  0.1320697E+00
          2   -1    0    0  502    0  0.00000000000E+00  0.00000000000E+00  0.22262921080E+04  0.22262921080E+04  0.00000000000E+00 0. -1.
          1   -1    0    0  501    0 -0.00000000000E+00 -0.00000000000E+00 -0.58558733374E+02  0.58558733374E+02  0.00000000000E+00 0. -1.
         25    2    1    2    0    0 -0.15710944513E+03  0.52163818506E+02  0.34312659946E+03  0.40095529020E+03  0.12499935910E+03 0.  0.
          2    1    1    2  501    0  0.61490352935E+02  0.56922978841E+00  0.57470544301E+01  0.61760959847E+02  0.00000000000E+00 0. -1.
          1    1    1    2  502    0  0.95619092195E+02 -0.52733048294E+02  0.18188597207E+04  0.18221345913E+04  0.00000000000E+00 0. -1.
         22    1    3    3    0    0 -0.32249200645E+02  0.56498168345E+02  0.49155335763E+02  0.81537114264E+02  0.00000000000E+00 0. -1.
         22    1    3    3    0    0 -0.12486024449E+03 -0.43343498386E+01  0.29397126370E+03  0.31941817594E+03  0.00000000000E+00 0. -1.
</event>
<event>
 7    1  0.5957303E-006  0.4554399E+02  0.7818608E-02  0.1472604E+00
          2   -1    0    0  502    0  0.00000000000E+00  0.00000000000E+00  0.26164022893E+04  0.26164022893E+04  0.00000000000E+00 0. -1.
          1   -1    0    0  501    0 -0.00000000000E+00 -0.00000000000E+00 -0.78349490015E+03  0.78349490015E+03  0.00000000000E+00 0. -1.
         25    2    1    2    0    0 -0.18532985918E+01  0.30401008745E+01  0.42633357506E+03  0.44429510726E+03  0.12500059273E+03 0.  0.
          2    1    1    2  501    0 -0.44910493928E+02 -0.30900219002E+01 -0.77360906601E+03  0.77491772964E+03  0.00000000000E+00 0. -1.
          1    1    1    2  502    0  0.46763792520E+02  0.49921025698E-01  0.21801828801E+04  0.21806843525E+04  0.00000000000E+00 0. -1.
         22    1    3    3    0    0 -0.19368155848E+02 -0.57753155214E+01  0.29117990469E+01  0.20419556901E+02  0.00000000000E+00 0.  1.
         22    1    3    3    0    0  0.17514857256E+02  0.88154163958E+01  0.42342177601E+03  0.42387555036E+03  0.00000000000E+00 0.  1.
</event>
<event>
 7    1  0.5957303E-006  0.1157175E+03  0.7818608E-02  0.1290540E+00
          2   -1    0    0  502    0  0.00000000000E+00  0.00000000000E+00  0.10866069779E+04  0.10866069779E+04  0.00000000000E+00 0. -1.
          1   -1    0    0  501    0 -0.00000000000E+00 -0.00000000000E+00 -0.17597539410E+03  0.17597539410E+03  0.00000000000E+00 0. -1.
         25    2    1    2    0    0  0.92209742700E+02 -0.13060237318E+03  0.43515653930E+03  0.48015146210E+03  0.12499838531E+03 0.  0.
          2    1    1    2  501    0  0.34439830436E+01  0.78381505208E+02 -0.13832772656E+03  0.15902855503E+03  0.00000000000E+00 0. -1.
          1    1    1    2  502    0 -0.95653725743E+02  0.52220867971E+02  0.61380277108E+03  0.62340235489E+03  0.00000000000E+00 0. -1.
         22    1    3    3    0    0  0.37391881181E+02  0.73297237690E+01  0.29483908462E+02  0.48178610264E+02  0.00000000000E+00 0. -1.
         22    1    3    3    0    0  0.54817861519E+02 -0.13793209695E+03  0.40567263084E+03  0.43197285183E+03  0.00000000000E+00 0. -1.
</event>
<event>
 7    1  0.5957303E-006  0.5135870E+02  0.7818608E-02  0.1493316E+00
          2   -1    0    0  502    0  0.00000000000E+00  0.00000000000E+00  0.12274618207E+04  0.12274618207E+04  0.00000000000E+00 0. -1.
          1   -1    0    0  501    0 -0.00000000000E+00 -0.00000000000E+00 -0.52534882481E+02  0.52534882481E+02  0.00000000000E+00 0. -1.
         25    2    1    2    0    0 -0.38341911724E+02  0.58630276733E+02  0.30499748334E+03  0.33698118852E+03  0.12500098013E+03 0.  0.
          2    1    1    2  501    0  0.33568417351E+02 -0.79940088035E+01 -0.27513094827E+02  0.44132903906E+02  0.00000000000E+00 0. -1.
          1    1    1    2  502    0  0.47734943730E+01 -0.50636267929E+02  0.89744254973E+03  0.89888261077E+03  0.00000000000E+00 0. -1.
         22    1    3    3    0    0 -0.43762258047E+02 -0.14973084777E+02  0.21820106552E+03  0.22304939698E+03  0.00000000000E+00 0.  1.
         22    1    3    3    0    0  0.54203463230E+01  0.73603361509E+02  0.86796417812E+02  0.11393179155E+03  0.00000000000E+00 0.  1.
</event>
<event>
 7    1  0.5957303E-006  0.1152646E+03  0.7818608E-02  0.1362751E+00
          2   -1    0    0  502    0  0.00000000000E+00  0.00000000000E+00  0.14780582675E+04  0.14780582675E+04  0.00000000000E+00 0. -1.
          1   -1    0    0  501    0 -0.00000000000E+00 -0.00000000000E+00 -0.66887795451E+03  0.66887795451E+03  0.00000000000E+00 0. -1.
         25    2    1    2    0    0  0.48504876826E+02  0.71600981850E+02 -0.44179027104E+03  0.46720872772E+03  0.12500371189E+03 0.  0.
          2    1    1    2  501    0 -0.14878545253E+02  0.38820430912E+02 -0.21006495493E+03  0.21413939912E+03  0.00000000000E+00 0. -1.
          1    1    1    2  502    0 -0.33626331572E+02 -0.11042141276E+03  0.14610355390E+04  0.14655880952E+04  0.00000000000E+00 0. -1.
         22    1    3    3    0    0  0.85729345247E+02  0.75384248451E+02 -0.34724492457E+03  0.36552885411E+03  0.00000000000E+00 0. -1.
         22    1    3    3    0    0 -0.37224468421E+02 -0.37832666016E+01 -0.94545346478E+02  0.10167987360E+03  0.00000000000E+00 0. -1.
</event>
<event>
 7    1  0.5957303E-006  0.9129682E+02  0.7818608E-02  0.1328016E+00
          2   -1    0    0  502    0  0.00000000000E+00  0.00000000000E+00  0.90502737458E+03  0.90502737458E+03  0.00000000000E+00 0. -1.
          1   -1    0    0  501    0 -0.00000000000E+00 -0.00000000000E+00 -0.21327142754E+03  0.21327142754E+03  0.00000000000E+00 0. -1.
         25    2    1    2    0    0 -0.86735568567E+02 -0.66815426920E+02  0.38642431016E+03  0.42063730633E+03  0.12499854344E+03 0.  0.
          2    1    1    2  501    0 -0.49676125290E+01  0.70569337928E+02 -0.18539081569E+03  0.19842999565E+03  0.00000000000E+00 0. -1.
          1    1    1    2  502    0  0.91703181096E+02 -0.37539110075E+01  0.49072245258E+03  0.49923150014E+03  0.00000000000E+00 0. -1.
         22    1    3    3    0    0  0.88307577258E+01 -0.66385405339E+02  0.11761266417E+03  0.13534305707E+03  0.00000000000E+00 0. -1.
         22    1    3    3    0    0 -0.95566326292E+02 -0.43002158113E+00  0.26881164599E+03  0.28529424926E+03  0.00000000000E+00 0. -1.
</event>
<event>
 7    1  0.5957303E-006  0.2280037E+02  0.7818608E-02  0.1709873E+00
          2   -1    0    0  502    0  0.00000000000E+00  0.00000000000E+00  0.16712705748E+02  0.16712705748E+02  0.00000000000E+00 0. -1.
          1   -1    0    0  501    0 -0.00000000000E+00 -0.00000000000E+00 -0.10364198731E+04  0.10364198731E+04  0.00000000000E+00 0. -1.
         25    2    1    2    0    0 -0.20671946231E+02  0.33875684193E+02 -0.70500770396E+03  0.71709843491E+03  0.12497764344E+03 0.  0.
          2    1    1    2  501    0  0.35694038970E+01 -0.21607279440E+02 -0.31421856875E+03  0.31498083135E+03  0.00000000000E+00 0. -1.
          1    1    1    2  502    0  0.17102542334E+02 -0.12268404753E+02 -0.48089459091E+00  0.21053312544E+02  0.00000000000E+00 0. -1.
         22    1    3    3    0    0 -0.32788597825E+02  0.42753106675E+02 -0.69875359957E+03  0.70082773432E+03  0.00000000000E+00 0.  1.
         22    1    3    3    0    0  0.12116651595E+02 -0.88774224819E+01 -0.62541043869E+01  0.16270700583E+02  0.00000000000E+00 0.  1.
</event>
<event>
 7    1  0.5957303E-006  0.1379063E+03  0.7818608E-02  0.1286450E+00
          2   -1    0    0  502    0  0.00000000000E+00  0.00000000000E+00  0.11020879384E+04  0.11020879384E+04  0.00000000000E+00 0. -1.
          1   -1    0    0  501    0 -0.00000000000E+00 -0.00000000000E+00 -0.13999761904E+04  0.13999761904E+04  0.00000000000E+00 0. -1.
         25    2    1    2    0    0 -0.40631224259E+02  0.86720053598E+02  0.12854056707E+03  0.20327040291E+03  0.12499966094E+03 0.  0.
          2    1    1    2  501    0 -0.35185228491E+01 -0.13897640753E+03 -0.13578075959E+04  0.13649059635E+04  0.00000000000E+00 0. -1.
          1    1    1    2  502    0  0.44149747108E+02  0.52256353929E+02  0.93137877685E+03  0.93388776235E+03  0.00000000000E+00 0. -1.
         22    1    3    3    0    0  0.18720757152E+02  0.85850473073E+02  0.39689972852E+02  0.96416100420E+02  0.00000000000E+00 0.  1.
         22    1    3    3    0    0 -0.59351981411E+02  0.86958052540E+00  0.88850594214E+02  0.10685430249E+03  0.00000000000E+00 0.  1.
</event>
<event>
 7    1  0.5957303E-006  0.1118828E+03  0.7818608E-02  0.1276944E+00
          2   -1    0    0  502    0  0.00000000000E+00  0.00000000000E+00  0.11192393429E+04  0.11192393429E+04  0.00000000000E+00 0. -1.
          1   -1    0    0  501    0 -0.00000000000E+00 -0.00000000000E+00 -0.63663325328E+03  0.63663325328E+03  0.00000000000E+00 0. -1.
         25    2    1    2    0    0 -0.66635718190E+02 -0.48269097947E+02  0.20682451133E+03  0.25528498282E+03  0.12499527674E+03 0.  0.
          2    1    1    2  501    0  0.10801648812E+03 -0.34215520975E+02 -0.60473003063E+03  0.61525334094E+03  0.00000000000E+00 0. -1.
          1    1    1    2  502    0 -0.41380769932E+02  0.82484618922E+02  0.88051160893E+03  0.88533427243E+03  0.00000000000E+00 0. -1.
         22    1    3    3    0    0 -0.56379471718E+02 -0.32270573335E+02  0.20681586125E+02  0.68174502119E+02  0.00000000000E+00 0.  1.
         22    1    3    3    0    0 -0.10256246473E+02 -0.15998524611E+02  0.18614292521E+03  0.18711048070E+03  0.00000000000E+00 0.  1.
</event>
<event>
 7    1  0.5957303E-006  0.3986705E+02  0.7818608E-02  0.1560519E+00
          2   -1    0    0  502    0  0.00000000000E+00  0.00000000000E+00  0.14616561716E+03  0.14616561716E+03  0.00000000000E+00 0. -1.
          1   -1    0    0  501    0 -0.00000000000E+00 -0.00000000000E+00 -0.51437947405E+03  0.51437947405E+03  0.00000000000E+00 0. -1.
         25    2    1    2    0    0  0.25531519936E+02  0.30984371172E+02 -0.88753283424E+02  0.15846957644E+03  0.12499428616E+03 0.  0.
          2    1    1    2  501    0  0.14372246599E+01 -0.40125511457E+02 -0.38789342652E+03  0.38996593777E+03  0.00000000000E+00 0. -1.
          1    1    1    2  502    0 -0.26968744596E+02  0.91411402849E+01  0.10843285306E+03  0.11210957699E+03  0.00000000000E+00 0. -1.
         22    1    3    3    0    0 -0.33740172524E+02 -0.23574957997E+02 -0.37092650781E+01  0.41327188798E+02  0.00000000000E+00 0.  1.
         22    1    3    3    0    0  0.59271692459E+02  0.54559329169E+02 -0.85044018346E+02  0.11714238764E+03  0.00000000000E+00 0.  1.
</event>
<event>
 7    1  0.5957303E-006  0.9825176E+02  0.7818608E-02  0.1467067E+00
          2   -1    0    0  502    0  0.00000000000E+00  0.00000000000E+00  0.10870354595E+04  0.10870354595E+04  0.00000000000E+00 0. -1.
          1   -1    0    0  501    0 -0.00000000000E+00 -0.00000000000E+00 -0.26946399675E+04  0.26946399675E+04  0.00000000000E+00 0. -1.
         25    2    1    2    0    0  0.98223394681E+02  0.63105551034E+01 -0.66031181637E+03  0.67920867698E+03  0.12500029472E+03 0.  0.
          2    1    1    2  501    0 -0.97290959686E+02  0.15381073875E+02 -0.20235723082E+04  0.20259681623E+04  0.00000000000E+00 0. -1.
          1    1    1    2  502    0 -0.93243499560E+00 -0.21691628979E+02  0.10762796165E+04  0.10764985876E+04  0.00000000000E+00 0. -1.
         22    1    3    3    0    0 -0.26164014855E+02  0.21312050701E+02 -0.14823695961E+03  0.15202945561E+03  0.00000000000E+00 0.  1.
         22    1    3    3    0    0  0.12438740954E+03 -0.15001495597E+02 -0.51207485676E+03  0.52717922137E+03  0.00000000000E+00 0.  1.
</event>
<event>
 7    1  0.5957303E-006  0.1163431E+03  0.7818608E-02  0.1345983E+00
          2   -1    0    0  502    0  0.00000000000E+00  0.00000000000E+00  0.47156502033E+04  0.47156502033E+04  0.00000000000E+00 0. -1.
          1   -1    0    0  501    0 -0.00000000000E+00 -0.00000000000E+00 -0.78195112516E+03  0.78195112516E+03  0.00000000000E+00 0. -1.
         25    2    1    2    0    0  0.31767590790E+02 -0.85395195472E+02  0.18945179061E+03  0.24457752671E+03  0.12499866549E+03 0.  0.
          2    1    1    2  501    0 -0.35276923524E+02 -0.31776530029E+02 -0.75287669107E+03  0.75437226961E+03  0.00000000000E+00 0. -1.
          1    1    1    2  502    0  0.35093327332E+01  0.11717172550E+03  0.44971239786E+04  0.44986515322E+04  0.00000000000E+00 0. -1.
         22    1    3    3    0    0  0.44288516654E+02  0.11763188331E+02  0.10749050365E+03  0.11685056132E+03  0.00000000000E+00 0.  1.
         22    1    3    3    0    0 -0.12520925864E+02 -0.97158383803E+02  0.81961286958E+02  0.12772696539E+03  0.00000000000E+00 0.  1.
</event>
<event>
 7    1  0.5957303E-006  0.6001600E+02  0.7818608E-02  0.1508059E+00
          2   -1    0    0  502    0  0.00000000000E+00  0.00000000000E+00  0.14152839890E+03  0.14152839890E+03  0.00000000000E+00 0. -1.
          1   -1    0    0  501    0 -0.00000000000E+00 -0.00000000000E+00 -0.17754764402E+03  0.17754764402E+03  0.00000000000E+00 0. -1.
         25    2    1    2    0    0 -0.26929379360E+01 -0.36902680349E+02 -0.45205746332E+02  0.13797716200E+03  0.12500031200E+03 0.  0.
          2    1    1    2  501    0  0.73844838845E+01 -0.25645119229E+02 -0.72992370291E+02  0.77718008616E+02  0.00000000000E+00 0. -1.
          1    1    1    2  502    0 -0.46915459484E+01  0.62547799578E+02  0.82178871501E+02  0.10338087230E+03  0.00000000000E+00 0. -1.
         22    1    3    3    0    0  0.41976227701E+02  0.21716248652E+02  0.68404538900E+01  0.47753439216E+02  0.00000000000E+00 0.  1.
         22    1    3    3    0    0 -0.44669165637E+02 -0.58618929001E+02 -0.52046200222E+02  0.90223722786E+02  0.00000000000E+00 0.  1.
</event>
<event>
 7    1  0.5957303E-006  0.4410882E+02  0.7818608E-02  0.1532255E+00
          2   -1    0    0  502    0  0.00000000000E+00  0.00000000000E+00  0.10580435973E+03  0.10580435973E+03  0.00000000000E+00 0. -1.
          1   -1    0    0  501    0 -0.00000000000E+00 -0.00000000000E+00 -0.37955085884E+03  0.37955085884E+03  0.00000000000E+00 0. -1.
         25    2    1    2    0    0 -0.36215839440E+02 -0.60993001389E+02 -0.71125744791E+01  0.14389855842E+03  0.12499789261E+03 0.  0.
          2    1    1    2  501    0  0.13733048810E+02  0.27667434200E+02 -0.29219171062E+03  0.29381980753E+03  0.00000000000E+00 0. -1.
          1    1    1    2  502    0  0.22482790630E+02  0.33325567189E+02  0.25557785988E+02  0.47636852621E+02  0.00000000000E+00 0. -1.
         22    1    3    3    0    0  0.37640278851E+02 -0.71087032812E+01 -0.31144791289E+02  0.49369244259E+02  0.00000000000E+00 0. -1.
         22    1    3    3    0    0 -0.73856118290E+02 -0.53884298107E+02  0.24032216810E+02  0.94529314164E+02  0.00000000000E+00 0. -1.
</event>
<event>
 7    1  0.5957303E-006  0.4827500E+02  0.7818608E-02  0.1554882E+00
          2   -1    0    0  502    0  0.00000000000E+00  0.00000000000E+00  0.67347176237E+03  0.67347176237E+03  0.00000000000E+00 0. -1.
          1   -1    0    0  501    0 -0.00000000000E+00 -0.00000000000E+00 -0.63402401990E+02  0.63402401990E+02  0.00000000000E+00 0. -1.
         25    2    1    2    0    0 -0.48045891549E+02 -0.25962339369E+02  0.48557258948E+03  0.50436896644E+03  0.12499945555E+03 0.  0.
          2    1    1    2  501    0  0.54547521320E+00  0.24368164278E+02 -0.47863467352E+02  0.53712349422E+02  0.00000000000E+00 0. -1.
          1    1    1    2  502    0  0.47500416336E+02  0.15941750902E+01  0.17236023824E+03  0.17879284850E+03  0.00000000000E+00 0. -1.
         22    1    3    3    0    0 -0.84434769404E+02  0.43403402908E+01  0.24493215322E+03  0.25911354368E+03  0.00000000000E+00 0.  1.
         22    1    3    3    0    0  0.36388877855E+02 -0.30302679660E+02  0.24064043626E+03  0.24525542275E+03  0.00000000000E+00 0.  1.
</event>
<event>
 7    1  0.5957303E-006  0.5621705E+02  0.7818608E-02  0.1415437E+00
          2   -1    0    0  502    0  0.00000000000E+00  0.00000000000E+00  0.24621443579E+03  0.24621443579E+03  0.00000000000E+00 0. -1.
          1   -1    0    0  501    0 -0.00000000000E+00 -0.00000000000E+00 -0.49347637019E+03  0.49347637019E+03  0.00000000000E+00 0. -1.
         25    2    1    2    0    0 -0.33962209441E+02  0.22757346844E+02 -0.73301652315E+02  0.15055869692E+03  0.12499384177E+03 0.  0.
          2    1    1    2  501    0 -0.95168681028E+01 -0.57699503491E+02 -0.37549456253E+03  0.38002101254E+03  0.00000000000E+00 0. -1.
          1    1    1    2  502    0  0.43479077544E+02  0.34942156647E+02  0.20153428045E+03  0.20911109653E+03  0.00000000000E+00 0. -1.
         22    1    3    3    0    0  0.38681389618E+02  0.31534902805E+02 -0.44811076595E+01  0.50107687270E+02  0.00000000000E+00 0.  1.
         22    1    3    3    0    0 -0.72643599059E+02 -0.87775559608E+01 -0.68820544656E+02  0.10045100965E+03  0.00000000000E+00 0.  1.
</event>
<event>
 7    1  0.5957303E-006  0.3481155E+03  0.7818608E-02  0.1259536E+00
          2   -1    0    0  502    0  0.00000000000E+00  0.00000000000E+00  0.12671251770E+04  0.12671251770E+04  0.00000000000E+00 0. -1.
          1   -1    0    0  501    0 -0.00000000000E+00 -0.00000000000E+00 -0.14701661877E+04  0.14701661877E+04  0.00000000000E+00 0. -1.
         25    2    1    2    0    0  0.24822543039E+03 -0.22597033367E+03 -0.54540816475E+02  0.36232306788E+03  0.12499939545E+03 0.  0.
          2    1    1    2  501    0  0.31438187721E+02  0.15640016080E+02 -0.12339794898E+04  0.12344789795E+04  0.00000000000E+00 0. -1.
          1    1    1    2  502    0 -0.27966361811E+03  0.21033031759E+03  0.10854792955E+04  0.11404893173E+04  0.00000000000E+00 0. -1.
         22    1    3    3    0    0  0.15155092155E+02 -0.19930168489E+02  0.30848872934E+02  0.39730862003E+02  0.00000000000E+00 0.  1.
         22    1    3    3    0    0  0.23307033824E+03 -0.20604016518E+03 -0.85389689409E+02  0.32259220587E+03  0.00000000000E+00 0.  1.
</event>
<event>
 7    1  0.5957303E-006  0.7401536E+02  0.7818608E-02  0.1481308E+00
          2   -1    0    0  502    0  0.00000000000E+00  0.00000000000E+00  0.57260102500E+03  0.57260102500E+03  0.00000000000E+00 0. -1.
          1   -1    0    0  501    0 -0.00000000000E+00 -0.00000000000E+00 -0.13285510166E+04  0.13285510166E+04  0.00000000000E+00 0. -1.
         25    2    1    2    0    0 -0.43697711610E+02 -0.23624078999E+02 -0.18137867291E+02  0.13572676046E+03  0.12500073666E+03 0.  0.
          2    1    1    2  501    0 -0.18006810449E+02 -0.18812694518E+02 -0.12487534156E+04  0.12490249220E+04  0.00000000000E+00 0. -1.
          1    1    1    2  502    0  0.61704522059E+02  0.42436773518E+02  0.51094129130E+03  0.51640035917E+03  0.00000000000E+00 0. -1.
         22    1    3    3    0    0  0.51156768915E+01  0.21396561346E+02 -0.55381281973E+02  0.59590849805E+02  0.00000000000E+00 0. -1.
         22    1    3    3    0    0 -0.48813388502E+02 -0.45020640346E+02  0.37243414682E+02  0.76135910655E+02  0.00000000000E+00 0. -1.
</event>
<event>
 7    1  0.8322521E-006  0.7497972E+02  0.7818608E-02  0.1398466E+00
          2   -1    0    0  502    0  0.00000000000E+00  0.00000000000E+00  0.11463863796E+04  0.11463863796E+04  0.00000000000E+00 0. -1.
          1   -1    0    0  501    0 -0.00000000000E+00 -0.00000000000E+00 -0.87663377083E+03  0.87663377083E+03  0.00000000000E+00 0. -1.
         25    2    1    2    0    0  0.80013732744E+02 -0.40022048252E+02 -0.33811696062E+03  0.37141988293E+03  0.12500275439E+03 0.  0.
          2    1    1    2  501    0 -0.41223419484E+02 -0.24140964504E+02 -0.51952425311E+03  0.52171602050E+03  0.00000000000E+00 0. -1.
          1    1    1    2  502    0 -0.38790313260E+02  0.64163012756E+02  0.11273938225E+04  0.11298842470E+04  0.00000000000E+00 0. -1.
         22    1    3    3    0    0  0.10354550299E+03  0.41950381321E+01 -0.22777535957E+03  0.25024165114E+03  0.00000000000E+00 0. -1.
         22    1    3    3    0    0 -0.23531770251E+02 -0.44217086384E+02 -0.11034160104E+03  0.12117823179E+03  0.00000000000E+00 0. -1.
</event>
<event>
 7    1  0.5957303E-006  0.4729505E+02  0.7818608E-02  0.1509583E+00
          2   -1    0    0  502    0  0.00000000000E+00  0.00000000000E+00  0.17371332484E+04  0.17371332484E+04  0.00000000000E+00 0. -1.
          1   -1    0    0  501    0 -0.00000000000E+00 -0.00000000000E+00 -0.99719035153E+02  0.99719035153E+02  0.00000000000E+00 0. -1.
         25    2    1    2    0    0 -0.47268906955E+02 -0.57212049791E+02  0.20144612196E+03  0.24842302944E+03  0.12500357314E+03 0.  0.
          2    1    1    2  501    0  0.39528017192E+02  0.24601436958E+02 -0.68917532631E+02  0.83170434335E+02  0.00000000000E+00 0. -1.
          1    1    1    2  502    0  0.77408897626E+01  0.32610612833E+02  0.15048856239E+04  0.15052588198E+04  0.00000000000E+00 0. -1.
         22    1    3    3    0    0 -0.31966507540E+02 -0.91831535104E+02  0.97067961636E+02  0.13739387767E+03  0.00000000000E+00 0. -1.
         22    1    3    3    0    0 -0.15302399414E+02  0.34619485312E+02  0.10437816032E+03  0.11102915177E+03  0.00000000000E+00 0. -1.
</event>
<event>
 7    1  0.5957303E-006  0.6304511E+02  0.7818608E-02  0.1437242E+00
          2   -1    0    0  502    0  0.00000000000E+00  0.00000000000E+00  0.26148031533E+04  0.26148031533E+04  0.00000000000E+00 0. -1.
          1   -1    0    0  501    0 -0.00000000000E+00 -0.00000000000E+00 -0.94842790927E+03  0.94842790927E+03  0.00000000000E+00 0. -1.
         25    2    1    2    0    0 -0.92645956327E+02 -0.36136634114E+02  0.11662916345E+04  0.11771790303E+04  0.12500065296E+03 0.  0.
          2    1    1    2  501    0  0.50548606197E+02  0.37627145898E+02 -0.94162347601E+03  0.94372969343E+03  0.00000000000E+00 0. -1.
          1    1    1    2  502    0  0.42097350129E+02 -0.14905117841E+01  0.14417070855E+04  0.14423223388E+04  0.00000000000E+00 0. -1.
         22    1    3    3    0    0 -0.52812512878E+01 -0.59316821967E+02  0.67657566664E+03  0.67919143816E+03  0.00000000000E+00 0.  1.
         22    1    3    3    0    0 -0.87364705039E+02  0.23180187853E+02  0.48971596783E+03  0.49798759216E+03  0.00000000000E+00 0.  1.
</event>
<event>
 7    1  0.5957303E-006  0.7760001E+02  0.7818608E-02  0.1358831E+00
          2   -1    0    0  502    0  0.00000000000E+00  0.00000000000E+00  0.12912842309E+04  0.12912842309E+04  0.00000000000E+00 0. -1.
          1   -1    0    0  501    0 -0.00000000000E+00 -0.00000000000E+00 -0.69092489646E+03  0.69092489646E+03  0.00000000000E+00 0. -1.
         25    2    1    2    0    0 -0.26704800859E+02 -0.13730394747E+03  0.40776945933E+02  0.19196936010E+03  0.12499582201E+03 0.  0.
          2    1    1    2  501    0  0.18022627570E+02  0.61220186560E+02 -0.61242108424E+03  0.61573720918E+03  0.00000000000E+00 0. -1.
          1    1    1    2  502    0  0.86821732886E+01  0.76083760905E+02  0.11720034727E+04  0.11745025581E+04  0.00000000000E+00 0. -1.
         22    1    3    3    0    0  0.40873651252E+02 -0.78637520481E+02 -0.98155935956E+01  0.89167599899E+02  0.00000000000E+00 0.  1.
         22    1    3    3    0    0 -0.67578452110E+02 -0.58666426984E+02  0.50592539528E+02  0.10280176020E+03  0.00000000000E+00 0.  1.
</event>
<event>
 7    1  0.5957303E-006  0.1460439E+03  0.7818608E-02  0.1351247E+00
          2   -1    0    0  502    0  0.00000000000E+00  0.00000000000E+00  0.33787940512E+03  0.33787940512E+03  0.00000000000E+00 0. -1.
          1   -1    0    0  501    0 -0.00000000000E+00 -0.00000000000E+00 -0.75942279127E+03  0.75942279127E+03  0.00000000000E+00 0. -1.
         25    2    1    2    0    0 -0.16512431733E+03  0.58541449860E+02  0.27717352096E+02  0.21699560395E+03  0.12500279598E+03 0.  0.
          2    1    1    2  501    0  0.33302180488E+02 -0.14085384142E+02 -0.64177225711E+03  0.64279006158E+03  0.00000000000E+00 0. -1.
          1    1    1    2  502    0  0.13182213684E+03 -0.44456065718E+02  0.19251151886E+03  0.23751653086E+03  0.00000000000E+00 0. -1.
         22    1    3    3    0    0 -0.79790642443E+02  0.65932619316E+02 -0.36702182981E+02  0.10982125089E+03  0.00000000000E+00 0.  1.
         22    1    3    3    0    0 -0.85333674882E+02 -0.73911694560E+01  0.64419535077E+02  0.10717435306E+03  0.00000000000E+00 0.  1.
</event>
<event>
 7    1  0.5957303E-006  0.4518269E+02  0.7818608E-02  0.1553252E+00
          2   -1    0    0  502    0  0.00000000000E+00  0.00000000000E+00  0.19621227566E+04  0.19621227566E+04  0.00000000000E+00 0. -1.
          1   -1    0    0  501    0 -0.00000000000E+00 -0.00000000000E+00 -0.29207599615E+03  0.29207599615E+03  0.00000000000E+00 0. -1.
         25    2    1    2    0    0  0.52148315911E+02  0.45309055788E+02  0.32760572689E+02  0.14652842299E+03  0.12499986493E+03 0.  0.
          2    1    1    2  501    0 -0.38302431538E+02 -0.22931042119E+02 -0.23298029217E+03  0.23721872922E+03  0.00000000000E+00 0. -1.
          1    1    1    2  502    0 -0.13845884372E+02 -0.22378013669E+02  0.18702664800E+04  0.18704516006E+04  0.00000000000E+00 0. -1.
         22    1    3    3    0    0  0.17625284847E+01  0.79415313957E+02  0.32115015107E+02  0.85681227774E+02  0.00000000000E+00 0.  1.
         22    1    3    3    0    0  0.50385787426E+02 -0.34106258169E+02  0.64555758132E+00  0.60847195214E+02  0.00000000000E+00 0.  1.
</event>
<event>
 7    1  0.5957303E-006  0.3345958E+02  0.7818608E-02  0.1577732E+00
          2   -1    0    0  502    0  0.00000000000E+00  0.00000000000E+00  0.30032030945E+04  0.30032030945E+04  0.00000000000E+00 0. -1.
          1   -1    0    0  501    0 -0.00000000000E+00 -0.00000000000E+00 -0.55133031643E+02  0.55133031643E+02  0.00000000000E+00 0. -1.
         25    2    1    2    0    0 -0.57197083508E+02  0.25683626661E+02  0.68482935695E+03  0.69896147942E+03  0.12499898614E+03 0.  0.
          2    1    1    2  501    0  0.29419112034E+02 -0.79004911272E+01 -0.43111099858E+02  0.52787013970E+02  0.00000000000E+00 0. -1.
          1    1    1    2  502    0  0.27777971474E+02 -0.17783135533E+02  0.23063518057E+04  0.23065876327E+04  0.00000000000E+00 0. -1.
         22    1    3    3    0    0 -0.96060091147E+01 -0.28838130937E+02  0.40795670957E+02  0.50874354796E+02  0.00000000000E+00 0.  1.
         22    1    3    3    0    0 -0.47591074393E+02  0.54521757597E+02  0.64403368599E+03  0.64808712462E+03  0.00000000000E+00 0.  1.
</event>
<event>
 7    1  0.5957303E-006  0.7777790E+02  0.7818608E-02  0.1439453E+00
          2   -1    0    0  502    0  0.00000000000E+00  0.00000000000E+00  0.75519525035E+02  0.75519525035E+02  0.00000000000E+00 0. -1.
          1   -1    0    0  501    0 -0.00000000000E+00 -0.00000000000E+00 -0.14369698291E+04  0.14369698291E+04  0.00000000000E+00 0. -1.
         25    2    1    2    0    0  0.35106772780E+02 -0.88469849529E+02 -0.63144408785E+03  0.65069623872E+03  0.12499823694E+03 0.  0.
          2    1    1    2  501    0 -0.48419913612E+02  0.57637507115E+02 -0.78971121646E+03  0.79329085187E+03  0.00000000000E+00 0. -1.
          1    1    1    2  502    0  0.13313140832E+02  0.30832342414E+02  0.59705000238E+02  0.68502263546E+02  0.00000000000E+00 0. -1.
         22    1    3    3    0    0 -0.31133524833E+02 -0.60607718776E+02 -0.45667118978E+03  0.46172629070E+03  0.00000000000E+00 0. -1.
         22    1    3    3    0    0  0.66240297613E+02 -0.27862130752E+02 -0.17477289807E+03  0.18896994803E+03  0.00000000000E+00 0. -1.
</event>
<event>
 7    1  0.5957303E-006  0.7880716E+02  0.7818608E-02  0.1493468E+00
          2   -1    0    0  502    0  0.00000000000E+00  0.00000000000E+00  0.12063752750E+04  0.12063752750E+04  0.00000000000E+00 0. -1.
          1   -1    0    0  501    0 -0.00000000000E+00 -0.00000000000E+00 -0.22645067892E+03  0.22645067892E+03  0.00000000000E+00 0. -1.
         25    2    1    2    0    0  0.76909219439E+02  0.46934177201E+02  0.14536775108E+03  0.21183155003E+03  0.12499190977E+03 0.  0.
          2    1    1    2  501    0 -0.20987166054E+02  0.80127986472E+01 -0.19106466932E+03  0.19238080450E+03  0.00000000000E+00 0. -1.
          1    1    1    2  502    0 -0.55922053385E+02 -0.54946975848E+02  0.10256215144E+04  0.10286135994E+04  0.00000000000E+00 0. -1.
         22    1    3    3    0    0 -0.13230684388E+02  0.27642464518E+02  0.10817130687E+03  0.11242859282E+03  0.00000000000E+00 0.  1.
         22    1    3    3    0    0  0.90139903827E+02  0.19291712683E+02  0.37196444218E+02  0.99402957213E+02  0.00000000000E+00 0.  1.
</event>
<event>
 7    1  0.6871889E-006  0.1635732E+03  0.7818608E-02  0.1316252E+00
          2   -1    0    0  502    0  0.00000000000E+00  0.00000000000E+00  0.22600489513E+04  0.22600489513E+04  0.00000000000E+00 0. -1.
          1   -1    0    0  501    0 -0.00000000000E+00 -0.00000000000E+00 -0.84142846163E+03  0.84142846163E+03  0.00000000000E+00 0. -1.
         25    2    1    2    0    0  0.88791487909E+02  0.16703694442E+03 -0.42609769475E+03  0.48267059991E+03  0.12500557357E+03 0.  0.
          2    1    1    2  501    0  0.15337854737E+02 -0.41075218801E+02 -0.38279927437E+03  0.38530209945E+03  0.00000000000E+00 0. -1.
          1    1    1    2  502    0 -0.10412934265E+03 -0.12596172562E+03  0.22275174588E+04  0.22335047136E+04  0.00000000000E+00 0. -1.
         22    1    3    3    0    0  0.75407630689E+02  0.10799564665E+03 -0.14828233759E+03  0.19833562994E+03  0.00000000000E+00 0. -1.
         22    1    3    3    0    0  0.13383857220E+02  0.59041297765E+02 -0.27781535716E+03  0.28433496997E+03  0.00000000000E+00 0. -1.
</event>
<event>
 7    1  0.5957303E-006  0.1031838E+03  0.7818608E-02  0.1412175E+00
          2   -1    0    0  502    0  0.00000000000E+00  0.00000000000E+00  0.38677787247E+03  0.38677787247E+03  0.00000000000E+00 0. -1.
          1   -1    0    0  501    0 -0.00000000000E+00 -0.00000000000E+00 -0.39697304159E+03  0.39697304159E+03  0.00000000000E+00 0. -1.
         25    2    1    2    0    0 -0.68660690287E+01  0.13253509285E+03 -0.83455374042E+02  0.20050484533E+03  0.12499879922E+03 0.  0.
          2    1    1    2  501    0  0.12949181263E+01 -0.31142434192E+02 -0.24613315940E+03  0.24809889193E+03  0.00000000000E+00 0. -1.
          1    1    1    2  502    0  0.55711509024E+01 -0.10139265865E+03  0.31939336431E+03  0.33514717680E+03  0.00000000000E+00 0. -1.
         22    1    3    3    0    0 -0.51035505718E+02  0.12801382596E+03 -0.60260014767E+02  0.15041087680E+03  0.00000000000E+00 0. -1.
         22    1    3    3    0    0  0.44169436689E+02  0.45212668892E+01 -0.23195359274E+02  0.50093968535E+02  0.00000000000E+00 0. -1.
</event>
<event>
 7    1  0.5957303E-006  0.1490748E+03  0.7818608E-02  0.1246025E+00
          2   -1    0    0  502    0  0.00000000000E+00  0.00000000000E+00  0.15034298041E+04  0.15034298041E+04  0.00000000000E+00 0. -1.
          1   -1    0    0  501    0 -0.00000000000E+00 -0.00000000000E+00 -0.10279272642E+04  0.10279272642E+04  0.00000000000E+00 0. -1.
         25    2    1    2    0    0  0.27457345490E+02  0.21733273975E+03  0.75215552495E+03  0.79331702124E+03  0.12500614744E+03 0.  0.
          2    1    1    2  501    0  0.32364694153E+02 -0.14510195056E+03 -0.99881245080E+03  0.10098160037E+04  0.00000000000E+00 0. -1.
          1    1    1    2  502    0 -0.59822039643E+02 -0.72230789189E+02  0.72215946574E+03  0.72822404334E+03  0.00000000000E+00 0. -1.
         22    1    3    3    0    0  0.10431039777E+02 -0.11230421796E+02  0.11844736922E+03  0.11943495401E+03  0.00000000000E+00 0. -1.
         22    1    3    3    0    0  0.17026305713E+02  0.22856316155E+03  0.63370815572E+03  0.67388206723E+03  0.00000000000E+00 0. -1.
</event>
<event>
 7    1  0.5957303E-006  0.3541771E+02  0.7818608E-02  0.1616447E+00
          2   -1    0    0  502    0  0.00000000000E+00  0.00000000000E+00  0.41435518123E+03  0.41435518123E+03  0.00000000000E+00 0. -1.
          1   -1    0    0  501    0 -0.00000000000E+00 -0.00000000000E+00 -0.96018889924E+03  0.96018889924E+03  0.00000000000E+00 0. -1.
         25    2    1    2    0    0  0.18779554289E+02 -0.30920275404E+02  0.23073456234E+03  0.26489973140E+03  0.12499877738E+03 0.  0.
          2    1    1    2  501    0  0.14675027280E+02  0.17419465324E+02 -0.94101315901E+03  0.94128877590E+03  0.00000000000E+00 0. -1.
          1    1    1    2  502    0 -0.33454581568E+02  0.13500810080E+02  0.16444487867E+03  0.16835557318E+03  0.00000000000E+00 0. -1.
         22    1    3    3    0    0  0.14494795564E+02 -0.71006016554E+02  0.20409349579E+03  0.21657818105E+03  0.00000000000E+00 0. -1.
         22    1    3    3    0    0  0.42847587249E+01  0.40085741149E+02  0.26641066550E+02  0.48321550345E+02  0.00000000000E+00 0. -1.
</event>
<event>
 7    1  0.5957303E-006  0.1198800E+03  0.7818608E-02  0.1280605E+00
          2   -1    0    0  502    0  0.00000000000E+00  0.00000000000E+00  0.76766429647E+02  0.76766429647E+02  0.00000000000E+00 0. -1.
          1   -1    0    0  501    0 -0.00000000000E+00 -0.00000000000E+00 -0.10318042774E+04  0.10318042774E+04  0.00000000000E+00 0. -1.
         25    2    1    2    0    0 -0.14828032410E+03 -0.28178298302E+02 -0.54723596247E+03  0.58126911055E+03  0.12500203701E+03 0.  0.
          2    1    1    2  501    0  0.81848912996E+02  0.78222861317E+02 -0.42715772806E+03  0.44190698709E+03  0.00000000000E+00 0. -1.
          1    1    1    2  502    0  0.66431411105E+02 -0.50044563016E+02  0.19355842763E+02  0.85394609419E+02  0.00000000000E+00 0. -1.
         22    1    3    3    0    0 -0.36944199756E+02  0.45671837942E+02 -0.11957865784E+03  0.13322854832E+03  0.00000000000E+00 0. -1.
         22    1    3    3    0    0 -0.11133612434E+03 -0.73850136244E+02 -0.42765730462E+03  0.44804056223E+03  0.00000000000E+00 0. -1.
</event>
<event>
 7    1  0.5957303E-006  0.7387882E+02  0.7818608E-02  0.1445881E+00
          2   -1    0    0  502    0  0.00000000000E+00  0.00000000000E+00  0.21769268799E+04  0.21769268799E+04  0.00000000000E+00 0. -1.
          1   -1    0    0  501    0 -0.00000000000E+00 -0.00000000000E+00 -0.23074504300E+03  0.23074504300E+03  0.00000000000E+00 0. -1.
         25    2    1    2    0    0 -0.84115422784E+01  0.40599220300E+02  0.36743099158E+02  0.13672455608E+03  0.12499799265E+03 0.  0.
          2    1    1    2  501    0 -0.16381009926E+02  0.29455562928E+02 -0.17851639406E+03  0.18167022492E+03  0.00000000000E+00 0. -1.
          1    1    1    2  502    0  0.24792552204E+02 -0.70054783228E+02  0.20879551318E+04  0.20892771420E+04  0.00000000000E+00 0. -1.
         22    1    3    3    0    0 -0.16716964003E+02 -0.39534492708E+02 -0.93183984560E+01  0.43923405480E+02  0.00000000000E+00 0.  1.
         22    1    3    3    0    0  0.83054217248E+01  0.80133713008E+02  0.46061497614E+02  0.92801150601E+02  0.00000000000E+00 0.  1.
</event>
<event>
 7    1  0.5957303E-006  0.1630597E+03  0.7818608E-02  0.1276170E+00
          2   -1    0    0  502    0  0.00000000000E+00  0.00000000000E+00  0.63894620437E+02  0.63894620437E+02  0.00000000000E+00 0. -1.
          1   -1    0    0  501    0 -0.00000000000E+00 -0.00000000000E+00 -0.10490418284E+04  0.10490418284E+04  0.00000000000E+00 0. -1.
         25    2    1    2    0    0  0.71738587007E+01 -0.14771689964E+03 -0.42068076563E+03  0.46311558183E+03  0.12502795235E+03 0.  0.
          2    1    1    2  501    0  0.63021877381E+02 -0.98674002676E+01 -0.41997515854E+03  0.42479201547E+03  0.00000000000E+00 0. -1.
          1    1    1    2  502    0 -0.70195736081E+02  0.15758429991E+03 -0.14449128383E+03  0.22502885158E+03  0.00000000000E+00 0. -1.
         22    1    3    3    0    0  0.31881686643E+02 -0.36750804546E+02 -0.27006256699E+03  0.27441001014E+03  0.00000000000E+00 0.  1.
         22    1    3    3    0    0 -0.24707827942E+02 -0.11096609509E+03 -0.15061819864E+03  0.18870557168E+03  0.00000000000E+00 0.  1.
</event>
<event>
 7    1  0.5957303E-006  0.4793133E+02  0.7818608E-02  0.1504067E+00
          2   -1    0    0  502    0  0.00000000000E+00  0.00000000000E+00  0.66286369644E+03  0.66286369644E+03  0.00000000000E+00 0. -1.
          1   -1    0    0  501    0 -0.00000000000E+00 -0.00000000000E+00 -0.31721919274E+03  0.31721919274E+03  0.00000000000E+00 0. -1.
         25    2    1    2    0    0 -0.17548650040E+02 -0.11080136165E+02  0.12003797362E+03  0.17454171058E+03  0.12499987634E+03 0.  0.
          2    1    1    2  501    0 -0.16313995419E+01 -0.34298431941E+02 -0.28776742018E+03  0.28980878526E+03  0.00000000000E+00 0. -1.
          1    1    1    2  502    0  0.19180049582E+02  0.45378568106E+02  0.51337395025E+03  0.51573239334E+03  0.00000000000E+00 0. -1.
         22    1    3    3    0    0 -0.52499450692E+02 -0.44926683038E+02  0.37208087295E+02  0.78479557414E+02  0.00000000000E+00 0.  1.
         22    1    3    3    0    0  0.34950800652E+02  0.33846546873E+02  0.82829886329E+02  0.96062153165E+02  0.00000000000E+00 0.  1.
</event>
<event>
 7    1  0.5957303E-006  0.1163091E+03  0.7818608E-02  0.1360321E+00
          2   -1    0    0  502    0  0.00000000000E+00  0.00000000000E+00  0.31890207855E+03  0.31890207855E+03  0.00000000000E+00 0. -1.
          1   -1    0    0  501    0 -0.00000000000E+00 -0.00000000000E+00 -0.11914222591E+04  0.11914222591E+04  0.00000000000E+00 0. -1.
         25    2    1    2    0    0 -0.13472076082E+02  0.15406901121E+03 -0.28054483492E+03  0.34387411246E+03  0.12500097508E+03 0.  0.
          2    1    1    2  501    0 -0.82866140350E+01 -0.41223990216E+02 -0.86718771538E+03  0.86820655322E+03  0.00000000000E+00 0. -1.
          1    1    1    2  502    0  0.21758690117E+02 -0.11284502100E+03  0.27521236980E+03  0.29824367193E+03  0.00000000000E+00 0. -1.
         22    1    3    3    0    0  0.55615383929E+02  0.79503466411E+02 -0.12970421505E+03  0.16197856495E+03  0.00000000000E+00 0. -1.
         22    1    3    3    0    0 -0.69087460011E+02  0.74565544802E+02 -0.15084061987E+03  0.18189554751E+03  0.00000000000E+00 0. -1.
</event>
<event>
 7    1  0.5957303E-006  0.5600721E+02  0.7818608E-02  0.1531273E+00
          2   -1    0    0  502    0  0.00000000000E+00  0.00000000000E+00  0.12252961282E+04  0.12252961282E+04  0.00000000000E+00 0. -1.
          1   -1    0    0  501    0 -0.00000000000E+00 -0.00000000000E+00 -0.31140385443E+03  0.31140385443E+03  0.00000000000E+00 0. -1.
         25    2    1    2    0    0  0.79577885881E+01  0.79970181333E+02  0.66876995816E+03  0.68508221554E+03  0.12500331521E+03 0.  0.
          2    1    1    2  501    0 -0.65931052754E+01 -0.55524366978E+02 -0.30039335541E+03  0.30555292887E+03  0.00000000000E+00 0. -1.
          1    1    1    2  502    0 -0.13646833127E+01 -0.24445814356E+02  0.54551567105E+03  0.54606483824E+03  0.00000000000E+00 0. -1.
         22    1    3    3    0    0 -0.28820437663E+02  0.99224803407E+02  0.53965190045E+03  0.54945459585E+03  0.00000000000E+00 0. -1.
         22    1    3    3    0    0  0.36778226251E+02 -0.19254622074E+02  0.12911805771E+03  0.13562761970E+03  0.00000000000E+00 0. -1.
</event>
<event>
 7    1  0.5957303E-006  0.1183246E+03  0.7818608E-02  0.1357978E+00
          2   -1    0    0  502    0  0.00000000000E+00  0.00000000000E+00  0.75800009794E+03  0.75800009794E+03  0.00000000000E+00 0. -1.
          1   -1    0    0  501    0 -0.00000000000E+00 -0.00000000000E+00 -0.71332079211E+03  0.71332079211E+03  0.00000000000E+00 0. -1.
         25    2    1    2    0    0  0.86434295946E+02  0.11497649101E+03  0.29020941183E+03  0.34718483672E+03  0.12500130851E+03 0.  0.
          2    1    1    2  501    0 -0.92492876181E+02 -0.73258878536E+02 -0.67872013706E+03  0.68889971685E+03  0.00000000000E+00 0. -1.
          1    1    1    2  502    0  0.60585802350E+01 -0.41717612475E+02  0.43319003106E+03  0.43523633648E+03  0.00000000000E+00 0. -1.
         22    1    3    3    0    0  0.41966542371E+02  0.12769628048E+03  0.25770762860E+03  0.29065572859E+03  0.00000000000E+00 0. -1.
         22    1    3    3    0    0  0.44467753575E+02 -0.12719789466E+02  0.32501783234E+02  0.56529108126E+02  0.00000000000E+00 0. -1.
</event>
<event>
 7    1  0.5957303E-006  0.8424061E+02  0.7818608E-02  0.1344366E+00
          2   -1    0    0  502    0  0.00000000000E+00  0.00000000000E+00  0.17102787775E+04  0.17102787775E+04  0.00000000000E+00 0. -1.
          1   -1    0    0  501    0 -0.00000000000E+00 -0.00000000000E+00 -0.62120974220E+03  0.62120974220E+03  0.00000000000E+00 0. -1.
         25    2    1    2    0    0  0.12201079766E+03  0.62561772221E+02 -0.32793865634E+03  0.37678817549E+03  0.12499982709E+03 0.  0.
          2    1    1    2  501    0 -0.57641679918E+02 -0.45905453656E+02 -0.26312716131E+03  0.27325039242E+03  0.00000000000E+00 0. -1.
          1    1    1    2  502    0 -0.64369117746E+02 -0.16656318565E+02  0.16801348529E+04  0.16814499518E+04  0.00000000000E+00 0. -1.
         22    1    3    3    0    0 -0.13482277636E+02  0.46194990044E+02 -0.10294594450E+03  0.11363809398E+03  0.00000000000E+00 0. -1.
         22    1    3    3    0    0  0.13549307530E+03  0.16366782177E+02 -0.22499271185E+03  0.26315008151E+03  0.00000000000E+00 0. -1.
</event>
<event>
 7    1  0.5957303E-006  0.1021927E+03  0.7818608E-02  0.1360182E+00
          2   -1    0    0  502    0  0.00000000000E+00  0.00000000000E+00  0.15979412493E+03  0.15979412493E+03  0.00000000000E+00 0. -1.
          1   -1    0    0  501    0 -0.00000000000E+00 -0.00000000000E+00 -0.18487452610E+04  0.18487452610E+04  0.00000000000E+00 0. -1.
         25    2    1    2    0    0  0.11480454052E+03  0.14844717449E+02 -0.27656147097E+03  0.32482653276E+03  0.12500232397E+03 0.  0.
          2    1    1    2  501    0 -0.17322966458E+02 -0.44671444868E+02 -0.15284716056E+04  0.15292223750E+04  0.00000000000E+00 0. -1.
          1    1    1    2  502    0 -0.97481574066E+02  0.29826727419E+02  0.11608194045E+03  0.15449047818E+03  0.00000000000E+00 0. -1.
         22    1    3    3    0    0  0.13350562194E+03  0.26481127871E+02 -0.26911560960E+03  0.30157621351E+03  0.00000000000E+00 0.  1.
         22    1    3    3    0    0 -0.18701081420E+02 -0.11636410422E+02 -0.74458613709E+01  0.23250319253E+02  0.00000000000E+00 0.  1.
</event>
<event>
 7    1  0.5957303E-006  0.5934512E+02  0.7818608E-02  0.1506165E+00
          2   -1    0    0  502    0  0.00000000000E+00  0.00000000000E+00  0.10353145894E+03  0.10353145894E+03  0.00000000000E+00 0. -1.
          1   -1    0    0  501    0 -0.00000000000E+00 -0.00000000000E+00 -0.43924427663E+03  0.43924427663E+03  0.00000000000E+00 0. -1.
         25    2    1    2    0    0 -0.22522546021E+02 -0.42325831677E+02 -0.11832199516E+03  0.17866429741E+03  0.12498838157E+03 0.  0.
          2    1    1    2  501    0  0.25382131627E+01  0.60981836936E+02 -0.28485389740E+03  0.29131936054E+03  0.00000000000E+00 0. -1.
          1    1    1    2  502    0  0.19984332858E+02 -0.18656005258E+02  0.67463074874E+02  0.72792077614E+02  0.00000000000E+00 0. -1.
         22    1    3    3    0    0 -0.31855655775E+02  0.34405996405E+02 -0.14209852773E+02  0.48994645721E+02  0.00000000000E+00 0. -1.
         22    1    3    3    0    0  0.93331097545E+01 -0.76731828083E+02 -0.10411214238E+03  0.12966965169E+03  0.00000000000E+00 0. -1.
</event>
<event>
 7    1  0.5957303E-006  0.9325569E+02  0.7818608E-02  0.1324272E+00
          2   -1    0    0  502    0  0.00000000000E+00  0.00000000000E+00  0.19492716705E+04  0.19492716705E+04  0.00000000000E+00 0. -1.
          1   -1    0    0  501    0 -0.00000000000E+00 -0.00000000000E+00 -0.59598628852E+02  0.59598628852E+02  0.00000000000E+00 0. -1.
         25    2    1    2    0    0  0.59302831025E+01 -0.51329401556E+02  0.77451390965E+03  0.78623519050E+03  0.12499641122E+03 0.  0.
          2    1    1    2  501    0  0.52401037696E+02 -0.48779296773E+02 -0.25582400693E+02  0.76024652387E+02  0.00000000000E+00 0. -1.
          1    1    1    2  502    0 -0.58331320799E+02  0.10010869833E+03  0.11407415327E+04  0.11466104565E+04  0.00000000000E+00 0. -1.
         22    1    3    3    0    0  0.62758552759E+02 -0.74983593833E+01  0.38813743223E+03  0.39324995568E+03  0.00000000000E+00 0. -1.
         22    1    3    3    0    0 -0.56828269656E+02 -0.43831042173E+02  0.38637647742E+03  0.39298523482E+03  0.00000000000E+00 0. -1.
</event>
<event>
 7    1  0.5957303E-006  0.1397828E+03  0.7818608E-02  0.1237619E+00
          2   -1    0    0  502    0  0.00000000000E+00  0.00000000000E+00  0.10993204995E+04  0.10993204995E+04  0.00000000000E+00 0. -1.
          1   -1    0    0  501    0 -0.00000000000E+00 -0.00000000000E+00 -0.32264341896E+03  0.32264341896E+03  0.00000000000E+00 0. -1.
         25    2    1    2    0    0 -0.15365997771E+03  0.11794858152E+03  0.33321943679E+02  0.23293391586E+03  0.12499840236E+03 0.  0.
          2    1    1    2  501    0  0.10813648886E+03  0.12928791272E+02 -0.20418386900E+03  0.23141241589E+03  0.00000000000E+00 0. -1.
          1    1    1    2  502    0  0.45523488851E+02 -0.13087737280E+03  0.94753900588E+03  0.95761758672E+03  0.00000000000E+00 0. -1.
         22    1    3    3    0    0 -0.10600601020E+03  0.11939619335E+03 -0.20565654740E+02  0.16098345052E+03  0.00000000000E+00 0.  1.
         22    1    3    3    0    0 -0.47653967515E+02 -0.14476118290E+01  0.53887598420E+02  0.71950465345E+02  0.00000000000E+00 0.  1.
</event>
<event>
 7    1  0.5957303E-006  0.1275554E+03  0.7818608E-02  0.1269634E+00
          2   -1    0    0  502    0  0.00000000000E+00  0.00000000000E+00  0.10494747791E+03  0.10494747791E+03  0.00000000000E+00 0. -1.
          1   -1    0    0  501    0 -0.00000000000E+00 -0.00000000000E+00 -0.24368684002E+04  0.24368684002E+04  0.00000000000E+00 0. -1.
         25    2    1    2    0    0  0.15828733253E+03  0.13967090263E+03 -0.23787707416E+03  0.34172094087E+03  0.12499943337E+03 0.  0.
          2    1    1    2  501    0 -0.97252635969E+02 -0.77897549203E+02 -0.21083978870E+04  0.21120766447E+04  0.00000000000E+00 0. -1.
          1    1    1    2  502    0 -0.61034696558E+02 -0.61773353429E+02  0.14354038886E+02  0.88018292474E+02  0.00000000000E+00 0. -1.
         22    1    3    3    0    0  0.17866317258E+03  0.11479979366E+03 -0.21545086711E+03  0.30252040922E+03  0.00000000000E+00 0. -1.
         22    1    3    3    0    0 -0.20375840049E+02  0.24871108970E+02 -0.22426207048E+02  0.39200531650E+02  0.00000000000E+00 0. -1.
</event>
<event>
 7    1  0.5957303E-006  0.1642746E+03  0.7818608E-02  0.1256413E+00
          2   -1    0    0  502    0  0.00000000000E+00  0.00000000000E+00  0.11160587013E+03  0.11160587013E+03  0.00000000000E+00 0. -1.
          1   -1    0    0  501    0 -0.00000000000E+00 -0.00000000000E+00 -0.68119497339E+03  0.68119497339E+03  0.00000000000E+00 0. -1.
         25    2    1    2    0    0 -0.16321134591E+03 -0.48938825970E+02 -0.10630954471E+03  0.23655759521E+03  0.12499929774E+03 0.  0.
          2    1    1    2  501    0 -0.15047927951E+01  0.76721652766E+02 -0.34021762157E+03  0.34876425624E+03  0.00000000000E+00 0. -1.
          1    1    1    2  502    0  0.16471613871E+03 -0.27782826796E+02 -0.12306193699E+03  0.20747899207E+03  0.00000000000E+00 0. -1.
         22    1    3    3    0    0 -0.99881783823E+02  0.32295063672E+02 -0.32672671661E+02  0.10994018988E+03  0.00000000000E+00 0. -1.
         22    1    3    3    0    0 -0.63329562089E+02 -0.81233889642E+02 -0.73636873047E+02  0.12661740533E+03  0.00000000000E+00 0. -1.
</event>
<event>
 7    1  0.5957303E-006  0.5456743E+02  0.7818608E-02  0.1533191E+00
          2   -1    0    0  502    0  0.00000000000E+00  0.00000000000E+00  0.14843307598E+04  0.14843307598E+04  0.00000000000E+00 0. -1.
          1   -1    0    0  501    0 -0.00000000000E+00 -0.00000000000E+00 -0.18316004110E+03  0.18316004110E+03  0.00000000000E+00 0. -1.
         25    2    1    2    0    0 -0.49319848092E+02 -0.31748930998E+02  0.15585371719E+03  0.20822077800E+03  0.12500027677E+03 0.  0.
          2    1    1    2  501    0 -0.47721386229E+01  0.24351732429E+02 -0.15541960432E+03  0.15738816216E+03  0.00000000000E+00 0. -1.
          1    1    1    2  502    0  0.54091986715E+02  0.73971985688E+01  0.13007366059E+04  0.13018818608E+04  0.00000000000E+00 0. -1.
         22    1    3    3    0    0  0.30085435621E+02 -0.41723986658E+02  0.93698339055E+02  0.10688967790E+03  0.00000000000E+00 0.  1.
         22    1    3    3    0    0 -0.79405283712E+02  0.99750556602E+01  0.62155378131E+02  0.10133110010E+03  0.00000000000E+00 0.  1.
</event>
<event>
 7    1  0.5957303E-006  0.4332411E+02  0.7818608E-02  0.1548244E+00
          2   -1    0    0  502    0  0.00000000000E+00  0.00000000000E+00  0.63129963210E+03  0.63129963210E+03  0.00000000000E+00 0. -1.
          1   -1    0    0  501    0 -0.00000000000E+00 -0.00000000000E+00 -0.12426434329E+03  0.12426434329E+03  0.00000000000E+00 0. -1.
         25    2    1    2    0    0 -0.40030906638E+02  0.18267389406E+02  0.15827691181E+03  0.20642865968E+03  0.12500015889E+03 0.  0.
          2    1    1    2  501    0  0.42383198143E+02  0.99749546852E+01 -0.94984323168E+02  0.10448854891E+03  0.00000000000E+00 0. -1.
          1    1    1    2  502    0 -0.23522915050E+01 -0.28242344091E+02  0.44374270017E+03  0.44464676680E+03  0.00000000000E+00 0. -1.
         22    1    3    3    0    0  0.38824827567E+02  0.34297068055E+02  0.55912237349E+02  0.76222269700E+02  0.00000000000E+00 0. -1.
         22    1    3    3    0    0 -0.78855734204E+02 -0.16029678650E+02  0.10236467446E+03  0.13020638998E+03  0.00000000000E+00 0. -1.
</event>
<event>
 7    1  0.5957303E-006  0.2347976E+03  0.7818608E-02  0.1225275E+00
          2   -1    0    0  502    0  0.00000000000E+00  0.00000000000E+00  0.57851759594E+03  0.57851759594E+03  0.00000000000E+00 0. -1.
          1   -1    0    0  501    0 -0.00000000000E+00 -0.00000000000E+00 -0.16683241535E+04  0.16683241535E+04  0.00000000000E+00 0. -1.
         25    2    1    2    0    0 -0.14148077399E+03  0.19101093761E+03 -0.68634390447E+03  0.73701791279E+03  0.12500184347E+03 0.  0.
          2    1    1    2  501    0 -0.49749894974E+02 -0.54274980342E+02 -0.93014626049E+03  0.93305567435E+03  0.00000000000E+00 0. -1.
          1    1    1    2  502    0  0.19123066896E+03 -0.13673595727E+03  0.52668360739E+03  0.57676816231E+03  0.00000000000E+00 0. -1.
         22    1    3    3    0    0 -0.63927254481E+02  0.85367947509E+01 -0.24197360578E+03  0.25042123837E+03  0.00000000000E+00 0. -1.
         22    1    3    3    0    0 -0.77553519508E+02  0.18247414286E+03 -0.44437029869E+03  0.48659667442E+03  0.00000000000E+00 0. -1.
</event>
<event>
 7    1  0.5957303E-006  0.5987040E+02  0.7818608E-02  0.1428258E+00
          2   -1    0    0  502    0  0.00000000000E+00  0.00000000000E+00  0.19819632007E+03  0.19819632007E+03  0.00000000000E+00 0. -1.
          1   -1    0    0  501    0 -0.00000000000E+00 -0.00000000000E+00 -0.90687005364E+03  0.90687005364E+03  0.00000000000E+00 0. -1.
         25    2    1    2    0    0 -0.17815917112E+02 -0.99363648454E+01 -0.28404042734E+03  0.31099819009E+03  0.12499908650E+03 0.  0.
          2    1    1    2  501    0 -0.41283668944E+02  0.23433622725E+02 -0.60341960242E+03  0.60528397681E+03  0.00000000000E+00 0. -1.
          1    1    1    2  502    0  0.59099586056E+02 -0.13497257880E+02  0.17878629618E+03  0.18878420682E+03  0.00000000000E+00 0. -1.
         22    1    3    3    0    0  0.11408838252E+02 -0.84644663772E+01  0.87925579890E+01  0.16706820682E+02  0.00000000000E+00 0. -1.
         22    1    3    3    0    0 -0.29224755364E+02 -0.14718984682E+01 -0.29283298532E+03  0.29429136940E+03  0.00000000000E+00 0. -1.
</event>
<event>
 7    1  0.5957303E-006  0.1948385E+03  0.7818608E-02  0.1218828E+00
          2   -1    0    0  502    0  0.00000000000E+00  0.00000000000E+00  0.37468636653E+03  0.37468636653E+03  0.00000000000E+00 0. -1.
          1   -1    0    0  501    0 -0.00000000000E+00 -0.00000000000E+00 -0.10071099615E+04  0.10071099615E+04  0.00000000000E+00 0. -1.
         25    2    1    2    0    0 -0.10784902814E+03 -0.25162758119E+03 -0.17600418453E+03  0.34863983715E+03  0.12499764232E+03 0.  0.
          2    1    1    2  501    0  0.62905516652E+02  0.71078536007E+02 -0.71129184753E+03  0.71759693051E+03  0.00000000000E+00 0. -1.
          1    1    1    2  502    0  0.44943511483E+02  0.18054904519E+03  0.25487243711E+03  0.31555956037E+03  0.00000000000E+00 0. -1.
         22    1    3    3    0    0 -0.62402520950E+02 -0.24458299572E+03 -0.16431531803E+03  0.30118837984E+03  0.00000000000E+00 0. -1.
         22    1    3    3    0    0 -0.45446507185E+02 -0.70445854768E+01 -0.11688866506E+02  0.47451457302E+02  0.00000000000E+00 0. -1.
</event>
<event>
 7    1  0.5957303E-006  0.4483922E+02  0.7818608E-02  0.1502283E+00
          2   -1    0    0  502    0  0.00000000000E+00  0.00000000000E+00  0.14611173440E+04  0.14611173440E+04  0.00000000000E+00 0. -1.
          1   -1    0    0  501    0 -0.00000000000E+00 -0.00000000000E+00 -0.91851419978E+02  0.91851419978E+02  0.00000000000E+00 0. -1.
         25    2    1    2    0    0  0.99618075241E+01 -0.41873687446E+02  0.50868613676E+03  0.52558401883E+03  0.12499732721E+03 0.  0.
          2    1    1    2  501    0 -0.36859877906E+02  0.46795248874E+01 -0.78675811749E+02  0.87008228960E+02  0.00000000000E+00 0. -1.
          1    1    1    2  502    0  0.26898070382E+02  0.37194162559E+02  0.93925559902E+03  0.94037651619E+03  0.00000000000E+00 0. -1.
         22    1    3    3    0    0 -0.55205691666E+01  0.17445964660E+02  0.61237501523E+01  0.19296079467E+02  0.00000000000E+00 0.  1.
         22    1    3    3    0    0  0.15482376691E+02 -0.59319652107E+02  0.50256238661E+03  0.50628793937E+03  0.00000000000E+00 0.  1.
</event>
<event>
 7    1  0.5957303E-006  0.1673932E+03  0.7818608E-02  0.1255377E+00
          2   -1    0    0  502    0  0.00000000000E+00  0.00000000000E+00  0.57033923772E+03  0.57033923772E+03  0.00000000000E+00 0. -1.
          1   -1    0    0  501    0 -0.00000000000E+00 -0.00000000000E+00 -0.24139021522E+03  0.24139021522E+03  0.00000000000E+00 0. -1.
         25    2    1    2    0    0  0.11105266131E+03 -0.14674723778E+02  0.13690001614E+03  0.21660011121E+03  0.12500381056E+03 0.  0.
          2    1    1    2  501    0 -0.18015739587E+03 -0.17152948597E+02 -0.15595895567E+03  0.23890187690E+03  0.00000000000E+00 0. -1.
          1    1    1    2  502    0  0.69104734561E+02  0.31827672375E+02  0.34800796203E+03  0.35622746484E+03  0.00000000000E+00 0. -1.
         22    1    3    3    0    0  0.45249949828E+02 -0.68825764514E+02  0.73353691640E+02  0.11029645460E+03  0.00000000000E+00 0.  1.
         22    1    3    3    0    0  0.65802711479E+02  0.54151040736E+02  0.63546324496E+02  0.10630365661E+03  0.00000000000E+00 0.  1.
</event>
<event>
 7    1  0.5957303E-006  0.1151834E+03  0.7818608E-02  0.1350839E+00
          2   -1    0    0  502    0  0.00000000000E+00  0.00000000000E+00  0.12705190638E+03  0.12705190638E+03  0.00000000000E+00 0. -1.
          1   -1    0    0  501    0 -0.00000000000E+00 -0.00000000000E+00 -0.33197245879E+04  0.33197245879E+04  0.00000000000E+00 0. -1.
         25    2    1    2    0    0 -0.53825765642E+02  0.66284374447E+02 -0.63678296642E+02  0.16422407105E+03  0.12499515473E+03 0.  0.
          2    1    1    2  501    0 -0.15820155324E+02  0.43200177611E+02 -0.31506610005E+04  0.31509968697E+04  0.00000000000E+00 0. -1.
          1    1    1    2  502    0  0.69645920966E+02 -0.10948455206E+03  0.21666615584E+02  0.13155555358E+03  0.00000000000E+00 0. -1.
         22    1    3    3    0    0  0.10582932927E+02  0.72033331300E+02  0.93233594673E+00  0.72812557556E+02  0.00000000000E+00 0.  1.
         22    1    3    3    0    0 -0.64408698568E+02 -0.57489568532E+01 -0.64610632589E+02  0.91411513496E+02  0.00000000000E+00 0.  1.
</event>
<event>
 7    1  0.7864662E-006  0.1343210E+03  0.7818608E-02  0.1347067E+00
          2   -1    0    0  502    0  0.00000000000E+00  0.00000000000E+00  0.12305706764E+04  0.12305706764E+04  0.00000000000E+00 0. -1.
          1   -1    0    0  501    0 -0.00000000000E+00 -0.00000000000E+00 -0.29959279178E+04  0.29959279178E+04  0.00000000000E+00 0. -1.
         25    2    1    2    0    0  0.81840349525E+02 -0.53466640161E+02 -0.30488217184E+03  0.34370250205E+03  0.12498698646E+03 0.  0.
          2    1    1    2  501    0  0.18802118638E+02 -0.36145286253E+02 -0.26677312388E+04  0.26680423467E+04  0.00000000000E+00 0. -1.
          1    1    1    2  502    0 -0.10064246816E+03  0.89611926414E+02  0.12072561693E+04  0.12147537454E+04  0.00000000000E+00 0. -1.
         22    1    3    3    0    0  0.22499150145E+02  0.40888495946E+02 -0.77445092252E+02  0.90420258637E+02  0.00000000000E+00 0.  1.
         22    1    3    3    0    0  0.59341199380E+02 -0.94355136107E+02 -0.22743707959E+03  0.25328224341E+03  0.00000000000E+00 0.  1.
</event>
<event>
 7    1  0.5957303E-006  0.9984575E+02  0.7818608E-02  0.1335331E+00
          2   -1    0    0  502    0  0.00000000000E+00  0.00000000000E+00  0.12874368130E+04  0.12874368130E+04  0.00000000000E+00 0. -1.
          1   -1    0    0  501    0 -0.00000000000E+00 -0.00000000000E+00 -0.22212674980E+03  0.22212674980E+03  0.00000000000E+00 0. -1.
         25    2    1    2    0    0 -0.74298820856E+02  0.20538585732E+02 -0.72711809589E+02  0.16385681839E+03  0.12497960392E+03 0.  0.
          2    1    1    2  501    0 -0.19137805202E+02 -0.57567785141E+02 -0.92755365265E+02  0.11083259114E+03  0.00000000000E+00 0. -1.
          1    1    1    2  502    0  0.93436626058E+02  0.37029199409E+02  0.12307772381E+04  0.12348741533E+04  0.00000000000E+00 0. -1.
         22    1    3    3    0    0  0.89342024381E+01 -0.12560576304E+02 -0.72667201746E+02  0.74283983872E+02  0.00000000000E+00 0.  1.
         22    1    3    3    0    0 -0.83233023294E+02  0.33099162036E+02 -0.44607843774E-01  0.89572834521E+02  0.00000000000E+00 0.  1.
</event>
<event>
 7    1  0.5957303E-006  0.2026295E+03  0.7818608E-02  0.1256289E+00
          2   -1    0    0  502    0  0.00000000000E+00  0.00000000000E+00  0.53283483629E+03  0.53283483629E+03  0.00000000000E+00 0. -1.
          1   -1    0    0  501    0 -0.00000000000E+00 -0.00000000000E+00 -0.46325201814E+03  0.46325201814E+03  0.00000000000E+00 0. -1.
         25    2    1    2    0    0  0.35317113156E+02 -0.14327687550E+03  0.20532047278E+03  0.28205815418E+03  0.12499897704E+03 0.  0.
          2    1    1    2  501    0 -0.64659488655E+02  0.19821971399E+03 -0.39539765523E+03  0.44700247231E+03  0.00000000000E+00 0. -1.
          1    1    1    2  502    0  0.29342375499E+02 -0.54942838497E+02  0.25966000060E+03  0.26702622795E+03  0.00000000000E+00 0. -1.
         22    1    3    3    0    0  0.80990322679E+02 -0.89727825992E+02  0.14934640638E+03  0.19213241326E+03  0.00000000000E+00 0. -1.
         22    1    3    3    0    0 -0.45673209523E+02 -0.53549049504E+02  0.55974066396E+02  0.89925740919E+02  0.00000000000E+00 0. -1.
</event>
<event>
 7    1  0.5957303E-006  0.8514570E+02  0.7818608E-02  0.1441994E+00
          2   -1    0    0  502    0  0.00000000000E+00  0.00000000000E+00  0.68465351315E+03  0.68465351315E+03  0.00000000000E+00 0. -1.
          1   -1    0    0  501    0 -0.00000000000E+00 -0.00000000000E+00 -0.33395632752E+03  0.33395632752E+03  0.00000000000E+00 0. -1.
         25    2    1    2    0    0  0.41178058203E+02 -0.10359306396E+03 -0.67240840115E+02  0.18047778997E+03  0.12499498676E+03 0.  0.
          2    1    1    2  501    0 -0.31977519921E+02  0.74932261013E+02 -0.20181994509E+03  0.21764350612E+03  0.00000000000E+00 0. -1.
          1    1    1    2  502    0 -0.92005382818E+01  0.28660802950E+02  0.61975797084E+03  0.62048854458E+03  0.00000000000E+00 0. -1.
         22    1    3    3    0    0  0.68042717249E+02 -0.11853627128E+03 -0.56836871003E+02  0.14802394700E+03  0.00000000000E+00 0. -1.
         22    1    3    3    0    0 -0.26864659046E+02  0.14943207315E+02 -0.10403969112E+02  0.32453842974E+02  0.00000000000E+00 0. -1.
</event>
<event>
 7    1  0.5957303E-006  0.2455072E+03  0.7818608E-02  0.1230334E+00
          2   -1    0    0  502    0  0.00000000000E+00  0.00000000000E+00  0.45723174178E+04  0.45723174178E+04  0.00000000000E+00 0. -1.
          1   -1    0    0  501    0 -0.00000000000E+00 -0.00000000000E+00 -0.13637550079E+03  0.13637550079E+03  0.00000000000E+00 0. -1.
         25    2    1    2    0    0  0.16903811490E+03 -0.90616901081E+02  0.18889849289E+04  0.19028071424E+04  0.12500261069E+03 0.  0.
          2    1    1    2  501    0 -0.19829829969E+03  0.15068753459E+03 -0.88424668774E+01  0.24921303730E+03  0.00000000000E+00 0. -1.
          1    1    1    2  502    0  0.29260184786E+02 -0.60070633513E+02  0.25557994550E+04  0.25566727389E+04  0.00000000000E+00 0. -1.
         22    1    3    3    0    0  0.63653562237E+02  0.27161992615E+02  0.68684944488E+03  0.69032724831E+03  0.00000000000E+00 0. -1.
         22    1    3    3    0    0  0.10538455266E+03 -0.11777889370E+03  0.12021354840E+04  0.12124798941E+04  0.00000000000E+00 0. -1.
</event>
<event>
 7    1  0.5957303E-006  0.6090106E+02  0.7818608E-02  0.1476923E+00
          2   -1    0    0  502    0  0.00000000000E+00  0.00000000000E+00  0.48727907047E+03  0.48727907047E+03  0.00000000000E+00 0. -1.
          1   -1    0    0  501    0 -0.00000000000E+00 -0.00000000000E+00 -0.87939042556E+02  0.87939042556E+02  0.00000000000E+00 0. -1.
         25    2    1    2    0    0  0.10590097216E+02 -0.30699054152E+02  0.51623240299E+01  0.12926516199E+03  0.12501300104E+03 0.  0.
          2    1    1    2  501    0 -0.92025080305E+01 -0.31322387467E+02 -0.12211888427E+02  0.34855535137E+02  0.00000000000E+00 0. -1.
          1    1    1    2  502    0 -0.13875891851E+01  0.62021441620E+02  0.40638959231E+03  0.41109741590E+03  0.00000000000E+00 0. -1.
         22    1    3    3    0    0  0.35006154467E+02 -0.63858201928E+02 -0.26316405873E+02  0.77432900128E+02  0.00000000000E+00 0. -1.
         22    1    3    3    0    0 -0.24416057252E+02  0.33159147776E+02  0.31478729903E+02  0.51832261858E+02  0.00000000000E+00 0. -1.
</event>
<event>
 7    1  0.5957303E-006  0.1481576E+03  0.7818608E-02  0.1207732E+00
          2   -1    0    0  502    0  0.00000000000E+00  0.00000000000E+00  0.32137669429E+04  0.32137669429E+04  0.00000000000E+00 0. -1.
          1   -1    0    0  501    0 -0.00000000000E+00 -0.00000000000E+00 -0.21021247972E+04  0.21021247972E+04  0.00000000000E+00 0. -1.
         25    2    1    2    0    0  0.36073922774E+02  0.65048647434E+02  0.62571716776E+02  0.15834430069E+03  0.12500017353E+03 0.  0.
          2    1    1    2  501    0 -0.15022881936E+03  0.16740146665E+02 -0.20498655325E+04  0.20554312520E+04  0.00000000000E+00 0. -1.
          1    1    1    2  502    0  0.11415489658E+03 -0.81788794099E+02  0.30989359614E+04  0.31021161874E+04  0.00000000000E+00 0. -1.
         22    1    3    3    0    0  0.24156689026E+01  0.95164336377E+02  0.22161610028E+02  0.97740592045E+02  0.00000000000E+00 0. -1.
         22    1    3    3    0    0  0.33658253871E+02 -0.30115688943E+02  0.40410106748E+02  0.60603708645E+02  0.00000000000E+00 0. -1.
</event>
<event>
 7    1  0.5957303E-006  0.5614929E+02  0.7818608E-02  0.1442993E+00
          2   -1    0    0  502    0  0.00000000000E+00  0.00000000000E+00  0.52684647732E+03  0.52684647732E+03  0.00000000000E+00 0. -1.
          1   -1    0    0  501    0 -0.00000000000E+00 -0.00000000000E+00 -0.45756881389E+03  0.45756881389E+03  0.00000000000E+00 0. -1.
         25    2    1    2    0    0 -0.73317013214E+02 -0.32595723075E+02  0.65538223019E+02  0.16235361778E+03  0.12500229175E+03 0.  0.
          2    1    1    2  501    0  0.30362010700E+02  0.47005985349E+02 -0.40599323469E+03  0.40983157634E+03  0.00000000000E+00 0. -1.
          1    1    1    2  502    0  0.42955002513E+02 -0.14410262274E+02  0.40973267510E+03  0.41223009709E+03  0.00000000000E+00 0. -1.
         22    1    3    3    0    0 -0.10709678105E+03 -0.39282657080E+02  0.48992009015E+02  0.12414936410E+03  0.00000000000E+00 0.  1.
         22    1    3    3    0    0  0.33779767839E+02  0.66869340045E+01  0.16546214004E+02  0.38204253684E+02  0.00000000000E+00 0.  1.
</event>
<event>
 7    1  0.5957303E-006  0.1151747E+03  0.7818608E-02  0.1364048E+00
          2   -1    0    0  502    0  0.00000000000E+00  0.00000000000E+00  0.34514095605E+04  0.34514095605E+04  0.00000000000E+00 0. -1.
          1   -1    0    0  501    0 -0.00000000000E+00 -0.00000000000E+00 -0.26444200177E+02  0.26444200177E+02  0.00000000000E+00 0. -1.
         25    2    1    2    0    0  0.11028076115E+03 -0.49835246836E+02  0.63398445617E+03  0.65743107050E+03  0.12503568964E+03 0.  0.
          2    1    1    2  501    0  0.46163279795E+01  0.40897841064E+02  0.17789254386E+02  0.44837500592E+02  0.00000000000E+00 0. -1.
          1    1    1    2  502    0 -0.11489708913E+03  0.89374057724E+01  0.27731916497E+04  0.27755851895E+04  0.00000000000E+00 0. -1.
         22    1    3    3    0    0 -0.27727070566E+02 -0.85775543813E+01  0.82951111110E+02  0.87882032951E+02  0.00000000000E+00 0. -1.
         22    1    3    3    0    0  0.13800783172E+03 -0.41257692455E+02  0.55103334506E+03  0.56954903755E+03  0.00000000000E+00 0. -1.
</event>
<event>
 7    1  0.5957303E-006  0.4548846E+02  0.7818608E-02  0.1509800E+00
          2   -1    0    0  502    0  0.00000000000E+00  0.00000000000E+00  0.15180000274E+03  0.15180000274E+03  0.00000000000E+00 0. -1.
          1   -1    0    0  501    0 -0.00000000000E+00 -0.00000000000E+00 -0.16152252853E+04  0.16152252853E+04  0.00000000000E+00 0. -1.
         25    2    1    2    0    0  0.47933096971E+02 -0.57002704526E+02 -0.61586051339E+03  0.63281808850E+03  0.12501068386E+03 0.  0.
          2    1    1    2  501    0 -0.31524526358E+02  0.14731337439E+02 -0.98698515603E+03  0.98759835272E+03  0.00000000000E+00 0. -1.
          1    1    1    2  502    0 -0.16408570614E+02  0.42271367086E+02  0.13942038691E+03  0.14660884677E+03  0.00000000000E+00 0. -1.
         22    1    3    3    0    0 -0.31995050923E+02 -0.30429799249E+02 -0.37629286114E+03  0.37887461423E+03  0.00000000000E+00 0. -1.
         22    1    3    3    0    0  0.79928147894E+02 -0.26572905277E+02 -0.23956765225E+03  0.25394347427E+03  0.00000000000E+00 0. -1.
</event>
<event>
 7    1  0.5957303E-006  0.6812022E+02  0.7818608E-02  0.1376385E+00
          2   -1    0    0  502    0  0.00000000000E+00  0.00000000000E+00  0.48424490597E+03  0.48424490597E+03  0.00000000000E+00 0. -1.
          1   -1    0    0  501    0 -0.00000000000E+00 -0.00000000000E+00 -0.86352255151E+03  0.86352255151E+03  0.00000000000E+00 0. -1.
         25    2    1    2    0    0  0.67657922675E+02  0.97506745195E+02  0.15639676387E+03  0.23274488569E+03  0.12500029683E+03 0.  0.
          2    1    1    2  501    0 -0.57828884631E+02 -0.35446439266E+02 -0.82052524725E+03  0.82332394070E+03  0.00000000000E+00 0. -1.
          1    1    1    2  502    0 -0.98290380435E+01 -0.62060305929E+02  0.28485083784E+03  0.29169863109E+03  0.00000000000E+00 0. -1.
         22    1    3    3    0    0 -0.27469498404E+02 -0.74277948923E+01  0.41744510728E+02  0.50520784390E+02  0.00000000000E+00 0. -1.
         22    1    3    3    0    0  0.95127421079E+02  0.10493454009E+03  0.11465225314E+03  0.18222410130E+03  0.00000000000E+00 0. -1.
</event>
<event>
 7    1  0.5957303E-006  0.4479113E+02  0.7818608E-02  0.1574341E+00
          2   -1    0    0  502    0  0.00000000000E+00  0.00000000000E+00  0.13414162657E+04  0.13414162657E+04  0.00000000000E+00 0. -1.
          1   -1    0    0  501    0 -0.00000000000E+00 -0.00000000000E+00 -0.44961068072E+02  0.44961068072E+02  0.00000000000E+00 0. -1.
         25    2    1    2    0    0  0.58099442574E+02 -0.14770893049E+02  0.48067472814E+03  0.50026674766E+03  0.12499960013E+03 0.  0.
          2    1    1    2  501    0 -0.44276275669E+02 -0.39101052671E+01 -0.20893235252E+02  0.49114201507E+02  0.00000000000E+00 0. -1.
          1    1    1    2  502    0 -0.13823166905E+02  0.18680998317E+02  0.83667370473E+03  0.83699638460E+03  0.00000000000E+00 0. -1.
         22    1    3    3    0    0  0.49417995071E+02  0.31984704648E+02  0.41515845429E+03  0.41931098452E+03  0.00000000000E+00 0. -1.
         22    1    3    3    0    0  0.86814475028E+01 -0.46755597697E+02  0.65516273852E+02  0.80955763144E+02  0.00000000000E+00 0. -1.
</event>
<event>
 7    1  0.5957303E-006  0.1301296E+03  0.7818608E-02  0.1363471E+00
          2   -1    0    0  502    0  0.00000000000E+00  0.00000000000E+00  0.63532139425E+03  0.63532139425E+03  0.00000000000E+00 0. -1.
          1   -1    0    0  501    0 -0.00000000000E+00 -0.00000000000E+00 -0.15031369430E+03  0.15031369430E+03  0.00000000000E+00 0. -1.
         25    2    1    2    0    0 -0.51789413282E+02 -0.13449930828E+03  0.32867158370E+03  0.38003108824E+03  0.12500564326E+03 0.  0.
          2    1    1    2  501    0  0.15731000859E+02  0.12820504983E+03 -0.89444653727E+02  0.15711252423E+03  0.00000000000E+00 0. -1.
          1    1    1    2  502    0  0.36058412423E+02  0.62942584445E+01  0.24578076998E+03  0.24849147608E+03  0.00000000000E+00 0. -1.
         22    1    3    3    0    0  0.86475049169E+00 -0.11792246129E+03  0.28876192484E+03  0.31191329549E+03  0.00000000000E+00 0.  1.
         22    1    3    3    0    0 -0.52654163774E+02 -0.16576846989E+02  0.39909658862E+02  0.68117792751E+02  0.00000000000E+00 0.  1.
</event>
<event>
 7    1  0.5957303E-006  0.4462820E+02  0.7818608E-02  0.1486001E+00
          2   -1    0    0  502    0  0.00000000000E+00  0.00000000000E+00  0.25277938897E+03  0.25277938897E+03  0.00000000000E+00 0. -1.
          1   -1    0    0  501    0 -0.00000000000E+00 -0.00000000000E+00 -0.55645064320E+03  0.55645064320E+03  0.00000000000E+00 0. -1.
         25    2    1    2    0    0 -0.55883154085E+02  0.64910402449E+02 -0.43579184446E+02  0.15767186289E+03  0.12499993509E+03 0.  0.
          2    1    1    2  501    0  0.28408410431E+02 -0.33423775353E+02 -0.45252199721E+03  0.45464309573E+03  0.00000000000E+00 0. -1.
          1    1    1    2  502    0  0.27474743654E+02 -0.31486627096E+02  0.19242992743E+03  0.19691507356E+03  0.00000000000E+00 0. -1.
         22    1    3    3    0    0  0.24555857233E+02  0.23423727469E+02  0.26620350379E+02  0.43131243749E+02  0.00000000000E+00 0.  1.
         22    1    3    3    0    0 -0.80439011318E+02  0.41486674980E+02 -0.70199534825E+02  0.11454061914E+03  0.00000000000E+00 0.  1.
</event>
<event>
 7    1  0.5957303E-006  0.1240348E+03  0.7818608E-02  0.1299991E+00
          2   -1    0    0  502    0  0.00000000000E+00  0.00000000000E+00  0.24133651547E+04  0.24133651547E+04  0.00000000000E+00 0. -1.
          1   -1    0    0  501    0 -0.00000000000E+00 -0.00000000000E+00 -0.15041044527E+03  0.15041044527E+03  0.00000000000E+00 0. -1.
         25    2    1    2    0    0 -0.55195917149E+02  0.12477342771E+03  0.10458232505E+04  0.10620679868E+04  0.12500855841E+03 0.  0.
          2    1    1    2  501    0  0.99412029213E+02 -0.74375000022E+02 -0.11419992862E+03  0.16868911013E+03  0.00000000000E+00 0. -1.
          1    1    1    2  502    0 -0.44216112065E+02 -0.50398427684E+02  0.13313313875E+04  0.13330185031E+04  0.00000000000E+00 0. -1.
         22    1    3    3    0    0  0.15979157994E+02  0.11079190202E+03  0.67470291697E+03  0.68392558455E+03  0.00000000000E+00 0. -1.
         22    1    3    3    0    0 -0.71175075143E+02  0.13981525687E+02  0.37112033358E+03  0.37814240225E+03  0.00000000000E+00 0. -1.
</event>
<event>
 7    1  0.5957303E-006  0.2086585E+03  0.7818608E-02  0.1238526E+00
          2   -1    0    0  502    0  0.00000000000E+00  0.00000000000E+00  0.30054963065E+04  0.30054963065E+04  0.00000000000E+00 0. -1.
          1   -1    0    0  501    0 -0.00000000000E+00 -0.00000000000E+00 -0.40027611504E+04  0.40027611504E+04  0.00000000000E+00 0. -1.
         25    2    1    2    0    0  0.25163888002E+03  0.12265182007E+03  0.12924662364E+03  0.33271054101E+03  0.12500407784E+03 0.  0.
          2    1    1    2  501    0 -0.18498772539E+03 -0.94670283039E+02 -0.38977901481E+04  0.39033256282E+04  0.00000000000E+00 0. -1.
          1    1    1    2  502    0 -0.66651154628E+02 -0.27981537029E+02  0.27712786805E+04  0.27722212877E+04  0.00000000000E+00 0. -1.
         22    1    3    3    0    0  0.11544209846E+03  0.43991857129E+02  0.12445130016E+03  0.17535759950E+03  0.00000000000E+00 0.  1.
         22    1    3    3    0    0  0.13619678156E+03  0.78659962940E+02  0.47953234796E+01  0.15735294152E+03  0.00000000000E+00 0.  1.
</event>
<event>
 7    1  0.5957303E-006  0.1944359E+03  0.7818608E-02  0.1232028E+00
          2   -1    0    0  502    0  0.00000000000E+00  0.00000000000E+00  0.89739741876E+03  0.89739741876E+03  0.00000000000E+00 0. -1.
          1   -1    0    0  501    0 -0.00000000000E+00 -0.00000000000E+00 -0.41785570673E+03  0.41785570673E+03  0.00000000000E+00 0. -1.
         25    2    1    2    0    0 -0.18773211356E+03  0.10018618109E+02  0.29802389949E+03  0.37388216690E+03  0.12500364350E+03 0.  0.
          2    1    1    2  501    0  0.17341419530E+03 -0.91681464899E+02 -0.35118509167E+03  0.40225482315E+03  0.00000000000E+00 0. -1.
          1    1    1    2  502    0  0.14317918256E+02  0.81662846790E+02  0.53270290421E+03  0.53911613544E+03  0.00000000000E+00 0. -1.
         22    1    3    3    0    0 -0.44768331660E+02  0.46055609516E+02  0.15797477307E+03  0.17053255295E+03  0.00000000000E+00 0. -1.
         22    1    3    3    0    0 -0.14296378190E+03 -0.36036991406E+02  0.14004912642E+03  0.20334961395E+03  0.00000000000E+00 0. -1.
</event>
<event>
 7    1  0.5957303E-006  0.2874166E+02  0.7818608E-02  0.1634571E+00
          2   -1    0    0  502    0  0.00000000000E+00  0.00000000000E+00  0.24956045956E+04  0.24956045956E+04  0.00000000000E+00 0. -1.
          1   -1    0    0  501    0 -0.00000000000E+00 -0.00000000000E+00 -0.50674668362E+03  0.50674668362E+03  0.00000000000E+00 0. -1.
         25    2    1    2    0    0 -0.27149096245E+02 -0.23822250091E+02  0.12759302407E+04  0.12825472029E+04  0.12499910152E+03 0.  0.
          2    1    1    2  501    0  0.24769126280E+02 -0.49360831762E+01 -0.50295014482E+03  0.50358387852E+03  0.00000000000E+00 0. -1.
          1    1    1    2  502    0  0.23799699647E+01  0.28758333268E+02  0.12158778161E+04  0.12162201979E+04  0.00000000000E+00 0. -1.
         22    1    3    3    0    0 -0.42426922050E+01 -0.72749686215E+02  0.58791244417E+03  0.59241164682E+03  0.00000000000E+00 0.  1.
         22    1    3    3    0    0 -0.22906404040E+02  0.48927436124E+02  0.68801779655E+03  0.69013555605E+03  0.00000000000E+00 0.  1.
</event>
<event>
 7    1  0.5957303E-006  0.1126020E+03  0.7818608E-02  0.1371555E+00
          2   -1    0    0  502    0  0.00000000000E+00  0.00000000000E+00  0.81847356880E+02  0.81847356880E+02  0.00000000000E+00 0. -1.
          1   -1    0    0  501    0 -0.00000000000E+00 -0.00000000000E+00 -0.18989339998E+04  0.18989339998E+04  0.00000000000E+00 0. -1.
         25    2    1    2    0    0 -0.68298004017E+02 -0.11244511058E+03 -0.31136361371E+03  0.36039249578E+03  0.12500772305E+03 0.  0.
          2    1    1    2  501    0 -0.12585500422E+02  0.37497643687E+02 -0.15095358041E+04  0.15100539103E+04  0.00000000000E+00 0. -1.
          1    1    1    2  502    0  0.80883504439E+02  0.74947466897E+02  0.38127748518E+01  0.11033495066E+03  0.00000000000E+00 0. -1.
         22    1    3    3    0    0 -0.77286079719E+02 -0.18832034660E+02 -0.19617482107E+03  0.21168926300E+03  0.00000000000E+00 0.  1.
         22    1    3    3    0    0  0.89880757016E+01 -0.93613075924E+02 -0.11518879265E+03  0.14870323278E+03  0.00000000000E+00 0.  1.
</event>
<event>
 7    1  0.5957303E-006  0.5191741E+02  0.7818608E-02  0.1540296E+00
          2   -1    0    0  502    0  0.00000000000E+00  0.00000000000E+00  0.78685873136E+02  0.78685873136E+02  0.00000000000E+00 0. -1.
          1   -1    0    0  501    0 -0.00000000000E+00 -0.00000000000E+00 -0.84081647228E+03  0.84081647228E+03  0.00000000000E+00 0. -1.
         25    2    1    2    0    0  0.12817472109E+02  0.37993238485E+02 -0.19964935168E+03  0.23894194967E+03  0.12500247168E+03 0.  0.
          2    1    1    2  501    0 -0.20425033911E+02  0.14237783976E+02 -0.60941863832E+03  0.60992702288E+03  0.00000000000E+00 0. -1.
          1    1    1    2  502    0  0.76075618018E+01 -0.52231022461E+02  0.46937390849E+02  0.70633372874E+02  0.00000000000E+00 0. -1.
         22    1    3    3    0    0 -0.16412550405E+02 -0.16414721825E+02 -0.16789949600E+03  0.16949647684E+03  0.00000000000E+00 0.  1.
         22    1    3    3    0    0  0.29230022514E+02  0.54407960310E+02 -0.31749855675E+02  0.69445472831E+02  0.00000000000E+00 0.  1.
</event>
<event>
 7    1  0.5957303E-006  0.1182489E+03  0.7818608E-02  0.1406857E+00
          2   -1    0    0  502    0  0.00000000000E+00  0.00000000000E+00  0.34725224323E+03  0.34725224323E+03  0.00000000000E+00 0. -1.
          1   -1    0    0  501    0 -0.00000000000E+00 -0.00000000000E+00 -0.37622209951E+03  0.37622209951E+03  0.00000000000E+00 0. -1.
         25    2    1    2    0    0 -0.67764434463E+02  0.92875049118E+02  0.53097698434E+02  0.17794202189E+03  0.12500481690E+03 0.  0.
          2    1    1    2  501    0  0.45139961659E+02 -0.10996143659E+03 -0.30159907430E+03  0.32417762923E+03  0.00000000000E+00 0. -1.
          1    1    1    2  502    0  0.22624472803E+02  0.17086387471E+02  0.21953151959E+03  0.22135469161E+03  0.00000000000E+00 0. -1.
         22    1    3    3    0    0 -0.29342756288E+02  0.81702342678E+02  0.88895695631E+02  0.12425262511E+03  0.00000000000E+00 0. -1.
         22    1    3    3    0    0 -0.38421678175E+02  0.11172706440E+02 -0.35797997198E+02  0.53689396777E+02  0.00000000000E+00 0. -1.
</event>
<event>
 7    1  0.5957303E-006  0.1739504E+03  0.7818608E-02  0.1342945E+00
          2   -1    0    0  502    0  0.00000000000E+00  0.00000000000E+00  0.19335809868E+04  0.19335809868E+04  0.00000000000E+00 0. -1.
          1   -1    0    0  501    0 -0.00000000000E+00 -0.00000000000E+00 -0.76567104636E+03  0.76567104636E+03  0.00000000000E+00 0. -1.
         25    2    1    2    0    0  0.10327005433E+03 -0.17781752525E+03 -0.39740600234E+02  0.24390470200E+03  0.12500564764E+03 0.  0.
          2    1    1    2  501    0 -0.16020604417E+02  0.28387147274E+02 -0.61933177320E+03  0.62018895120E+03  0.00000000000E+00 0. -1.
          1    1    1    2  502    0 -0.87249449918E+02  0.14943037798E+03  0.18269823138E+04  0.18351583799E+04  0.00000000000E+00 0. -1.
         22    1    3    3    0    0 -0.23677128962E+02 -0.63606162493E+02  0.27832553160E+01  0.67927143714E+02  0.00000000000E+00 0. -1.
         22    1    3    3    0    0  0.12694718330E+03 -0.11421136276E+03 -0.42523855550E+02  0.17597755829E+03  0.00000000000E+00 0. -1.
</event>
<event>
 7    1  0.5957303E-006  0.4707128E+02  0.7818608E-02  0.1476235E+00
          2   -1    0    0  502    0  0.00000000000E+00  0.00000000000E+00  0.20413564336E+04  0.20413564336E+04  0.00000000000E+00 0. -1.
          1   -1    0    0  501    0 -0.00000000000E+00 -0.00000000000E+00 -0.11505608770E+04  0.11505608770E+04  0.00000000000E+00 0. -1.
         25    2    1    2    0    0 -0.27923510632E+02  0.35319220612E+02  0.15567989119E+04  0.15624580694E+04  0.12500078696E+03 0.  0.
          2    1    1    2  501    0 -0.20294384251E+02 -0.42471675794E+02 -0.11460137885E+04  0.11469800821E+04  0.00000000000E+00 0. -1.
          1    1    1    2  502    0  0.48217894883E+02  0.71524551815E+01  0.48001043317E+03  0.48247915909E+03  0.00000000000E+00 0. -1.
         22    1    3    3    0    0  0.38060188899E+02  0.16192851513E+01  0.19743809444E+03  0.20107958921E+03  0.00000000000E+00 0.  1.
         22    1    3    3    0    0 -0.65983699531E+02  0.33699935461E+02  0.13593608175E+04  0.13613784802E+04  0.00000000000E+00 0.  1.
</event>
<event>
 7    1  0.5957303E-006  0.3479388E+02  0.7818608E-02  0.1567379E+00
          2   -1    0    0  502    0  0.00000000000E+00  0.00000000000E+00  0.61041048573E+02  0.61041048573E+02  0.00000000000E+00 0. -1.
          1   -1    0    0  501    0 -0.00000000000E+00 -0.00000000000E+00 -0.13734499949E+04  0.13734499949E+04  0.00000000000E+00 0. -1.
         25    2    1    2    0    0 -0.16819149809E+01 -0.13943903885E+02 -0.37562260379E+03  0.39612574723E+03  0.12500402332E+03 0.  0.
          2    1    1    2  501    0  0.30635375013E+02 -0.61495512444E+01 -0.98118331480E+03  0.98168072224E+03  0.00000000000E+00 0. -1.
          1    1    1    2  502    0 -0.28953460032E+02  0.20093455129E+02  0.44396972246E+02  0.56684574017E+02  0.00000000000E+00 0. -1.
         22    1    3    3    0    0  0.12036406893E+02 -0.21951409068E+02 -0.54609733340E+01  0.25623459577E+02  0.00000000000E+00 0. -1.
         22    1    3    3    0    0 -0.13718321874E+02  0.80075051830E+01 -0.37016163045E+03  0.37050228765E+03  0.00000000000E+00 0. -1.
</event>
<event>
 7    1  0.5957303E-006  0.1588342E+03  0.7818608E-02  0.1204192E+00
          2   -1    0    0  502    0  0.00000000000E+00  0.00000000000E+00  0.12438873069E+04  0.12438873069E+04  0.00000000000E+00 0. -1.
          1   -1    0    0  501    0 -0.00000000000E+00 -0.00000000000E+00 -0.29745426147E+03  0.29745426147E+03  0.00000000000E+00 0. -1.
         25    2    1    2    0    0 -0.61453795611E+02  0.23277456245E+02  0.79224599468E+02  0.16191080300E+03  0.12498064651E+03 0.  0.
          2    1    1    2  501    0 -0.20099962225E+02  0.13457916856E+03 -0.23037453278E+03  0.26755931389E+03  0.00000000000E+00 0. -1.
          1    1    1    2  502    0  0.81553757836E+02 -0.15785662481E+03  0.10975829787E+04  0.11118714515E+04  0.00000000000E+00 0. -1.
         22    1    3    3    0    0  0.84704474626E+01 -0.42850930686E+02  0.14896302758E+02  0.46150304189E+02  0.00000000000E+00 0. -1.
         22    1    3    3    0    0 -0.69924243073E+02  0.66128386931E+02  0.64328296710E+02  0.11576049881E+03  0.00000000000E+00 0. -1.
</event>
<event>
 7    1  0.5957303E-006  0.5933461E+02  0.7818608E-02  0.1410550E+00
          2   -1    0    0  502    0  0.00000000000E+00  0.00000000000E+00  0.95888237974E+03  0.95888237974E+03  0.00000000000E+00 0. -1.
          1   -1    0    0  501    0 -0.00000000000E+00 -0.00000000000E+00 -0.10144891218E+03  0.10144891218E+03  0.00000000000E+00 0. -1.
         25    2    1    2    0    0  0.55082397580E+02  0.78925301492E+02  0.28430020753E+03  0.32513856343E+03  0.12500081476E+03 0.  0.
          2    1    1    2  501    0 -0.25858379336E+01 -0.54833568825E+02 -0.70287950467E+02  0.89184095044E+02  0.00000000000E+00 0. -1.
          1    1    1    2  502    0 -0.52496559647E+02 -0.24091732667E+02  0.64342121050E+03  0.64600863344E+03  0.00000000000E+00 0. -1.
         22    1    3    3    0    0  0.34031485068E+01 -0.25057588257E+02  0.12773099162E+03  0.13021010088E+03  0.00000000000E+00 0.  1.
         22    1    3    3    0    0  0.51679249073E+02  0.10398288975E+03  0.15656921591E+03  0.19492846256E+03  0.00000000000E+00 0.  1.
</event>
<event>
 7    1  0.5957303E-006  0.1352866E+03  0.7818608E-02  0.1295798E+00
          2   -1    0    0  502    0  0.00000000000E+00  0.00000000000E+00  0.36531986636E+04  0.36531986636E+04  0.00000000000E+00 0. -1.
          1   -1    0    0  501    0 -0.00000000000E+00 -0.00000000000E+00 -0.16945153312E+03  0.16945153312E+03  0.00000000000E+00 0. -1.
         25    2    1    2    0    0  0.95415481319E+02 -0.14041630291E+03  0.24880620738E+03  0.32611489738E+03  0.12500218102E+03 0.  0.
          2    1    1    2  501    0 -0.32696302643E+02  0.12819132203E+03 -0.96959640504E+02  0.16402205686E+03  0.00000000000E+00 0. -1.
          1    1    1    2  502    0 -0.62719178675E+02  0.12224980883E+02  0.33319005636E+04  0.33325132425E+04  0.00000000000E+00 0. -1.
         22    1    3    3    0    0  0.30538218850E+02 -0.77159580848E+02  0.21316143647E+03  0.22874435889E+03  0.00000000000E+00 0.  1.
         22    1    3    3    0    0  0.64877262469E+02 -0.63256722066E+02  0.35644770916E+02  0.97370538489E+02  0.00000000000E+00 0.  1.
</event>
<event>
 7    1  0.5957303E-006  0.3258266E+02  0.7818608E-02  0.1586190E+00
          2   -1    0    0  502    0  0.00000000000E+00  0.00000000000E+00  0.72685862053E+03  0.72685862053E+03  0.00000000000E+00 0. -1.
          1   -1    0    0  501    0 -0.00000000000E+00 -0.00000000000E+00 -0.32170268214E+03  0.32170268214E+03  0.00000000000E+00 0. -1.
         25    2    1    2    0    0 -0.64364786214E+01  0.77838781267E+01  0.31586534010E+03  0.33985094847E+03  0.12500294831E+03 0.  0.
          2    1    1    2  501    0  0.15814695522E+02  0.25131872767E+02 -0.30826118496E+03  0.30968802653E+03  0.00000000000E+00 0. -1.
          1    1    1    2  502    0 -0.93782169009E+01 -0.32915750893E+02  0.39755178326E+03  0.39902232767E+03  0.00000000000E+00 0. -1.
         22    1    3    3    0    0  0.33621060941E+02  0.31140853117E+02  0.42240375526E+02  0.62324776745E+02  0.00000000000E+00 0. -1.
         22    1    3    3    0    0 -0.40057539563E+02 -0.23356974990E+02  0.27362496457E+03  0.27752617172E+03  0.00000000000E+00 0. -1.
</event>
<event>
 7    1  0.5957303E-006  0.1308288E+03  0.7818608E-02  0.1260750E+00
          2   -1    0    0  502    0  0.00000000000E+00  0.00000000000E+00  0.51232599056E+03  0.51232599056E+03  0.00000000000E+00 0. -1.
          1   -1    0    0  501    0 -0.00000000000E+00 -0.00000000000E+00 -0.37791438328E+03  0.37791438328E+03  0.00000000000E+00 0. -1.
         25    2    1    2    0    0  0.45106016914E+02  0.23758007715E+02  0.24363252499E+03  0.27853424124E+03  0.12500208244E+03 0.  0.
          2    1    1    2  501    0  0.12931454093E+03 -0.19847537495E+02 -0.31549499312E+03  0.34154540829E+03  0.00000000000E+00 0. -1.
          1    1    1    2  502    0 -0.17442055785E+03 -0.39104702193E+01  0.20627407541E+03  0.27016072431E+03  0.00000000000E+00 0. -1.
         22    1    3    3    0    0  0.32944550548E+02  0.71089859151E+02  0.10142780253E+03  0.12816672973E+03  0.00000000000E+00 0. -1.
         22    1    3    3    0    0  0.12161466366E+02 -0.47331851437E+02  0.14220472246E+03  0.15036751150E+03  0.00000000000E+00 0. -1.
</event>
<event>
 7    1  0.5957303E-006  0.1230468E+03  0.7818608E-02  0.1271212E+00
          2   -1    0    0  502    0  0.00000000000E+00  0.00000000000E+00  0.26464358262E+03  0.26464358262E+03  0.00000000000E+00 0. -1.
          1   -1    0    0  501    0 -0.00000000000E+00 -0.00000000000E+00 -0.51465651842E+03  0.51465651842E+03  0.00000000000E+00 0. -1.
         25    2    1    2    0    0  0.14260197888E+03  0.12581934439E+03 -0.61632777708E+02  0.23580182225E+03  0.12505226222E+03 0.  0.
          2    1    1    2  501    0 -0.10792360314E+03 -0.44222945126E+02 -0.34463880613E+03  0.36383935972E+03  0.00000000000E+00 0. -1.
          1    1    1    2  502    0 -0.34678375735E+02 -0.81596399260E+02  0.15625864804E+03  0.17965891908E+03  0.00000000000E+00 0. -1.
         22    1    3    3    0    0  0.44445241028E+02  0.90203429769E+02 -0.81587710530E+02  0.12949360101E+03  0.00000000000E+00 0. -1.
         22    1    3    3    0    0  0.98156737850E+02  0.35615914617E+02  0.19954932822E+02  0.10630822124E+03  0.00000000000E+00 0. -1.
</event>
<event>
 7    1  0.5957303E-006  0.7197554E+02  0.7818608E-02  0.1426530E+00
          2   -1    0    0  502    0  0.00000000000E+00  0.00000000000E+00  0.21821475336E+04  0.21821475336E+04  0.00000000000E+00 0. -1.
          1   -1    0    0  501    0 -0.00000000000E+00 -0.00000000000E+00 -0.17703589152E+04  0.17703589152E+04  0.00000000000E+00 0. -1.
         25    2    1    2    0    0  0.79419093163E+02 -0.40736290773E+02 -0.73703355567E+02  0.17036076155E+03  0.12499506674E+03 0.  0.
          2    1    1    2  501    0 -0.74990911405E+01  0.39300361603E+02 -0.16474776590E+04  0.16479634073E+04  0.00000000000E+00 0. -1.
          1    1    1    2  502    0 -0.71920002023E+02  0.14359291691E+01  0.21329696330E+04  0.21341822799E+04  0.00000000000E+00 0. -1.
         22    1    3    3    0    0 -0.55588910700E+01  0.14454394791E+02  0.24674838637E+02  0.29132086442E+02  0.00000000000E+00 0.  1.
         22    1    3    3    0    0  0.84977984233E+02 -0.55190685564E+02 -0.98378194204E+02  0.14122867511E+03  0.00000000000E+00 0.  1.
</event>
<event>
 7    1  0.5957303E-006  0.4248398E+02  0.7818608E-02  0.1516362E+00
          2   -1    0    0  502    0  0.00000000000E+00  0.00000000000E+00  0.44444592843E+03  0.44444592843E+03  0.00000000000E+00 0. -1.
          1   -1    0    0  501    0 -0.00000000000E+00 -0.00000000000E+00 -0.60639044082E+02  0.60639044082E+02  0.00000000000E+00 0. -1.
         25    2    1    2    0    0 -0.11350257215E+02 -0.19915043359E+02  0.10368644811E+03  0.16401601998E+03  0.12499975199E+03 0.  0.
          2    1    1    2  501    0  0.29312895668E+02 -0.20278026302E+02 -0.17850514951E+02  0.39863330106E+02  0.00000000000E+00 0. -1.
          1    1    1    2  502    0 -0.17962638452E+02  0.40193069661E+02  0.29797095119E+03  0.30120562242E+03  0.00000000000E+00 0. -1.
         22    1    3    3    0    0 -0.22249474170E+02 -0.69308039426E+02  0.80010104429E+02  0.10816774122E+03  0.00000000000E+00 0.  1.
         22    1    3    3    0    0  0.10899216954E+02  0.49392996067E+02  0.23676343685E+02  0.55848278765E+02  0.00000000000E+00 0.  1.
</event>
<event>
 7    1  0.5957303E-006  0.2872621E+02  0.7818608E-02  0.1647221E+00
          2   -1    0    0  502    0  0.00000000000E+00  0.00000000000E+00  0.10712690112E+03  0.10712690112E+03  0.00000000000E+00 0. -1.
          1   -1    0    0  501    0 -0.00000000000E+00 -0.00000000000E+00 -0.51128151408E+03  0.51128151408E+03  0.00000000000E+00 0. -1.
         25    2    1    2    0    0 -0.44910076334E+02 -0.23791275183E+02 -0.10025892053E+03  0.16811802988E+03  0.12501552341E+03 0.  0.
          2    1    1    2  501    0  0.22208487226E+02  0.17685229032E+02 -0.37465451889E+03  0.37572861583E+03  0.00000000000E+00 0. -1.
          1    1    1    2  502    0  0.22701589107E+02  0.61060461509E+01  0.70758826454E+02  0.74561769485E+02  0.00000000000E+00 0. -1.
         22    1    3    3    0    0 -0.45597591996E+02  0.21797800272E+02 -0.11039212063E+03  0.12141130421E+03  0.00000000000E+00 0.  1.
         22    1    3    3    0    0  0.68751566220E+00 -0.45589075455E+02  0.10133200100E+02  0.46706725671E+02  0.00000000000E+00 0.  1.
</event>
<event>
 7    1  0.5957303E-006  0.1688316E+03  0.7818608E-02  0.1191969E+00
          2   -1    0    0  502    0  0.00000000000E+00  0.00000000000E+00  0.86531237117E+02  0.86531237117E+02  0.00000000000E+00 0. -1.
          1   -1    0    0  501    0 -0.00000000000E+00 -0.00000000000E+00 -0.97118622908E+03  0.97118622908E+03  0.00000000000E+00 0. -1.
         25    2    1    2    0    0 -0.82260848615E+02 -0.61282507454E+02 -0.27555048994E+03  0.31949186406E+03  0.12499834302E+03 0.  0.
          2    1    1    2  501    0  0.22183152883E+02  0.21906335294E+03 -0.47165488357E+03  0.52051817842E+03  0.00000000000E+00 0. -1.
          1    1    1    2  502    0  0.60077695732E+02 -0.15778084549E+03 -0.13744961845E+03  0.21770742371E+03  0.00000000000E+00 0. -1.
         22    1    3    3    0    0  0.94806959388E+01 -0.54369205770E+02 -0.44824427941E+02  0.71099391501E+02  0.00000000000E+00 0. -1.
         22    1    3    3    0    0 -0.91741544554E+02 -0.69133016843E+01 -0.23072606200E+03  0.24839247255E+03  0.00000000000E+00 0. -1.
</event>
<event>
 7    1  0.5957303E-006  0.5107326E+02  0.7818608E-02  0.1448647E+00
          2   -1    0    0  502    0  0.00000000000E+00  0.00000000000E+00  0.64325230441E+02  0.64325230441E+02  0.00000000000E+00 0. -1.
          1   -1    0    0  501    0 -0.00000000000E+00 -0.00000000000E+00 -0.12547018703E+04  0.12547018703E+04  0.00000000000E+00 0. -1.
         25    2    1    2    0    0 -0.26244771318E+01  0.31796856837E+02 -0.64190774084E+03  0.65474309622E+03  0.12500018527E+03 0.  0.
          2    1    1    2  501    0 -0.44876248127E+02 -0.36831573434E+02 -0.59486647193E+03  0.59769269852E+03  0.00000000000E+00 0. -1.
          1    1    1    2  502    0  0.47500725259E+02  0.50347165972E+01  0.46397572865E+02  0.66591306033E+02  0.00000000000E+00 0. -1.
         22    1    3    3    0    0  0.22133633737E+02  0.58094576460E+02 -0.16264708001E+03  0.17412337636E+03  0.00000000000E+00 0.  1.
         22    1    3    3    0    0 -0.24758110869E+02 -0.26297719623E+02 -0.47926066082E+03  0.48061971986E+03  0.00000000000E+00 0.  1.
</event>
<event>
 7    1  0.5957303E-006  0.1611706E+03  0.7818608E-02  0.1260090E+00
          2   -1    0    0  502    0  0.00000000000E+00  0.00000000000E+00  0.95537006083E+03  0.95537006083E+03  0.00000000000E+00 0. -1.
          1   -1    0    0  501    0 -0.00000000000E+00 -0.00000000000E+00 -0.11700878148E+03  0.11700878148E+03  0.00000000000E+00 0. -1.
         25    2    1    2    0    0  0.13281655441E+03  0.87830207794E+02  0.25414658434E+03  0.32491625458E+03  0.12500281448E+03 0.  0.
          2    1    1    2  501    0 -0.82320886393E+02 -0.14386578668E+03  0.75917801654E+01  0.16592687558E+03  0.00000000000E+00 0. -1.
          1    1    1    2  502    0 -0.50495668020E+02  0.56035578886E+02  0.57662291484E+03  0.58153571216E+03  0.00000000000E+00 0. -1.
         22    1    3    3    0    0  0.10166300191E+02 -0.17860725977E+02  0.97472530206E+02  0.99615527588E+02  0.00000000000E+00 0.  1.
         22    1    3    3    0    0  0.12265025422E+03  0.10569093377E+03  0.15667405413E+03  0.22530072699E+03  0.00000000000E+00 0.  1.
</event>
<event>
 7    1  0.5957303E-006  0.5528730E+02  0.7818608E-02  0.1479389E+00
          2   -1    0    0  502    0  0.00000000000E+00  0.00000000000E+00  0.11351383882E+04  0.11351383882E+04  0.00000000000E+00 0. -1.
          1   -1    0    0  501    0 -0.00000000000E+00 -0.00000000000E+00 -0.32354741018E+03  0.32354741018E+03  0.00000000000E+00 0. -1.
         25    2    1    2    0    0  0.86601798082E+02 -0.25214490517E+02  0.40609081754E+02  0.15940092235E+03  0.12499565817E+03 0.  0.
          2    1    1    2  501    0 -0.33898529115E+02  0.99848979533E+01 -0.26223862940E+03  0.26460897039E+03  0.00000000000E+00 0. -1.
          1    1    1    2  502    0 -0.52703268967E+02  0.15229592564E+02  0.10332205257E+04  0.10346759057E+04  0.00000000000E+00 0. -1.
         22    1    3    3    0    0  0.78135792963E+02  0.36664820416E+02  0.27251186706E+01  0.86353560841E+02  0.00000000000E+00 0. -1.
         22    1    3    3    0    0  0.84660051187E+01 -0.61879310934E+02  0.37883963083E+02  0.73047361507E+02  0.00000000000E+00 0. -1.
</event>
<event>
 7    1  0.5957303E-006  0.1394095E+03  0.7818608E-02  0.1385739E+00
          2   -1    0    0  502    0  0.00000000000E+00  0.00000000000E+00  0.62030776822E+03  0.62030776822E+03  0.00000000000E+00 0. -1.
          1   -1    0    0  501    0 -0.00000000000E+00 -0.00000000000E+00 -0.20246161775E+04  0.20246161775E+04  0.00000000000E+00 0. -1.
         25    2    1    2    0    0 -0.18557573892E+02 -0.11466681323E+03  0.45543280004E+01  0.17070169825E+03  0.12500186509E+03 0.  0.
          2    1    1    2  501    0  0.86607151977E+01 -0.27100906677E+02 -0.19319573804E+04  0.19321668631E+04  0.00000000000E+00 0. -1.
          1    1    1    2  502    0  0.98968586939E+01  0.14176771991E+03  0.52309464306E+03  0.54205538445E+03  0.00000000000E+00 0. -1.
         22    1    3    3    0    0 -0.50368636718E+02  0.19713798124E+00  0.10155511822E+02  0.51382612318E+02  0.00000000000E+00 0.  1.
         22    1    3    3    0    0  0.31811062827E+02 -0.11486395121E+03 -0.56011838212E+01  0.11931908593E+03  0.00000000000E+00 0.  1.
</event>
<event>
 7    1  0.5957303E-006  0.5841829E+02  0.7818608E-02  0.1480922E+00
          2   -1    0    0  502    0  0.00000000000E+00  0.00000000000E+00  0.52996743884E+03  0.52996743884E+03  0.00000000000E+00 0. -1.
          1   -1    0    0  501    0 -0.00000000000E+00 -0.00000000000E+00 -0.16770343101E+04  0.16770343101E+04  0.00000000000E+00 0. -1.
         25    2    1    2    0    0  0.64272451224E+02 -0.33215390955E+02  0.86128308927E+02  0.16816510326E+03  0.12500882438E+03 0.  0.
          2    1    1    2  501    0 -0.30096206093E+02 -0.13740474322E+02 -0.16337542828E+04  0.16340892384E+04  0.00000000000E+00 0. -1.
          1    1    1    2  502    0 -0.34176245131E+02  0.46955865277E+02  0.40055910265E+03  0.40474740732E+03  0.00000000000E+00 0. -1.
         22    1    3    3    0    0  0.95762131517E+02 -0.39327728645E+02  0.37898808789E+02  0.11024235021E+03  0.00000000000E+00 0.  1.
         22    1    3    3    0    0 -0.31489680293E+02  0.61123376898E+01  0.48229500138E+02  0.57922753047E+02  0.00000000000E+00 0.  1.
</event>
<event>
 7    1  0.5957303E-006  0.1736939E+03  0.7818608E-02  0.1205462E+00
          2   -1    0    0  502    0  0.00000000000E+00  0.00000000000E+00  0.90454677508E+03  0.90454677508E+03  0.00000000000E+00 0. -1.
          1   -1    0    0  501    0 -0.00000000000E+00 -0.00000000000E+00 -0.23690021286E+04  0.23690021286E+04  0.00000000000E+00 0. -1.
         25    2    1    2    0    0  0.19257879896E+03 -0.15493516362E+03  0.53083093899E+03  0.59874655690E+03  0.12499781946E+03 0.  0.
          2    1    1    2  501    0 -0.69896945735E+02  0.15872192823E+03 -0.23206166894E+04  0.23270883208E+04  0.00000000000E+00 0. -1.
          1    1    1    2  502    0 -0.12268185323E+03 -0.37867646052E+01  0.32533039692E+03  0.34771402598E+03  0.00000000000E+00 0. -1.
         22    1    3    3    0    0  0.12482559239E+03 -0.97832275458E+02  0.19462659459E+03  0.25106193251E+03  0.00000000000E+00 0.  1.
         22    1    3    3    0    0  0.67753206575E+02 -0.57102888164E+02  0.33620434440E+03  0.34768462439E+03  0.00000000000E+00 0.  1.
</event>
<event>
 7    1  0.5957303E-006  0.1025085E+03  0.7818608E-02  0.1443581E+00
          2   -1    0    0  502    0  0.00000000000E+00  0.00000000000E+00  0.81585634049E+02  0.81585634049E+02  0.00000000000E+00 0. -1.
          1   -1    0    0  501    0 -0.00000000000E+00 -0.00000000000E+00 -0.12945289582E+04  0.12945289582E+04  0.00000000000E+00 0. -1.
         25    2    1    2    0    0 -0.60552755412E+02  0.62541123762E+02 -0.27283765012E+03  0.31247903402E+03  0.12499894011E+03 0.  0.
          2    1    1    2  501    0  0.19192510923E+01  0.24634419066E+02 -0.95692020982E+03  0.95723916870E+03  0.00000000000E+00 0. -1.
          1    1    1    2  502    0  0.58633504320E+02 -0.87175542828E+02  0.16814535770E+02  0.10639638955E+03  0.00000000000E+00 0. -1.
         22    1    3    3    0    0  0.35564133513E+02  0.40130631875E+02 -0.97586032266E+02  0.11134769374E+03  0.00000000000E+00 0. -1.
         22    1    3    3    0    0 -0.96116888926E+02  0.22410491887E+02 -0.17525161786E+03  0.20113134029E+03  0.00000000000E+00 0. -1.
</event>
<event>
 7    1  0.5957303E-006  0.9829219E+02  0.7818608E-02  0.1436111E+00
          2   -1    0    0  502    0  0.00000000000E+00  0.00000000000E+00  0.23025344429E+04  0.23025344429E+04  0.00000000000E+00 0. -1.
          1   -1    0    0  501    0 -0.00000000000E+00 -0.00000000000E+00 -0.15347411455E+03  0.15347411455E+03  0.00000000000E+00 0. -1.
         25    2    1    2    0    0  0.12030429535E+03 -0.45944312259E+00  0.54232125750E+03  0.56939510758E+03  0.12500043053E+03 0.  0.
          2    1    1    2  501    0 -0.24724876797E+02  0.11453071599E+02 -0.13727216779E+03  0.13995049279E+03  0.00000000000E+00 0. -1.
          1    1    1    2  502    0 -0.95579418556E+02 -0.10993628476E+02  0.17440112387E+04  0.17466629571E+04  0.00000000000E+00 0. -1.
         22    1    3    3    0    0  0.97212220140E+02  0.16999055055E+02  0.17478990636E+03  0.20072542187E+03  0.00000000000E+00 0. -1.
         22    1    3    3    0    0  0.23092075213E+02 -0.17458498178E+02  0.36753135113E+03  0.36866968571E+03  0.00000000000E+00 0. -1.
</event>
<event>
 7    1  0.5957303E-006  0.1466028E+03  0.7818608E-02  0.1213487E+00
          2   -1    0    0  502    0  0.00000000000E+00  0.00000000000E+00  0.12201904857E+04  0.12201904857E+04  0.00000000000E+00 0. -1.
          1   -1    0    0  501    0 -0.00000000000E+00 -0.00000000000E+00 -0.10302665002E+04  0.10302665002E+04  0.00000000000E+00 0. -1.
         25    2    1    2    0    0 -0.14181789865E+02  0.27049623246E+02  0.61715378657E+02  0.14270821496E+03  0.12499616543E+03 0.  0.
          2    1    1    2  501    0 -0.50584859266E+02  0.12351350166E+03 -0.97921116948E+03  0.98826561587E+03  0.00000000000E+00 0. -1.
          1    1    1    2  502    0  0.64766649132E+02 -0.15056312490E+03  0.11074197764E+04  0.11194831551E+04  0.00000000000E+00 0. -1.
         22    1    3    3    0    0 -0.21981915805E+02  0.75571141031E+02  0.30046188761E+02  0.84243548348E+02  0.00000000000E+00 0.  1.
         22    1    3    3    0    0  0.78001259397E+01 -0.48521517785E+02  0.31669189896E+02  0.58464666607E+02  0.00000000000E+00 0.  1.
</event>
<event>
 7    1  0.5957303E-006  0.1649044E+03  0.7818608E-02  0.1311117E+00
          2   -1    0    0  502    0  0.00000000000E+00  0.00000000000E+00  0.21778589778E+03  0.21778589778E+03  0.00000000000E+00 0. -1.
          1   -1    0    0  501    0 -0.00000000000E+00 -0.00000000000E+00 -0.12637010696E+04  0.12637010696E+04  0.00000000000E+00 0. -1.
         25    2    1    2    0    0 -0.14080579533E+03 -0.90022980327E+02  0.31989660293E+02  0.21113815980E+03  0.12500230067E+03 0.  0.
          2    1    1    2  501    0  0.30460753795E+02 -0.33871906862E+02 -0.11017877767E+04  0.11027291002E+04  0.00000000000E+00 0. -1.
          1    1    1    2  502    0  0.11034504153E+03  0.12389488719E+03  0.23882944561E+02  0.16761970738E+03  0.00000000000E+00 0. -1.
         22    1    3    3    0    0 -0.10571145695E+03 -0.11046457961E+03 -0.93551798034E+01  0.15318242350E+03  0.00000000000E+00 0.  1.
         22    1    3    3    0    0 -0.35094338373E+02  0.20441599284E+02  0.41344840096E+02  0.57955736297E+02  0.00000000000E+00 0.  1.
</event>
<event>
 7    1  0.5957303E-006  0.1180228E+03  0.7818608E-02  0.1329561E+00
          2   -1    0    0  502    0  0.00000000000E+00  0.00000000000E+00  0.60237991957E+03  0.60237991957E+03  0.00000000000E+00 0. -1.
          1   -1    0    0  501    0 -0.00000000000E+00 -0.00000000000E+00 -0.55147832306E+03  0.55147832306E+03  0.00000000000E+00 0. -1.
         25    2    1    2    0    0  0.68361717769E+02 -0.15008734017E+03  0.47450070532E+02  0.21230549463E+03  0.12499031851E+03 0.  0.
          2    1    1    2  501    0 -0.30720272960E+02  0.11139104427E+03 -0.46034483618E+03  0.47462518698E+03  0.00000000000E+00 0. -1.
          1    1    1    2  502    0 -0.37641444809E+02  0.38696295905E+02  0.46379636216E+03  0.46692756102E+03  0.00000000000E+00 0. -1.
         22    1    3    3    0    0  0.54315132061E+02  0.18266039117E+01  0.13982209421E+02  0.56115703978E+02  0.00000000000E+00 0.  1.
         22    1    3    3    0    0  0.14046585708E+02 -0.15191394408E+03  0.33467861111E+02  0.15618979065E+03  0.00000000000E+00 0.  1.
</event>
<event>
 7    1  0.5957303E-006  0.5708462E+02  0.7818608E-02  0.1469840E+00
          2   -1    0    0  502    0  0.00000000000E+00  0.00000000000E+00  0.73268806577E+03  0.73268806577E+03  0.00000000000E+00 0. -1.
          1   -1    0    0  501    0 -0.00000000000E+00 -0.00000000000E+00 -0.12892438151E+03  0.12892438151E+03  0.00000000000E+00 0. -1.
         25    2    1    2    0    0 -0.60843425908E+02  0.69932927635E+02 -0.20490446780E+02  0.15696346313E+03  0.12500053402E+03 0.  0.
          2    1    1    2  501    0  0.20154592419E+02 -0.30589798075E+02 -0.30368873866E+02  0.47583735055E+02  0.00000000000E+00 0. -1.
          1    1    1    2  502    0  0.40688833489E+02 -0.39343129560E+02  0.65462300491E+03  0.65706524910E+03  0.00000000000E+00 0. -1.
         22    1    3    3    0    0 -0.71036285155E+02  0.98707226317E+02 -0.27201905430E+01  0.12164156268E+03  0.00000000000E+00 0. -1.
         22    1    3    3    0    0  0.10192859247E+02 -0.28774298682E+02 -0.17770256236E+02  0.35321900444E+02  0.00000000000E+00 0. -1.
</event>
<event>
 7    1  0.5957303E-006  0.3675402E+02  0.7818608E-02  0.1590263E+00
          2   -1    0    0  502    0  0.00000000000E+00  0.00000000000E+00  0.53044582507E+02  0.53044582507E+02  0.00000000000E+00 0. -1.
          1   -1    0    0  501    0 -0.00000000000E+00 -0.00000000000E+00 -0.59134373614E+03  0.59134373614E+03  0.00000000000E+00 0. -1.
         25    2    1    2    0    0 -0.39079278275E+02  0.12047274779E+02 -0.23782472209E+03  0.27176173425E+03  0.12498605902E+03 0.  0.
          2    1    1    2  501    0  0.34556022417E+02  0.13227909485E+02 -0.33081583981E+03  0.33287868082E+03  0.00000000000E+00 0. -1.
          1    1    1    2  502    0  0.45232558578E+01 -0.25275184265E+02  0.30341408264E+02  0.39747903575E+02  0.00000000000E+00 0. -1.
         22    1    3    3    0    0  0.44488198724E+02  0.27223629476E+01 -0.11078424056E+03  0.11941423300E+03  0.00000000000E+00 0. -1.
         22    1    3    3    0    0 -0.83567476999E+02  0.93249118318E+01 -0.12704048152E+03  0.15234750125E+03  0.00000000000E+00 0. -1.
</event>
<event>
 7    1  0.5957303E-006  0.4603465E+02  0.7818608E-02  0.1525514E+00
          2   -1    0    0  502    0  0.00000000000E+00  0.00000000000E+00  0.44033995298E+03  0.44033995298E+03  0.00000000000E+00 0. -1.
          1   -1    0    0  501    0 -0.00000000000E+00 -0.00000000000E+00 -0.31852484258E+03  0.31852484258E+03  0.00000000000E+00 0. -1.
         25    2    1    2    0    0 -0.54940637634E+01  0.70704577064E+02 -0.14337254067E+03  0.20300282795E+03  0.12500056313E+03 0.  0.
          2    1    1    2  501    0  0.16510908310E+02 -0.26170805562E+02 -0.14238849719E+03  0.14571206295E+03  0.00000000000E+00 0. -1.
          1    1    1    2  502    0 -0.11016844547E+02 -0.44533771503E+02  0.40757614826E+03  0.41014990467E+03  0.00000000000E+00 0. -1.
         22    1    3    3    0    0 -0.17589163894E+02  0.46496988251E+02 -0.16245450206E+03  0.16989059375E+03  0.00000000000E+00 0.  1.
         22    1    3    3    0    0  0.12095100130E+02  0.24207588813E+02  0.19081961391E+02  0.33112234202E+02  0.00000000000E+00 0.  1.
</event>
<event>
 7    1  0.5957303E-006  0.7933507E+02  0.7818608E-02  0.1342385E+00
          2   -1    0    0  502    0  0.00000000000E+00  0.00000000000E+00  0.23767812024E+04  0.23767812024E+04  0.00000000000E+00 0. -1.
          1   -1    0    0  501    0 -0.00000000000E+00 -0.00000000000E+00 -0.21359917231E+02  0.21359917231E+02  0.00000000000E+00 0. -1.
         25    2    1    2    0    0  0.14250515374E+01  0.85546320369E+02  0.17884609873E+04  0.17948643020E+04  0.12499982387E+03 0.  0.
          2    1    1    2  501    0 -0.67031232234E+02 -0.25775611651E+02  0.76800459538E+02  0.10514693926E+03  0.00000000000E+00 0. -1.
          1    1    1    2  502    0  0.65606180696E+02 -0.59770708717E+02  0.49015983834E+03  0.49812987834E+03  0.00000000000E+00 0. -1.
         22    1    3    3    0    0 -0.51359360354E+01 -0.26273603844E+02  0.13591102927E+03  0.13852251793E+03  0.00000000000E+00 0. -1.
         22    1    3    3    0    0  0.65609875729E+01  0.11181992421E+03  0.16525499580E+04  0.16563417841E+04  0.00000000000E+00 0. -1.
</event>
<event>
 7    1  0.5957303E-006  0.8109478E+02  0.7818608E-02  0.1359985E+00
          2   -1    0    0  502    0  0.00000000000E+00  0.00000000000E+00  0.47042662590E+03  0.47042662590E+03  0.00000000000E+00 0. -1.
          1   -1    0    0  501    0 -0.00000000000E+00 -0.00000000000E+00 -0.24170385509E+03  0.24170385509E+03  0.00000000000E+00 0. -1.
         25    2    1    2    0    0  0.24661880989E+02  0.11749266135E+03  0.53411469994E+02  0.18136860349E+03  0.12501620439E+03 0.  0.
          2    1    1    2  501    0 -0.48860119824E+02 -0.62066777282E+02 -0.16615789728E+03  0.18397837640E+03  0.00000000000E+00 0. -1.
          1    1    1    2  502    0  0.24198238835E+02 -0.55425884068E+02  0.34146919811E+03  0.34678350111E+03  0.00000000000E+00 0. -1.
         22    1    3    3    0    0 -0.10944335093E+02  0.80307138612E+01 -0.34145677106E+02  0.36745041853E+02  0.00000000000E+00 0.  1.
         22    1    3    3    0    0  0.35606216083E+02  0.10946194749E+03  0.87557147100E+02  0.14462356163E+03  0.00000000000E+00 0.  1.
</event>
<event>
 7    1  0.5957303E-006  0.5134906E+02  0.7818608E-02  0.1460681E+00
          2   -1    0    0  502    0  0.00000000000E+00  0.00000000000E+00  0.25467300045E+04  0.25467300045E+04  0.00000000000E+00 0. -1.
          1   -1    0    0  501    0 -0.00000000000E+00 -0.00000000000E+00 -0.75152815247E+02  0.75152815247E+02  0.00000000000E+00 0. -1.
         25    2    1    2    0    0  0.18161508343E+02 -0.13034039053E+02  0.62690524802E+02  0.14161528580E+03  0.12500024285E+03 0.  0.
          2    1    1    2  501    0 -0.18162535260E+02  0.56538852559E+02 -0.10656670100E+02  0.60333109926E+02  0.00000000000E+00 0. -1.
          1    1    1    2  502    0  0.10269171521E-02 -0.43504813506E+02  0.24195433345E+04  0.24199344240E+04  0.00000000000E+00 0. -1.
         22    1    3    3    0    0 -0.12401117774E+01 -0.67887758047E+02  0.25333240427E+02  0.72471088307E+02  0.00000000000E+00 0.  1.
         22    1    3    3    0    0  0.19401620121E+02  0.54853718994E+02  0.37357284375E+02  0.69144197491E+02  0.00000000000E+00 0.  1.
</event>
<event>
 7    1  0.5957303E-006  0.5192706E+02  0.7818608E-02  0.1510040E+00
          2   -1    0    0  502    0  0.00000000000E+00  0.00000000000E+00  0.19575479766E+04  0.19575479766E+04  0.00000000000E+00 0. -1.
          1   -1    0    0  501    0 -0.00000000000E+00 -0.00000000000E+00 -0.56262045680E+02  0.56262045680E+02  0.00000000000E+00 0. -1.
         25    2    1    2    0    0  0.52712717623E+01 -0.65617682979E+02  0.78421128859E+03  0.79683580457E+03  0.12500595055E+03 0.  0.
          2    1    1    2  501    0 -0.26941655787E+02  0.44251243777E+02 -0.36261255984E+02  0.63236888585E+02  0.00000000000E+00 0. -1.
          1    1    1    2  502    0  0.21670384025E+02  0.21366439202E+02  0.11533358984E+04  0.11537373292E+04  0.00000000000E+00 0. -1.
         22    1    3    3    0    0 -0.12830276720E+02  0.10182416009E+02  0.54508248383E+03  0.54532853563E+03  0.00000000000E+00 0. -1.
         22    1    3    3    0    0  0.18101548482E+02 -0.75800098988E+02  0.23912880475E+03  0.25150726893E+03  0.00000000000E+00 0. -1.
</event>
<event>
 7    1  0.5957303E-006  0.5434430E+02  0.7818608E-02  0.1432627E+00
          2   -1    0    0  502    0  0.00000000000E+00  0.00000000000E+00  0.13700915360E+04  0.13700915360E+04  0.00000000000E+00 0. -1.
          1   -1    0    0  501    0 -0.00000000000E+00 -0.00000000000E+00 -0.13124161495E+03  0.13124161495E+03  0.00000000000E+00 0. -1.
         25    2    1    2    0    0  0.43247555987E+02 -0.73617927725E+02  0.13890378748E+03  0.20545650784E+03  0.12501265559E+03 0.  0.
          2    1    1    2  501    0  0.31774609642E+01  0.53503638885E+02 -0.90056257378E+02  0.10479916567E+03  0.00000000000E+00 0. -1.
          1    1    1    2  502    0 -0.46425016951E+02  0.20114288840E+02  0.11900023910E+04  0.11910774775E+04  0.00000000000E+00 0. -1.
         22    1    3    3    0    0  0.17057535940E+02  0.35295801051E+02  0.31847400210E+02  0.50507524234E+02  0.00000000000E+00 0.  1.
         22    1    3    3    0    0  0.26190020047E+02 -0.10891372878E+03  0.10705638727E+03  0.15494898361E+03  0.00000000000E+00 0.  1.
</event>
<event>
 7    1  0.5957303E-006  0.2167789E+03  0.7818608E-02  0.1228144E+00
          2   -1    0    0  502    0  0.00000000000E+00  0.00000000000E+00  0.19320543814E+04  0.19320543814E+04  0.00000000000E+00 0. -1.
          1   -1    0    0  501    0 -0.00000000000E+00 -0.00000000000E+00 -0.11073110655E+04  0.11073110655E+04  0.00000000000E+00 0. -1.
         25    2    1    2    0    0  0.18062515908E+03  0.22904757465E+03  0.36877310983E+03  0.48652542323E+03  0.12500056546E+03 0.  0.
          2    1    1    2  501    0 -0.13921470398E+03 -0.16365010997E+03 -0.10364139555E+04  0.10584498002E+04  0.00000000000E+00 0. -1.
          1    1    1    2  502    0 -0.41410455098E+02 -0.65397464685E+02  0.14923841617E+04  0.14943902235E+04  0.00000000000E+00 0. -1.
         22    1    3    3    0    0  0.19085850218E+03  0.18186455613E+03  0.34031128884E+03  0.43048049659E+03  0.00000000000E+00 0.  1.
         22    1    3    3    0    0 -0.10233343097E+02  0.47183018521E+02  0.28461820986E+02  0.56044926635E+02  0.00000000000E+00 0.  1.
</event>
<event>
 7    1  0.5957303E-006  0.1964907E+03  0.7818608E-02  0.1189913E+00
          2   -1    0    0  502    0  0.00000000000E+00  0.00000000000E+00  0.89433764219E+03  0.89433764219E+03  0.00000000000E+00 0. -1.
          1   -1    0    0  501    0 -0.00000000000E+00 -0.00000000000E+00 -0.42873231497E+03  0.42873231497E+03  0.00000000000E+00 0. -1.
         25    2    1    2    0    0 -0.28072938870E+03 -0.16231747497E+02  0.19259132999E+03  0.36302641498E+03  0.12499719307E+03 0.  0.
          2    1    1    2  501    0  0.10500011892E+03  0.74154980947E+02 -0.31680084997E+03  0.34188706426E+03  0.00000000000E+00 0. -1.
          1    1    1    2  502    0  0.17572926979E+03 -0.57923233451E+02  0.58981484719E+03  0.61815647792E+03  0.00000000000E+00 0. -1.
         22    1    3    3    0    0 -0.27317351293E+03  0.16158889785E+02  0.17957260873E+03  0.32730902781E+03  0.00000000000E+00 0. -1.
         22    1    3    3    0    0 -0.75558757754E+01 -0.32390637282E+02  0.13018721264E+02  0.35717387161E+02  0.00000000000E+00 0. -1.
</event>
<event>
 7    1  0.5957303E-006  0.1009938E+03  0.7818608E-02  0.1442821E+00
          2   -1    0    0  502    0  0.00000000000E+00  0.00000000000E+00  0.42283874085E+03  0.42283874085E+03  0.00000000000E+00 0. -1.
          1   -1    0    0  501    0 -0.00000000000E+00 -0.00000000000E+00 -0.36617953744E+03  0.36617953744E+03  0.00000000000E+00 0. -1.
         25    2    1    2    0    0 -0.93030282355E+02  0.42912981520E+02 -0.47725184219E+02  0.16851802243E+03  0.12499789301E+03 0.  0.
          2    1    1    2  501    0  0.14444132236E+02  0.20676396717E+02 -0.25036299095E+03  0.25163023183E+03  0.00000000000E+00 0. -1.
          1    1    1    2  502    0  0.78586150119E+02 -0.63589378237E+02  0.35474737858E+03  0.36887002403E+03  0.00000000000E+00 0. -1.
         22    1    3    3    0    0 -0.50176983182E+02  0.33788012091E+02 -0.89469980545E+02  0.10800109639E+03  0.00000000000E+00 0.  1.
         22    1    3    3    0    0 -0.42853299173E+02  0.91249694294E+01  0.41744796326E+02  0.60516926040E+02  0.00000000000E+00 0.  1.
</event>
<event>
 7    1  0.5957303E-006  0.1176648E+03  0.7818608E-02  0.1407555E+00
          2   -1    0    0  502    0  0.00000000000E+00  0.00000000000E+00  0.17774737666E+03  0.17774737666E+03  0.00000000000E+00 0. -1.
          1   -1    0    0  501    0 -0.00000000000E+00 -0.00000000000E+00 -0.82714229450E+03  0.82714229450E+03  0.00000000000E+00 0. -1.
         25    2    1    2    0    0 -0.87818300286E+02  0.36208403018E+02 -0.25957361288E+03  0.30335895992E+03  0.12500038297E+03 0.  0.
          2    1    1    2  501    0 -0.27778367488E+02 -0.55980916678E+01 -0.52229792114E+03  0.52306605201E+03  0.00000000000E+00 0. -1.
          1    1    1    2  502    0  0.11559666777E+03 -0.30610311350E+02  0.13247661618E+03  0.17846465924E+03  0.00000000000E+00 0. -1.
         22    1    3    3    0    0  0.38066935081E+01  0.42751857450E+02 -0.16896897495E+03  0.17433509895E+03  0.00000000000E+00 0.  1.
         22    1    3    3    0    0 -0.91624993794E+02 -0.65434544315E+01 -0.90604637935E+02  0.12902386097E+03  0.00000000000E+00 0.  1.
</event>
<event>
 7    1  0.5957303E-006  0.7144440E+02  0.7818608E-02  0.1367151E+00
          2   -1    0    0  502    0  0.00000000000E+00  0.00000000000E+00  0.20255738313E+04  0.20255738313E+04  0.00000000000E+00 0. -1.
          1   -1    0    0  501    0 -0.00000000000E+00 -0.00000000000E+00 -0.91769001559E+03  0.91769001559E+03  0.00000000000E+00 0. -1.
         25    2    1    2    0    0  0.44535535324E+02  0.21374131524E+02  0.29296456108E+03  0.32232515330E+03  0.12500001199E+03 0.  0.
          2    1    1    2  501    0 -0.38071736177E+02  0.52258887569E+02 -0.90105571150E+03  0.90337248334E+03  0.00000000000E+00 0. -1.
          1    1    1    2  502    0 -0.64637991468E+01 -0.73633019093E+02  0.17159749661E+04  0.17175662103E+04  0.00000000000E+00 0. -1.
         22    1    3    3    0    0  0.48785407574E+01 -0.32676074258E+01 -0.12237098216E+02  0.13572913871E+02  0.00000000000E+00 0. -1.
         22    1    3    3    0    0  0.39656994566E+02  0.24641738950E+02  0.30520165929E+03  0.30875223943E+03  0.00000000000E+00 0. -1.
</event>
<event>
 7    1  0.5957303E-006  0.7561416E+02  0.7818608E-02  0.1364872E+00
          2   -1    0    0  502    0  0.00000000000E+00  0.00000000000E+00  0.24657589096E+04  0.24657589096E+04  0.00000000000E+00 0. -1.
          1   -1    0    0  501    0 -0.00000000000E+00 -0.00000000000E+00 -0.62112661594E+03  0.62112661594E+03  0.00000000000E+00 0. -1.
         25    2    1    2    0    0  0.54183148561E+02 -0.12257034833E+03  0.69381858695E+03  0.71761255257E+03  0.12499696046E+03 0.  0.
          2    1    1    2  501    0 -0.15437536941E+02  0.73833868152E+02 -0.60634134868E+03  0.61101521156E+03  0.00000000000E+00 0. -1.
          1    1    1    2  502    0 -0.38745611621E+02  0.48736480176E+02  0.17571550554E+04  0.17582577614E+04  0.00000000000E+00 0. -1.
         22    1    3    3    0    0 -0.18363460584E+02 -0.58332878868E+02  0.11044306367E+03  0.12624425435E+03  0.00000000000E+00 0. -1.
         22    1    3    3    0    0  0.72546609145E+02 -0.64237469460E+02  0.58337552328E+03  0.59136829822E+03  0.00000000000E+00 0. -1.
</event>
<event>
 7    1  0.5957303E-006  0.8790388E+02  0.7818608E-02  0.1358542E+00
          2   -1    0    0  502    0  0.00000000000E+00  0.00000000000E+00  0.32286571325E+04  0.32286571325E+04  0.00000000000E+00 0. -1.
          1   -1    0    0  501    0 -0.00000000000E+00 -0.00000000000E+00 -0.27372134148E+02  0.27372134148E+02  0.00000000000E+00 0. -1.
         25    2    1    2    0    0  0.70087932035E+02 -0.45592107788E+01  0.10735562594E+04  0.10830884616E+04  0.12499787545E+03 0.  0.
          2    1    1    2  501    0  0.93433470661E+01  0.55696288760E+02  0.15448845246E+02  0.58549479378E+02  0.00000000000E+00 0. -1.
          1    1    1    2  502    0 -0.79431279101E+02 -0.51137077981E+02  0.21122798938E+04  0.21143913258E+04  0.00000000000E+00 0. -1.
         22    1    3    3    0    0  0.49498386414E+01  0.37532344366E+02  0.10838383845E+03  0.11480520116E+03  0.00000000000E+00 0.  1.
         22    1    3    3    0    0  0.65138093393E+02 -0.42091555145E+02  0.96517242094E+03  0.96828326040E+03  0.00000000000E+00 0.  1.
</event>
<event>
 7    1  0.5957303E-006  0.5828019E+02  0.7818608E-02  0.1478457E+00
          2   -1    0    0  502    0  0.00000000000E+00  0.00000000000E+00  0.78411060367E+03  0.78411060367E+03  0.00000000000E+00 0. -1.
          1   -1    0    0  501    0 -0.00000000000E+00 -0.00000000000E+00 -0.90403586402E+03  0.90403586402E+03  0.00000000000E+00 0. -1.
         25    2    1    2    0    0 -0.25967875393E+02  0.86472879793E+02  0.16499516186E+03  0.22582752318E+03  0.12499110887E+03 0.  0.
          2    1    1    2  501    0  0.24383417368E+02 -0.52764553560E+02 -0.87216790514E+03  0.87410268499E+03  0.00000000000E+00 0. -1.
          1    1    1    2  502    0  0.15844580246E+01 -0.33708326233E+02  0.58724748292E+03  0.58821625952E+03  0.00000000000E+00 0. -1.
         22    1    3    3    0    0  0.48424845852E+02  0.52919840835E+02  0.65433007596E+02  0.97092500909E+02  0.00000000000E+00 0.  1.
         22    1    3    3    0    0 -0.74392721244E+02  0.33553038958E+02  0.99562154267E+02  0.12873502227E+03  0.00000000000E+00 0.  1.
</event>
<event>
 7    1  0.5957303E-006  0.1293771E+03  0.7818608E-02  0.1382701E+00
          2   -1    0    0  502    0  0.00000000000E+00  0.00000000000E+00  0.69412567587E+03  0.69412567587E+03  0.00000000000E+00 0. -1.
          1   -1    0    0  501    0 -0.00000000000E+00 -0.00000000000E+00 -0.11942679874E+04  0.11942679874E+04  0.00000000000E+00 0. -1.
         25    2    1    2    0    0 -0.37046111449E+01  0.12075715818E+03  0.28662725564E+03  0.33522575860E+03  0.12500044063E+03 0.  0.
          2    1    1    2  501    0  0.34873710975E+02 -0.12473264179E+03 -0.11657321586E+04  0.11729048866E+04  0.00000000000E+00 0. -1.
          1    1    1    2  502    0 -0.31169099830E+02  0.39754836047E+01  0.37896259135E+03  0.38026301805E+03  0.00000000000E+00 0. -1.
         22    1    3    3    0    0 -0.61364823955E+02  0.35719842385E+02  0.11169379633E+03  0.13235200375E+03  0.00000000000E+00 0.  1.
         22    1    3    3    0    0  0.57660212811E+02  0.85037315800E+02  0.17493345931E+03  0.20287375485E+03  0.00000000000E+00 0.  1.
</event>
<event>
 7    1  0.5957303E-006  0.1094839E+03  0.7818608E-02  0.1295807E+00
          2   -1    0    0  502    0  0.00000000000E+00  0.00000000000E+00  0.49003225714E+03  0.49003225714E+03  0.00000000000E+00 0. -1.
          1   -1    0    0  501    0 -0.00000000000E+00 -0.00000000000E+00 -0.98057906084E+03  0.98057906084E+03  0.00000000000E+00 0. -1.
         25    2    1    2    0    0  0.50366490867E+02 -0.17640946436E+03  0.91353644108E+02  0.24005652186E+03  0.12499825150E+03 0.  0.
          2    1    1    2  501    0 -0.11972218086E+02  0.10742070610E+03 -0.89813392908E+03  0.90461433587E+03  0.00000000000E+00 0. -1.
          1    1    1    2  502    0 -0.38394272781E+02  0.68988758260E+02  0.31623348127E+03  0.32594046024E+03  0.00000000000E+00 0. -1.
         22    1    3    3    0    0 -0.36466581523E+02 -0.96470280862E+02  0.32242715846E+02  0.10805516824E+03  0.00000000000E+00 0. -1.
         22    1    3    3    0    0  0.86833072390E+02 -0.79939183497E+02  0.59110928261E+02  0.13200135362E+03  0.00000000000E+00 0. -1.
</event>
<event>
 7    1  0.5957303E-006  0.9660914E+02  0.7818608E-02  0.1333824E+00
          2   -1    0    0  502    0  0.00000000000E+00  0.00000000000E+00  0.74276589043E+03  0.74276589043E+03  0.00000000000E+00 0. -1.
          1   -1    0    0  501    0 -0.00000000000E+00 -0.00000000000E+00 -0.65865798627E+03  0.65865798627E+03  0.00000000000E+00 0. -1.
         25    2    1    2    0    0  0.30210093783E+02  0.11208259624E+03  0.65337108345E+02  0.18266841833E+03  0.12499462062E+03 0.  0.
          2    1    1    2  501    0  0.29992696023E+02 -0.91796363326E+02 -0.59445476647E+03  0.60224795850E+03  0.00000000000E+00 0. -1.
          1    1    1    2  502    0 -0.60202789806E+02 -0.20286232916E+02  0.61322556228E+03  0.61650749986E+03  0.00000000000E+00 0. -1.
         22    1    3    3    0    0 -0.87330132219E+01  0.14359407377E+02  0.75157920816E+02  0.77014097161E+02  0.00000000000E+00 0.  1.
         22    1    3    3    0    0  0.38943107005E+02  0.97723188864E+02 -0.98208124704E+01  0.10565432117E+03  0.00000000000E+00 0.  1.
</event>
<event>
 7    1  0.5957303E-006  0.5542640E+02  0.7818608E-02  0.1420429E+00
          2   -1    0    0  502    0  0.00000000000E+00  0.00000000000E+00  0.40281068864E+03  0.40281068864E+03  0.00000000000E+00 0. -1.
          1   -1    0    0  501    0 -0.00000000000E+00 -0.00000000000E+00 -0.58453435418E+03  0.58453435418E+03  0.00000000000E+00 0. -1.
         25    2    1    2    0    0  0.43217654763E+02 -0.97104014937E+02  0.30051301116E+02  0.16681135309E+03  0.12500396562E+03 0.  0.
          2    1    1    2  501    0 -0.10317664441E+02  0.53731935535E+02 -0.51225168713E+03  0.51516537739E+03  0.00000000000E+00 0. -1.
          1    1    1    2  502    0 -0.32899990322E+02  0.43372079403E+02  0.30047672047E+03  0.30536831234E+03  0.00000000000E+00 0. -1.
         22    1    3    3    0    0  0.75835033635E+01  0.26349689570E+02  0.26703820235E+02  0.38274138513E+02  0.00000000000E+00 0. -1.
         22    1    3    3    0    0  0.35634151399E+02 -0.12345370451E+03  0.33474808807E+01  0.12853721458E+03  0.00000000000E+00 0. -1.
</event>
<event>
 7    1  0.5957303E-006  0.1023142E+03  0.7818608E-02  0.1395348E+00
          2   -1    0    0  502    0  0.00000000000E+00  0.00000000000E+00  0.60387165248E+03  0.60387165248E+03  0.00000000000E+00 0. -1.
          1   -1    0    0  501    0 -0.00000000000E+00 -0.00000000000E+00 -0.47523016606E+03  0.47523016606E+03  0.00000000000E+00 0. -1.
         25    2    1    2    0    0 -0.94193264989E+02  0.12471803249E+02 -0.23096207222E+02  0.15870043617E+03  0.12499790641E+03 0.  0.
          2    1    1    2  501    0 -0.62581586502E+01 -0.35338321673E+02 -0.37852563297E+03  0.38022311390E+03  0.00000000000E+00 0. -1.
          1    1    1    2  502    0  0.10045142364E+03  0.22866518424E+02  0.53026332661E+03  0.54017826847E+03  0.00000000000E+00 0. -1.
         22    1    3    3    0    0  0.30464315395E+02  0.38176545508E+01  0.36306516777E+01  0.30916510643E+02  0.00000000000E+00 0. -1.
         22    1    3    3    0    0 -0.12465758038E+03  0.86541486977E+01 -0.26726858900E+02  0.12778392553E+03  0.00000000000E+00 0. -1.
</event>
<event>
 7    1  0.5957303E-006  0.6529167E+02  0.7818608E-02  0.1483371E+00
          2   -1    0    0  502    0  0.00000000000E+00  0.00000000000E+00  0.96470409623E+03  0.96470409623E+03  0.00000000000E+00 0. -1.
          1   -1    0    0  501    0 -0.00000000000E+00 -0.00000000000E+00 -0.55798078652E+03  0.55798078652E+03  0.00000000000E+00 0. -1.
         25    2    1    2    0    0  0.20122648791E+02 -0.49073181752E+02 -0.28331351667E+02  0.13871479832E+03  0.12500412643E+03 0.  0.
          2    1    1    2  501    0 -0.24069408019E+02 -0.16346507560E+02 -0.47282929473E+03  0.47372363955E+03  0.00000000000E+00 0. -1.
          1    1    1    2  502    0  0.39467592280E+01  0.65419689312E+02  0.90788395611E+03  0.91024644488E+03  0.00000000000E+00 0. -1.
         22    1    3    3    0    0 -0.24544066053E+02  0.28157109866E+02  0.14095319646E+02  0.39923828102E+02  0.00000000000E+00 0.  1.
         22    1    3    3    0    0  0.44666714844E+02 -0.77230291618E+02 -0.42426671313E+02  0.98790970220E+02  0.00000000000E+00 0.  1.
</event>
<event>
 7    1  0.5957303E-006  0.8433930E+02  0.7818608E-02  0.1323649E+00
          2   -1    0    0  502    0  0.00000000000E+00  0.00000000000E+00  0.43175198568E+03  0.43175198568E+03  0.00000000000E+00 0. -1.
          1   -1    0    0  501    0 -0.00000000000E+00 -0.00000000000E+00 -0.50761982886E+03  0.50761982886E+03  0.00000000000E+00 0. -1.
         25    2    1    2    0    0  0.11678853103E+03  0.12818568246E+02 -0.87049149701E+02  0.19237054413E+03  0.12499998046E+03 0.  0.
          2    1    1    2  501    0 -0.48963707461E+02 -0.62757104898E+02 -0.35881575866E+03  0.36753863406E+03  0.00000000000E+00 0. -1.
          1    1    1    2  502    0 -0.67824823569E+02  0.49938536652E+02  0.36999706518E+03  0.37946263634E+03  0.00000000000E+00 0. -1.
         22    1    3    3    0    0  0.10847742125E+03 -0.21622435215E+02 -0.10512348830E+03  0.15259694760E+03  0.00000000000E+00 0.  1.
         22    1    3    3    0    0  0.83111097790E+01  0.34441003461E+02  0.18074338598E+02  0.39773596530E+02  0.00000000000E+00 0.  1.
</event>
<event>
 7    1  0.5957303E-006  0.1021626E+03  0.7818608E-02  0.1449019E+00
          2   -1    0    0  502    0  0.00000000000E+00  0.00000000000E+00  0.23706013803E+04  0.23706013803E+04  0.00000000000E+00 0. -1.
          1   -1    0    0  501    0 -0.00000000000E+00 -0.00000000000E+00 -0.22264581208E+03  0.22264581208E+03  0.00000000000E+00 0. -1.
         25    2    1    2    0    0 -0.12430356389E+03  0.19479966180E+02  0.18613229738E+04  0.18697535193E+04  0.12499666083E+03 0.  0.
          2    1    1    2  501    0  0.10071440298E+03 -0.16214898023E+02 -0.20621701749E+03  0.23006905960E+03  0.00000000000E+00 0. -1.
          1    1    1    2  502    0  0.23589160915E+02 -0.32650681569E+01  0.49284961197E+03  0.49342461349E+03  0.00000000000E+00 0. -1.
         22    1    3    3    0    0  0.21148295666E+02  0.65491380895E+01  0.52682976048E+03  0.52729473556E+03  0.00000000000E+00 0.  1.
         22    1    3    3    0    0 -0.14545185956E+03  0.12930828091E+02  0.13344932133E+04  0.13424587838E+04  0.00000000000E+00 0.  1.
</event>
<event>
 7    1  0.5957303E-006  0.8371546E+02  0.7818608E-02  0.1383512E+00
          2   -1    0    0  502    0  0.00000000000E+00  0.00000000000E+00  0.72129077853E+03  0.72129077853E+03  0.00000000000E+00 0. -1.
          1   -1    0    0  501    0 -0.00000000000E+00 -0.00000000000E+00 -0.75968384322E+02  0.75968384322E+02  0.00000000000E+00 0. -1.
         25    2    1    2    0    0 -0.23569548303E+02 -0.34400811541E+02  0.38031404164E+03  0.40249714227E+03  0.12500495922E+03 0.  0.
          2    1    1    2  501    0  0.66768634162E+02  0.55873202575E+02 -0.32826626017E+02  0.93045433254E+02  0.00000000000E+00 0. -1.
          1    1    1    2  502    0 -0.43199085858E+02 -0.21472391034E+02  0.29783497859E+03  0.30171658732E+03  0.00000000000E+00 0. -1.
         22    1    3    3    0    0  0.44771819532E+02 -0.12449161162E+02  0.70223689655E+02  0.84207268253E+02  0.00000000000E+00 0.  1.
         22    1    3    3    0    0 -0.68341367835E+02 -0.21951650379E+02  0.31009035198E+03  0.31828987402E+03  0.00000000000E+00 0.  1.
</event>
<event>
 7    1  0.5957303E-006  0.3151088E+03  0.7818608E-02  0.1140357E+00
          2   -1    0    0  502    0  0.00000000000E+00  0.00000000000E+00  0.13461184399E+04  0.13461184399E+04  0.00000000000E+00 0. -1.
          1   -1    0    0  501    0 -0.00000000000E+00 -0.00000000000E+00 -0.10517311835E+04  0.10517311835E+04  0.00000000000E+00 0. -1.
         25    2    1    2    0    0  0.72732841359E+02  0.17973259709E+03 -0.85833026394E+02  0.24614043788E+03  0.12499573621E+03 0.  0.
          2    1    1    2  501    0  0.67079095703E+01  0.14184513307E+03 -0.85814129181E+03  0.86981119476E+03  0.00000000000E+00 0. -1.
          1    1    1    2  502    0 -0.79440750929E+02 -0.32157773016E+03  0.12383615745E+04  0.12818979908E+04  0.00000000000E+00 0. -1.
         22    1    3    3    0    0 -0.28519559771E+01  0.43575703071E+02 -0.78993617838E+02  0.90260551794E+02  0.00000000000E+00 0.  1.
         22    1    3    3    0    0  0.75584797336E+02  0.13615689402E+03 -0.68394085560E+01  0.15587988609E+03  0.00000000000E+00 0.  1.
</event>
<event>
 7    1  0.5957303E-006  0.5275093E+02  0.7818608E-02  0.1551961E+00
          2   -1    0    0  502    0  0.00000000000E+00  0.00000000000E+00  0.18105253163E+03  0.18105253163E+03  0.00000000000E+00 0. -1.
          1   -1    0    0  501    0 -0.00000000000E+00 -0.00000000000E+00 -0.13316990896E+04  0.13316990896E+04  0.00000000000E+00 0. -1.
         25    2    1    2    0    0 -0.30256762932E+02 -0.10751463605E+00 -0.87309502248E+01  0.12890731899E+03  0.12500153653E+03 0.  0.
          2    1    1    2  501    0  0.52945201593E+02 -0.12108969302E+01 -0.12612518751E+04  0.12623632413E+04  0.00000000000E+00 0. -1.
          1    1    1    2  502    0 -0.22688438661E+02  0.13184115662E+01  0.11933626734E+03  0.12148106091E+03  0.00000000000E+00 0. -1.
         22    1    3    3    0    0 -0.25616892499E+02  0.36783335665E+02 -0.54094717598E+02  0.70252953219E+02  0.00000000000E+00 0. -1.
         22    1    3    3    0    0 -0.46398704327E+01 -0.36890850301E+02  0.45363767373E+02  0.58654365770E+02  0.00000000000E+00 0. -1.
</event>
<event>
 7    1  0.5957303E-006  0.7569406E+02  0.7818608E-02  0.1358623E+00
          2   -1    0    0  502    0  0.00000000000E+00  0.00000000000E+00  0.33958313057E+03  0.33958313057E+03  0.00000000000E+00 0. -1.
          1   -1    0    0  501    0 -0.00000000000E+00 -0.00000000000E+00 -0.23329430047E+04  0.23329430047E+04  0.00000000000E+00 0. -1.
         25    2    1    2    0    0 -0.95203322132E+02 -0.80049931420E+02 -0.25554680661E+03  0.31049106220E+03  0.12501546012E+03 0.  0.
          2    1    1    2  501    0  0.72428029610E+02  0.18594491772E+02 -0.20457927792E+04  0.20471589264E+04  0.00000000000E+00 0. -1.
          1    1    1    2  502    0  0.22775292522E+02  0.61455439648E+02  0.30797971161E+03  0.31487614672E+03  0.00000000000E+00 0. -1.
         22    1    3    3    0    0 -0.11497787308E+03 -0.30107903081E+02 -0.20368349586E+03  0.23582485792E+03  0.00000000000E+00 0.  1.
         22    1    3    3    0    0  0.19774550946E+02 -0.49942028338E+02 -0.51863310755E+02  0.74666204284E+02  0.00000000000E+00 0.  1.
</event>
<event>
 7    1  0.5957303E-006  0.1053828E+03  0.7818608E-02  0.1284674E+00
          2   -1    0    0  502    0  0.00000000000E+00  0.00000000000E+00  0.19718681944E+04  0.19718681944E+04  0.00000000000E+00 0. -1.
          1   -1    0    0  501    0 -0.00000000000E+00 -0.00000000000E+00 -0.53675912936E+03  0.53675912936E+03  0.00000000000E+00 0. -1.
         25    2    1    2    0    0  0.15219283978E+03  0.97017513879E+02  0.11463282510E+04  0.11671618039E+04  0.12499263637E+03 0.  0.
          2    1    1    2  501    0 -0.61970333910E+02 -0.84882013214E+02 -0.51851218616E+03  0.52905591921E+03  0.00000000000E+00 0. -1.
          1    1    1    2  502    0 -0.90222505874E+02 -0.12135500666E+02  0.80729300020E+03  0.81240960058E+03  0.00000000000E+00 0. -1.
         22    1    3    3    0    0  0.65055125387E+02 -0.16260401092E+02  0.54366477568E+03  0.54778459114E+03  0.00000000000E+00 0. -1.
         22    1    3    3    0    0  0.87137714398E+02  0.11327791497E+03  0.60266347528E+03  0.61937721279E+03  0.00000000000E+00 0. -1.
</event>
<event>
 7    1  0.5957303E-006  0.3659022E+02  0.7818608E-02  0.1621503E+00
          2   -1    0    0  502    0  0.00000000000E+00  0.00000000000E+00  0.13260195109E+03  0.13260195109E+03  0.00000000000E+00 0. -1.
          1   -1    0    0  501    0 -0.00000000000E+00 -0.00000000000E+00 -0.16899550038E+03  0.16899550038E+03  0.00000000000E+00 0. -1.
         25    2    1    2    0    0 -0.50374578318E+02  0.54794977789E+01 -0.92085680030E+02  0.16331689329E+03  0.12500004852E+03 0.  0.
          2    1    1    2  501    0  0.30936019294E+02 -0.14434804433E+02 -0.32737125586E+02  0.47298205679E+02  0.00000000000E+00 0. -1.
          1    1    1    2  502    0  0.19438559024E+02  0.89553066540E+01  0.88429256326E+02  0.90982352512E+02  0.00000000000E+00 0. -1.
         22    1    3    3    0    0 -0.78031898883E+01 -0.50751660352E+02 -0.74753153327E+02  0.90689882199E+02  0.00000000000E+00 0. -1.
         22    1    3    3    0    0 -0.42571388429E+02  0.56231158131E+02 -0.17332526703E+02  0.72627011087E+02  0.00000000000E+00 0. -1.
</event>
<event>
 7    1  0.5957303E-006  0.6137768E+02  0.7818608E-02  0.1395224E+00
          2   -1    0    0  502    0  0.00000000000E+00  0.00000000000E+00  0.27067978148E+03  0.27067978148E+03  0.00000000000E+00 0. -1.
          1   -1    0    0  501    0 -0.00000000000E+00 -0.00000000000E+00 -0.13686478930E+04  0.13686478930E+04  0.00000000000E+00 0. -1.
         25    2    1    2    0    0  0.11744739378E+02  0.14199357486E+02 -0.26477775656E+02  0.12909686445E+03  0.12500146859E+03 0.  0.
          2    1    1    2  501    0  0.35358326278E+02 -0.51176235029E+02 -0.12860080988E+04  0.12875115722E+04  0.00000000000E+00 0. -1.
          1    1    1    2  502    0 -0.47103065655E+02  0.36976877544E+02  0.21451776298E+03  0.22271923783E+03  0.00000000000E+00 0. -1.
         22    1    3    3    0    0  0.22775194166E+02 -0.39403764912E+02  0.26719339964E+02  0.52775839990E+02  0.00000000000E+00 0. -1.
         22    1    3    3    0    0 -0.11030454788E+02  0.53603122398E+02 -0.53197115620E+02  0.76321024456E+02  0.00000000000E+00 0. -1.
</event>
<event>
 7    1  0.5957303E-006  0.7982250E+02  0.7818608E-02  0.1428968E+00
          2   -1    0    0  502    0  0.00000000000E+00  0.00000000000E+00  0.57350657344E+03  0.57350657344E+03  0.00000000000E+00 0. -1.
          1   -1    0    0  501    0 -0.00000000000E+00 -0.00000000000E+00 -0.11445087424E+03  0.11445087424E+03  0.00000000000E+00 0. -1.
         25    2    1    2    0    0  0.18245020611E+02  0.72154720295E+02  0.10572891958E+03  0.17984288056E+03  0.12500269123E+03 0.  0.
          2    1    1    2  501    0  0.16290638094E+02 -0.79992085417E+02 -0.54885271990E+02  0.98369261969E+02  0.00000000000E+00 0. -1.
          1    1    1    2  502    0 -0.34535658705E+02  0.78373651213E+01  0.40821205161E+03  0.40974530515E+03  0.00000000000E+00 0. -1.
         22    1    3    3    0    0  0.71871073743E+02  0.36608128032E+02  0.66077167676E+02  0.10426791629E+03  0.00000000000E+00 0.  1.
         22    1    3    3    0    0 -0.53626053132E+02  0.35546592263E+02  0.39651751902E+02  0.75574964273E+02  0.00000000000E+00 0.  1.
</event>
<event>
 7    1  0.5957303E-006  0.4653376E+02  0.7818608E-02  0.1537367E+00
          2   -1    0    0  502    0  0.00000000000E+00  0.00000000000E+00  0.18141409261E+04  0.18141409261E+04  0.00000000000E+00 0. -1.
          1   -1    0    0  501    0 -0.00000000000E+00 -0.00000000000E+00 -0.46570668169E+03  0.46570668169E+03  0.00000000000E+00 0. -1.
         25    2    1    2    0    0  0.15586266105E+02  0.18982149886E+02  0.22150319883E+03  0.25553201947E+03  0.12501876730E+03 0.  0.
          2    1    1    2  501    0  0.28250658668E+02 -0.18884342591E+01 -0.44789388455E+03  0.44878792064E+03  0.00000000000E+00 0. -1.
          1    1    1    2  502    0 -0.43836924773E+02 -0.17093715626E+02  0.15748249301E+04  0.15755276677E+04  0.00000000000E+00 0. -1.
         22    1    3    3    0    0 -0.38798493548E+02  0.49314363224E+02  0.13578676280E+03  0.14958367048E+03  0.00000000000E+00 0. -1.
         22    1    3    3    0    0  0.54384759653E+02 -0.30332213339E+02  0.85716436037E+02  0.10594834900E+03  0.00000000000E+00 0. -1.
</event>
<event>
 7    1  0.5957303E-006  0.1102748E+03  0.7818608E-02  0.1327687E+00
          2   -1    0    0  502    0  0.00000000000E+00  0.00000000000E+00  0.77449579641E+03  0.77449579641E+03  0.00000000000E+00 0. -1.
          1   -1    0    0  501    0 -0.00000000000E+00 -0.00000000000E+00 -0.54827950666E+02  0.54827950666E+02  0.00000000000E+00 0. -1.
         25    2    1    2    0    0 -0.79451572749E+02  0.59968035657E+02  0.42819471559E+03  0.45703894347E+03  0.12500065471E+03 0.  0.
          2    1    1    2  501    0  0.24468936201E+02  0.53400460551E+02  0.45501746299E+01  0.58915550706E+02  0.00000000000E+00 0. -1.
          1    1    1    2  502    0  0.54982636548E+02 -0.11336849621E+03  0.28692295553E+03  0.31336925290E+03  0.00000000000E+00 0. -1.
         22    1    3    3    0    0  0.23835305919E+01  0.72273090288E+02  0.14547275418E+03  0.16245431052E+03  0.00000000000E+00 0.  1.
         22    1    3    3    0    0 -0.81835103341E+02 -0.12305054631E+02  0.28272196142E+03  0.29458463296E+03  0.00000000000E+00 0.  1.
</event>
<event>
 7    1  0.5957303E-006  0.4534088E+02  0.7818608E-02  0.1588411E+00
          2   -1    0    0  502    0  0.00000000000E+00  0.00000000000E+00  0.18545805356E+04  0.18545805356E+04  0.00000000000E+00 0. -1.
          1   -1    0    0  501    0 -0.00000000000E+00 -0.00000000000E+00 -0.34385194544E+02  0.34385194544E+02  0.00000000000E+00 0. -1.
         25    2    1    2    0    0  0.78452729417E+01 -0.23460550464E+02  0.17945895504E+03  0.22009954507E+03  0.12500538972E+03 0.  0.
          2    1    1    2  501    0  0.95546836799E+01 -0.18757048870E+02 -0.56906811805E+01  0.21806024737E+02  0.00000000000E+00 0. -1.
          1    1    1    2  502    0 -0.17399956622E+02  0.42217599334E+02  0.16464270671E+04  0.16470601603E+04  0.00000000000E+00 0. -1.
         22    1    3    3    0    0  0.29783531528E+02 -0.15902769289E+02 -0.50486509080E+01  0.34138624713E+02  0.00000000000E+00 0.  1.
         22    1    3    3    0    0 -0.21938258586E+02 -0.75577811757E+01  0.18450760595E+03  0.18596092035E+03  0.00000000000E+00 0.  1.
</event>
<event>
 7    1  0.5957303E-006  0.3444090E+02  0.7818608E-02  0.1554645E+00
          2   -1    0    0  502    0  0.00000000000E+00  0.00000000000E+00  0.33394786381E+03  0.33394786381E+03  0.00000000000E+00 0. -1.
          1   -1    0    0  501    0 -0.00000000000E+00 -0.00000000000E+00 -0.36803570778E+03  0.36803570778E+03  0.00000000000E+00 0. -1.
         25    2    1    2    0    0  0.22343843468E+02 -0.54609083552E+02  0.15661704399E+03  0.20888909326E+03  0.12499742185E+03 0.  0.
          2    1    1    2  501    0 -0.27379188835E+02  0.20765035072E+02 -0.33908426866E+03  0.34082099102E+03  0.00000000000E+00 0. -1.
          1    1    1    2  502    0  0.50353453668E+01  0.33844048480E+02  0.14837938070E+03  0.15227348731E+03  0.00000000000E+00 0. -1.
         22    1    3    3    0    0  0.65582430476E+02 -0.44250741600E+02  0.50564279155E+02  0.93893182105E+02  0.00000000000E+00 0. -1.
         22    1    3    3    0    0 -0.43238587008E+02 -0.10358341952E+02  0.10605276483E+03  0.11499591116E+03  0.00000000000E+00 0. -1.
</event>
<event>
 7    1  0.1655075E-005  0.1108747E+03  0.7818608E-02  0.1397294E+00
          2   -1    0    0  502    0  0.00000000000E+00  0.00000000000E+00  0.15931230035E+04  0.15931230035E+04  0.00000000000E+00 0. -1.
          1   -1    0    0  501    0 -0.00000000000E+00 -0.00000000000E+00 -0.11560971203E+04  0.11560971203E+04  0.00000000000E+00 0. -1.
         25    2    1    2    0    0 -0.36327982341E+02 -0.77428302042E+02 -0.49133459173E+03  0.51414612324E+03  0.12498676231E+03 0.  0.
          2    1    1    2  501    0 -0.30683448964E+02 -0.11036719151E+02 -0.65100147820E+03  0.65181761854E+03  0.00000000000E+00 0. -1.
          1    1    1    2  502    0  0.67011431305E+02  0.88465021193E+02  0.15793619532E+04  0.15832563820E+04  0.00000000000E+00 0. -1.
         22    1    3    3    0    0 -0.58010020444E+02 -0.56480462901E+02 -0.14158632948E+03  0.16310087019E+03  0.00000000000E+00 0. -1.
         22    1    3    3    0    0  0.21682038102E+02 -0.20947839141E+02 -0.34974826225E+03  0.35104525305E+03  0.00000000000E+00 0. -1.
</event>
<event>
 7    1  0.5957303E-006  0.4372445E+02  0.7818608E-02  0.1499808E+00
          2   -1    0    0  502    0  0.00000000000E+00  0.00000000000E+00  0.46073334284E+03  0.46073334284E+03  0.00000000000E+00 0. -1.
          1   -1    0    0  501    0 -0.00000000000E+00 -0.00000000000E+00 -0.84430452090E+02  0.84430452090E+02  0.00000000000E+00 0. -1.
         25    2    1    2    0    0  0.31913152552E+02  0.92340678858E+01  0.27925290931E+03  0.30775173712E+03  0.12500090810E+03 0.  0.
          2    1    1    2  501    0 -0.46203626214E+01 -0.43479646632E+02 -0.60073052753E+02  0.74300734109E+02  0.00000000000E+00 0. -1.
          1    1    1    2  502    0 -0.27292789931E+02  0.34245578746E+02  0.15712303419E+03  0.16311132370E+03  0.00000000000E+00 0. -1.
         22    1    3    3    0    0  0.21858026576E+02  0.60228256579E+02  0.83693979077E+02  0.10540350255E+03  0.00000000000E+00 0.  1.
         22    1    3    3    0    0  0.10055125976E+02 -0.50994188693E+02  0.19555893023E+03  0.20234823457E+03  0.00000000000E+00 0.  1.
</event>
<event>
 7    1  0.5957303E-006  0.1084380E+03  0.7818608E-02  0.1412311E+00
          2   -1    0    0  502    0  0.00000000000E+00  0.00000000000E+00  0.63405650119E+03  0.63405650119E+03  0.00000000000E+00 0. -1.
          1   -1    0    0  501    0 -0.00000000000E+00 -0.00000000000E+00 -0.28894895988E+04  0.28894895988E+04  0.00000000000E+00 0. -1.
         25    2    1    2    0    0  0.55703878336E+02 -0.10069289751E+03 -0.61839901283E+03  0.64131564961E+03  0.12500576666E+03 0.  0.
          2    1    1    2  501    0 -0.74782665701E+02  0.78025776023E+02 -0.22579865608E+04  0.22605715600E+04  0.00000000000E+00 0. -1.
          1    1    1    2  502    0  0.19078787365E+02  0.22667121484E+02  0.62095247605E+03  0.62165889042E+03  0.00000000000E+00 0. -1.
         22    1    3    3    0    0  0.77106124550E+02 -0.17058904924E+02 -0.22207327899E+03  0.23569663112E+03  0.00000000000E+00 0. -1.
         22    1    3    3    0    0 -0.21402246214E+02 -0.83633992582E+02 -0.39632573384E+03  0.40561901849E+03  0.00000000000E+00 0. -1.
</event>
<event>
 7    1  0.5957303E-006  0.7092174E+02  0.7818608E-02  0.1406838E+00
          2   -1    0    0  502    0  0.00000000000E+00  0.00000000000E+00  0.18327937365E+03  0.18327937365E+03  0.00000000000E+00 0. -1.
          1   -1    0    0  501    0 -0.00000000000E+00 -0.00000000000E+00 -0.20763541739E+03  0.20763541739E+03  0.00000000000E+00 0. -1.
         25    2    1    2    0    0  0.48112374526E+02  0.51469173243E+02  0.44792693249E+02  0.15030720216E+03  0.12498797252E+03 0.  0.
          2    1    1    2  501    0 -0.55481344663E+01 -0.72047837804E+02 -0.13876656611E+03  0.15645393123E+03  0.00000000000E+00 0. -1.
          1    1    1    2  502    0 -0.42564240060E+02  0.20578664561E+02  0.69617829112E+02  0.84153657658E+02  0.00000000000E+00 0. -1.
         22    1    3    3    0    0  0.19170208162E+02  0.89088317177E+02  0.47503264779E+02  0.10276568154E+03  0.00000000000E+00 0.  1.
         22    1    3    3    0    0  0.28942166365E+02 -0.37619143933E+02 -0.27105715305E+01  0.47541520613E+02  0.00000000000E+00 0.  1.
</event>
<event>
 7    1  0.5957303E-006  0.1673241E+03  0.7818608E-02  0.1375755E+00
          2   -1    0    0  502    0  0.00000000000E+00  0.00000000000E+00  0.56757682123E+03  0.56757682123E+03  0.00000000000E+00 0. -1.
          1   -1    0    0  501    0 -0.00000000000E+00 -0.00000000000E+00 -0.28461115079E+03  0.28461115079E+03  0.00000000000E+00 0. -1.
         25    2    1    2    0    0  0.15891823350E+03 -0.34606939496E+02 -0.60560012521E+02  0.21388212279E+03  0.12500160851E+03 0.  0.
          2    1    1    2  501    0  0.87528781695E+01  0.24177443031E+02 -0.13173833044E+03  0.13422425017E+03  0.00000000000E+00 0. -1.
          1    1    1    2  502    0 -0.16767111167E+03  0.10429496465E+02  0.47526401340E+03  0.50408159906E+03  0.00000000000E+00 0. -1.
         22    1    3    3    0    0 -0.74399089690E+01 -0.75424750265E+01  0.23323156009E+02  0.25616611431E+02  0.00000000000E+00 0. -1.
         22    1    3    3    0    0  0.16635814247E+03 -0.27064464470E+02 -0.83883168530E+02  0.18826551136E+03  0.00000000000E+00 0. -1.
</event>
<event>
 7    1  0.5957303E-006  0.1353725E+03  0.7818608E-02  0.1290665E+00
          2   -1    0    0  502    0  0.00000000000E+00  0.00000000000E+00  0.63568522343E+03  0.63568522343E+03  0.00000000000E+00 0. -1.
          1   -1    0    0  501    0 -0.00000000000E+00 -0.00000000000E+00 -0.59287499926E+03  0.59287499926E+03  0.00000000000E+00 0. -1.
         25    2    1    2    0    0  0.73351484810E+02  0.46332288117E+02 -0.25081648066E+03  0.29336152488E+03  0.12499982427E+03 0.  0.
          2    1    1    2  501    0  0.36886986552E+01  0.66885486043E+02 -0.30952777739E+03  0.31669341596E+03  0.00000000000E+00 0. -1.
          1    1    1    2  502    0 -0.77040183465E+02 -0.11321777416E+03  0.60315448222E+03  0.61850528185E+03  0.00000000000E+00 0. -1.
         22    1    3    3    0    0 -0.17556677248E+02  0.27590383208E+02 -0.16069295187E+03  0.16398686211E+03  0.00000000000E+00 0. -1.
         22    1    3    3    0    0  0.90908162058E+02  0.18741904909E+02 -0.90123528785E+02  0.12937466278E+03  0.00000000000E+00 0. -1.
</event>
<event>
 7    1  0.5957303E-006  0.3578946E+03  0.7818608E-02  0.1183187E+00
          2   -1    0    0  502    0  0.00000000000E+00  0.00000000000E+00  0.20195913746E+04  0.20195913746E+04  0.00000000000E+00 0. -1.
          1   -1    0    0  501    0 -0.00000000000E+00 -0.00000000000E+00 -0.14465920025E+04  0.14465920025E+04  0.00000000000E+00 0. -1.
         25    2    1    2    0    0  0.18186341182E+03  0.33516645623E+03  0.98074424961E+02  0.41310331890E+03  0.12499962128E+03 0.  0.
          2    1    1    2  501    0 -0.75908112064E+02  0.46544066484E+01 -0.12699714409E+04  0.12722465035E+04  0.00000000000E+00 0. -1.
          1    1    1    2  502    0 -0.10595529976E+03 -0.33982086288E+03  0.17448963880E+04  0.17808335546E+04  0.00000000000E+00 0. -1.
         22    1    3    3    0    0  0.10680343681E+03  0.96938995404E+02  0.74170869355E+02  0.16218958291E+03  0.00000000000E+00 0. -1.
         22    1    3    3    0    0  0.75059975011E+02  0.23822746082E+03  0.23903555606E+02  0.25091373599E+03  0.00000000000E+00 0. -1.
</event>
<event>
 7    1  0.5957303E-006  0.5326255E+02  0.7818608E-02  0.1536972E+00
          2   -1    0    0  502    0  0.00000000000E+00  0.00000000000E+00  0.36854945746E+03  0.36854945746E+03  0.00000000000E+00 0. -1.
          1   -1    0    0  501    0 -0.00000000000E+00 -0.00000000000E+00 -0.10985092072E+04  0.10985092072E+04  0.00000000000E+00 0. -1.
         25    2    1    2    0    0 -0.74882911674E+02  0.14775485215E+02 -0.60563151884E+03  0.62308946157E+03  0.12500070035E+03 0.  0.
          2    1    1    2  501    0  0.21770758574E+02 -0.11878938659E+02 -0.48186230523E+03  0.48250011017E+03  0.00000000000E+00 0. -1.
          1    1    1    2  502    0  0.53112153100E+02 -0.28965465559E+01  0.35753407436E+03  0.36146909289E+03  0.00000000000E+00 0. -1.
         22    1    3    3    0    0 -0.95660444560E+02  0.32705185481E+02 -0.30739104265E+03  0.32358894127E+03  0.00000000000E+00 0. -1.
         22    1    3    3    0    0  0.20777532885E+02 -0.17929700267E+02 -0.29824047618E+03  0.29950052030E+03  0.00000000000E+00 0. -1.
</event>
<event>
 7    1  0.5957303E-006  0.1295482E+03  0.7818608E-02  0.1265881E+00
          2   -1    0    0  502    0  0.00000000000E+00  0.00000000000E+00  0.30279317989E+04  0.30279317989E+04  0.00000000000E+00 0. -1.
          1   -1    0    0  501    0 -0.00000000000E+00 -0.00000000000E+00 -0.16603404872E+04  0.16603404872E+04  0.00000000000E+00 0. -1.
         25    2    1    2    0    0 -0.41360014246E+01  0.43478181979E+02  0.62508361238E+03  0.63895395235E+03  0.12500068779E+03 0.  0.
          2    1    1    2  501    0 -0.23353732288E+02 -0.12778513816E+03 -0.16500312107E+04  0.16551366815E+04  0.00000000000E+00 0. -1.
          1    1    1    2  502    0  0.27489733713E+02  0.84306956179E+02  0.23925389100E+04  0.23941816523E+04  0.00000000000E+00 0. -1.
         22    1    3    3    0    0 -0.13133063693E+02  0.79420121793E+02  0.26467237929E+03  0.27664327476E+03  0.00000000000E+00 0. -1.
         22    1    3    3    0    0  0.89970622686E+01 -0.35941939813E+02  0.36041123308E+03  0.36231067760E+03  0.00000000000E+00 0. -1.
</event>
<event>
 7    1  0.5957303E-006  0.1224160E+03  0.7818608E-02  0.1353324E+00
          2   -1    0    0  502    0  0.00000000000E+00  0.00000000000E+00  0.38259732806E+03  0.38259732806E+03  0.00000000000E+00 0. -1.
          1   -1    0    0  501    0 -0.00000000000E+00 -0.00000000000E+00 -0.14151355421E+04  0.14151355421E+04  0.00000000000E+00 0. -1.
         25    2    1    2    0    0  0.19920921904E+02 -0.88035460890E+02 -0.48516227469E+03  0.50907237108E+03  0.12500064283E+03 0.  0.
          2    1    1    2  501    0 -0.23843233719E+02 -0.35039467763E+02 -0.90728246642E+03  0.90827184145E+03  0.00000000000E+00 0. -1.
          1    1    1    2  502    0  0.39223118142E+01  0.12307492865E+03  0.35990652709E+03  0.38038865761E+03  0.00000000000E+00 0. -1.
         22    1    3    3    0    0 -0.47809472256E+02 -0.61514706320E+02 -0.19636163904E+03  0.21125268760E+03  0.00000000000E+00 0.  1.
         22    1    3    3    0    0  0.67730394161E+02 -0.26520754570E+02 -0.28880063565E+03  0.29781968348E+03  0.00000000000E+00 0.  1.
</event>
<event>
 7    1  0.5957303E-006  0.1160229E+03  0.7818608E-02  0.1328853E+00
          2   -1    0    0  502    0  0.00000000000E+00  0.00000000000E+00  0.20662887567E+04  0.20662887567E+04  0.00000000000E+00 0. -1.
          1   -1    0    0  501    0 -0.00000000000E+00 -0.00000000000E+00 -0.33734810798E+03  0.33734810798E+03  0.00000000000E+00 0. -1.
         25    2    1    2    0    0 -0.72004993227E+01 -0.15425993349E+03  0.12007179936E+04  0.12170442568E+04  0.12500019450E+03 0.  0.
          2    1    1    2  501    0 -0.11795409947E+02  0.53984334868E+02 -0.32379899639E+03  0.32848018231E+03  0.00000000000E+00 0. -1.
          1    1    1    2  502    0  0.18995909270E+02  0.10027559863E+03  0.85202165158E+03  0.85811242563E+03  0.00000000000E+00 0. -1.
         22    1    3    3    0    0 -0.36217113923E+02 -0.13111720284E+03  0.60200044966E+03  0.61717739882E+03  0.00000000000E+00 0. -1.
         22    1    3    3    0    0  0.29016614600E+02 -0.23142730656E+02  0.59871754390E+03  0.59986685796E+03  0.00000000000E+00 0. -1.
</event>
<event>
 7    1  0.5957303E-006  0.3144867E+02  0.7818608E-02  0.1614019E+00
          2   -1    0    0  502    0  0.00000000000E+00  0.00000000000E+00  0.69818186028E+03  0.69818186028E+03  0.00000000000E+00 0. -1.
          1   -1    0    0  501    0 -0.00000000000E+00 -0.00000000000E+00 -0.40879786028E+03  0.40879786028E+03  0.00000000000E+00 0. -1.
         25    2    1    2    0    0 -0.30617050555E+02 -0.10266188095E+01  0.33494772360E+03  0.35882226829E+03  0.12499993977E+03 0.  0.
          2    1    1    2  501    0  0.87181840623E+01  0.24517880628E+02 -0.39569835212E+03  0.39655304699E+03  0.00000000000E+00 0. -1.
          1    1    1    2  502    0  0.21898866493E+02 -0.23491261819E+02  0.35013462852E+03  0.35160440529E+03  0.00000000000E+00 0. -1.
         22    1    3    3    0    0 -0.67209461440E+02 -0.15173290781E+02  0.29458258596E+03  0.30253304020E+03  0.00000000000E+00 0.  1.
         22    1    3    3    0    0  0.36592410884E+02  0.14146671971E+02  0.40365137640E+02  0.56289228089E+02  0.00000000000E+00 0.  1.
</event>
<event>
 7    1  0.5957303E-006  0.1149687E+03  0.7818608E-02  0.1315863E+00
          2   -1    0    0  502    0  0.00000000000E+00  0.00000000000E+00  0.15855358529E+04  0.15855358529E+04  0.00000000000E+00 0. -1.
          1   -1    0    0  501    0 -0.00000000000E+00 -0.00000000000E+00 -0.11287066570E+04  0.11287066570E+04  0.00000000000E+00 0. -1.
         25    2    1    2    0    0 -0.40654157720E+02 -0.50682431401E+02  0.10274279065E+03  0.17436324103E+03  0.12499995759E+03 0.  0.
          2    1    1    2  501    0  0.10319408456E+03  0.53432244697E+02 -0.10891269540E+04  0.10953088814E+04  0.00000000000E+00 0. -1.
          1    1    1    2  502    0 -0.62539926841E+02 -0.27498132955E+01  0.14432133592E+04  0.14445703874E+04  0.00000000000E+00 0. -1.
         22    1    3    3    0    0  0.36180403859E+02 -0.52198088125E+02  0.53952816836E+02  0.83334077494E+02  0.00000000000E+00 0.  1.
         22    1    3    3    0    0 -0.76834561580E+02  0.15156567241E+01  0.48789973819E+02  0.91029163534E+02  0.00000000000E+00 0.  1.
</event>
<event>
 7    1  0.5957303E-006  0.3499922E+02  0.7818608E-02  0.1613199E+00
          2   -1    0    0  502    0  0.00000000000E+00  0.00000000000E+00  0.25705309744E+03  0.25705309744E+03  0.00000000000E+00 0. -1.
          1   -1    0    0  501    0 -0.00000000000E+00 -0.00000000000E+00 -0.47096567260E+02  0.47096567260E+02  0.00000000000E+00 0. -1.
         25    2    1    2    0    0  0.28079572746E+01  0.53227637991E+02  0.13068087168E+03  0.18853084815E+03  0.12500129763E+03 0.  0.
          2    1    1    2  501    0  0.79138862325E+01 -0.32321016512E+02  0.35789401265E+00  0.33277707129E+02  0.00000000000E+00 0. -1.
          1    1    1    2  502    0 -0.10721843507E+02 -0.20906621480E+02  0.78917764485E+02  0.82341109425E+02  0.00000000000E+00 0. -1.
         22    1    3    3    0    0 -0.19849059237E+02 -0.37022511128E+02  0.31291516587E+02  0.52381394532E+02  0.00000000000E+00 0.  1.
         22    1    3    3    0    0  0.22657016512E+02  0.90250149119E+02  0.99389355094E+02  0.13614945361E+03  0.00000000000E+00 0.  1.
</event>
<event>
 7    1  0.5957303E-006  0.6358940E+02  0.7818608E-02  0.1438655E+00
          2   -1    0    0  502    0  0.00000000000E+00  0.00000000000E+00  0.46061807142E+03  0.46061807142E+03  0.00000000000E+00 0. -1.
          1   -1    0    0  501    0 -0.00000000000E+00 -0.00000000000E+00 -0.82360159171E+03  0.82360159171E+03  0.00000000000E+00 0. -1.
         25    2    1    2    0    0  0.84101476895E+01  0.42730395453E+02 -0.24705441487E+02  0.13465215247E+03  0.12499690414E+03 0.  0.
          2    1    1    2  501    0  0.30494760982E+02 -0.56659581405E+02 -0.74147342843E+03  0.74426009142E+03  0.00000000000E+00 0. -1.
          1    1    1    2  502    0 -0.38904908671E+02  0.13929185952E+02  0.40319534962E+03  0.40530741925E+03  0.00000000000E+00 0. -1.
         22    1    3    3    0    0  0.35080194298E+02  0.79388736014E+02 -0.20054412518E+02  0.89080698803E+02  0.00000000000E+00 0. -1.
         22    1    3    3    0    0 -0.26670046608E+02 -0.36658340561E+02 -0.46510289692E+01  0.45571453666E+02  0.00000000000E+00 0. -1.
</event>
<event>
 7    1  0.5957303E-006  0.6472890E+02  0.7818608E-02  0.1474725E+00
          2   -1    0    0  502    0  0.00000000000E+00  0.00000000000E+00  0.14205213118E+02  0.14205213118E+02  0.00000000000E+00 0. -1.
          1   -1    0    0  501    0 -0.00000000000E+00 -0.00000000000E+00 -0.18599391637E+04  0.18599391637E+04  0.00000000000E+00 0. -1.
         25    2    1    2    0    0 -0.24120080680E+02 -0.54323523542E+02 -0.90951713819E+03  0.91998877826E+03  0.12500041590E+03 0.  0.
          2    1    1    2  501    0 -0.43064742223E+01  0.67180780575E+02 -0.91246343064E+03  0.91494333992E+03  0.00000000000E+00 0. -1.
          1    1    1    2  502    0  0.28426554902E+02 -0.12857257033E+02 -0.23753381731E+02  0.39212258615E+02  0.00000000000E+00 0. -1.
         22    1    3    3    0    0  0.44468586274E+02 -0.13157573796E+02 -0.53596480266E+03  0.53796732856E+03  0.00000000000E+00 0. -1.
         22    1    3    3    0    0 -0.68588666953E+02 -0.41165949745E+02 -0.37355233553E+03  0.38202144970E+03  0.00000000000E+00 0. -1.
</event>
<event>
 7    1  0.5957303E-006  0.1286749E+03  0.7818608E-02  0.1379841E+00
          2   -1    0    0  502    0  0.00000000000E+00  0.00000000000E+00  0.27649743669E+03  0.27649743669E+03  0.00000000000E+00 0. -1.
          1   -1    0    0  501    0 -0.00000000000E+00 -0.00000000000E+00 -0.15066741821E+04  0.15066741821E+04  0.00000000000E+00 0. -1.
         25    2    1    2    0    0  0.11405473901E+03 -0.13252816547E+02 -0.69045631759E+03  0.71101303127E+03  0.12500193398E+03 0.  0.
          2    1    1    2  501    0  0.14019702013E+02  0.29139929456E+02 -0.78994850332E+03  0.79061009697E+03  0.00000000000E+00 0. -1.
          1    1    1    2  502    0 -0.12807444102E+03 -0.15887112909E+02  0.25022807547E+03  0.28154849059E+03  0.00000000000E+00 0. -1.
         22    1    3    3    0    0  0.22629841910E+02 -0.61692026461E+02 -0.29677477039E+03  0.30396262964E+03  0.00000000000E+00 0. -1.
         22    1    3    3    0    0  0.91424897101E+02  0.48439209914E+02 -0.39368154719E+03  0.40705040163E+03  0.00000000000E+00 0. -1.
</event>
<event>
 7    1  0.5957303E-006  0.4306838E+02  0.7818608E-02  0.1528603E+00
          2   -1    0    0  502    0  0.00000000000E+00  0.00000000000E+00  0.11815626060E+04  0.11815626060E+04  0.00000000000E+00 0. -1.
          1   -1    0    0  501    0 -0.00000000000E+00 -0.00000000000E+00 -0.21867244128E+03  0.21867244128E+03  0.00000000000E+00 0. -1.
         25    2    1    2    0    0 -0.16316313069E+02 -0.34616422253E+02 -0.67293110654E+02  0.14702950444E+03  0.12499917469E+03 0.  0.
          2    1    1    2  501    0 -0.24629515811E+02  0.21059271994E+02 -0.10874000864E+03  0.11346583391E+03  0.00000000000E+00 0. -1.
          1    1    1    2  502    0  0.40945828879E+02  0.13557150260E+02  0.11389232840E+04  0.11397397089E+04  0.00000000000E+00 0. -1.
         22    1    3    3    0    0 -0.62810905376E+02  0.13034543075E+02 -0.33308958648E+02  0.72281366019E+02  0.00000000000E+00 0. -1.
         22    1    3    3    0    0  0.46494592307E+02 -0.47650965328E+02 -0.33984152006E+02  0.74748138426E+02  0.00000000000E+00 0. -1.
</event>
<event>
 7    1  0.5957303E-006  0.1497282E+03  0.7818608E-02  0.1236198E+00
          2   -1    0    0  502    0  0.00000000000E+00  0.00000000000E+00  0.24742195031E+04  0.24742195031E+04  0.00000000000E+00 0. -1.
          1   -1    0    0  501    0 -0.00000000000E+00 -0.00000000000E+00 -0.11659790419E+03  0.11659790419E+03  0.00000000000E+00 0. -1.
         25    2    1    2    0    0  0.68333732445E+02  0.37900995340E+02  0.51772562301E+03  0.53830581252E+03  0.12500937021E+03 0.  0.
          2    1    1    2  501    0 -0.15889981349E+03  0.11488271184E+02 -0.44406399808E+02  0.16538760366E+03  0.00000000000E+00 0. -1.
          1    1    1    2  502    0  0.90566081042E+02 -0.49389266525E+02  0.18843023757E+04  0.18871239911E+04  0.00000000000E+00 0. -1.
         22    1    3    3    0    0 -0.11905240081E+02 -0.32096471368E+02  0.20774970109E+03  0.21055131564E+03  0.00000000000E+00 0.  1.
         22    1    3    3    0    0  0.80238972526E+02  0.69997466708E+02  0.30997592192E+03  0.32775449688E+03  0.00000000000E+00 0.  1.
</event>
<event>
 7    1  0.5957303E-006  0.2691035E+03  0.7818608E-02  0.1267094E+00
          2   -1    0    0  502    0  0.00000000000E+00  0.00000000000E+00  0.18227083719E+04  0.18227083719E+04  0.00000000000E+00 0. -1.
          1   -1    0    0  501    0 -0.00000000000E+00 -0.00000000000E+00 -0.82334109833E+03  0.82334109833E+03  0.00000000000E+00 0. -1.
         25    2    1    2    0    0 -0.12310966771E+03  0.25171398170E+03  0.13319569324E+04  0.13668395264E+04  0.12500040919E+03 0.  0.
          2    1    1    2  501    0 -0.99219625621E+01 -0.41005226495E+02 -0.77248569792E+03  0.77363688345E+03  0.00000000000E+00 0. -1.
          1    1    1    2  502    0  0.13303163027E+03 -0.21070875520E+03  0.43989603908E+03  0.50557306037E+03  0.00000000000E+00 0. -1.
         22    1    3    3    0    0 -0.33582337271E+02  0.79198358564E+01  0.32892006005E+03  0.33072481473E+03  0.00000000000E+00 0.  1.
         22    1    3    3    0    0 -0.89527330437E+02  0.24379414584E+03  0.10030368724E+04  0.10361147117E+04  0.00000000000E+00 0.  1.
</event>
<event>
 7    1  0.5957303E-006  0.5527903E+02  0.7818608E-02  0.1441253E+00
          2   -1    0    0  502    0  0.00000000000E+00  0.00000000000E+00  0.16882866658E+04  0.16882866658E+04  0.00000000000E+00 0. -1.
          1   -1    0    0  501    0 -0.00000000000E+00 -0.00000000000E+00 -0.39504860646E+03  0.39504860646E+03  0.00000000000E+00 0. -1.
         25    2    1    2    0    0  0.29049991066E+02 -0.41519303018E+00 -0.16935769684E+03  0.21248681771E+03  0.12499817541E+03 0.  0.
          2    1    1    2  501    0  0.17208904673E+00 -0.46621066127E+02 -0.20099763520E+03  0.20633371702E+03  0.00000000000E+00 0. -1.
          1    1    1    2  502    0 -0.29222080113E+02  0.47036259158E+02  0.16635933914E+04  0.16645147376E+04  0.00000000000E+00 0. -1.
         22    1    3    3    0    0 -0.21837489229E+02  0.50409371476E+02 -0.89507902958E+02  0.10502211843E+03  0.00000000000E+00 0. -1.
         22    1    3    3    0    0  0.50887480295E+02 -0.50824564506E+02 -0.79849793880E+02  0.10746469928E+03  0.00000000000E+00 0. -1.
</event>
<event>
 7    1  0.5957303E-006  0.1077100E+03  0.7818608E-02  0.1275057E+00
          2   -1    0    0  502    0  0.00000000000E+00  0.00000000000E+00  0.54706172988E+03  0.54706172988E+03  0.00000000000E+00 0. -1.
          1   -1    0    0  501    0 -0.00000000000E+00 -0.00000000000E+00 -0.75329941181E+03  0.75329941181E+03  0.00000000000E+00 0. -1.
         25    2    1    2    0    0 -0.47279252823E+02  0.25034666896E+02 -0.15047869958E+03  0.20281202395E+03  0.12500726274E+03 0.  0.
          2    1    1    2  501    0 -0.14302902140E+02 -0.11340371729E+03 -0.56530421698E+03  0.57674416671E+03  0.00000000000E+00 0. -1.
          1    1    1    2  502    0  0.61582154963E+02  0.88369050394E+02  0.50954523463E+03  0.52080495102E+03  0.00000000000E+00 0. -1.
         22    1    3    3    0    0  0.30095907111E+02  0.11025700948E+02  0.10786432657E+01  0.32070129054E+02  0.00000000000E+00 0.  1.
         22    1    3    3    0    0 -0.77375159934E+02  0.14008965948E+02 -0.15155734285E+03  0.17074189490E+03  0.00000000000E+00 0.  1.
</event>
<event>
 7    1  0.5957303E-006  0.5303799E+02  0.7818608E-02  0.1453398E+00
          2   -1    0    0  502    0  0.00000000000E+00  0.00000000000E+00  0.10780318802E+04  0.10780318802E+04  0.00000000000E+00 0. -1.
          1   -1    0    0  501    0 -0.00000000000E+00 -0.00000000000E+00 -0.51167762138E+02  0.51167762138E+02  0.00000000000E+00 0. -1.
         25    2    1    2    0    0  0.74221015549E+01  0.19732007810E+02  0.60581401308E+03  0.61893459943E+03  0.12499992080E+03 0.  0.
          2    1    1    2  501    0  0.30387879349E+02  0.32395859670E+02 -0.30670292369E+02  0.53977604329E+02  0.00000000000E+00 0. -1.
          1    1    1    2  502    0 -0.37809980904E+02 -0.52127867480E+02  0.45172039734E+03  0.45628743857E+03  0.00000000000E+00 0. -1.
         22    1    3    3    0    0 -0.15374307451E+00  0.50429818806E+02  0.56528879745E+03  0.56753380057E+03  0.00000000000E+00 0. -1.
         22    1    3    3    0    0  0.75758446295E+01 -0.30697810996E+02  0.40525215629E+02  0.51400798861E+02  0.00000000000E+00 0. -1.
</event>
<event>
 7    1  0.5957303E-006  0.3666096E+02  0.7818608E-02  0.1584096E+00
          2   -1    0    0  502    0  0.00000000000E+00  0.00000000000E+00  0.16659252525E+03  0.16659252525E+03  0.00000000000E+00 0. -1.
          1   -1    0    0  501    0 -0.00000000000E+00 -0.00000000000E+00 -0.24403332406E+03  0.24403332406E+03  0.00000000000E+00 0. -1.
         25    2    1    2    0    0  0.12255877378E+02  0.21698230783E+02 -0.61992220139E+02  0.14171337610E+03  0.12497450083E+03 0.  0.
          2    1    1    2  501    0  0.23722776224E+02 -0.12320771276E+02 -0.13814438079E+03  0.14070693466E+03  0.00000000000E+00 0. -1.
          1    1    1    2  502    0 -0.35978653602E+02 -0.93774595073E+01  0.12269580212E+03  0.12820553857E+03  0.00000000000E+00 0. -1.
         22    1    3    3    0    0 -0.16445935035E+02  0.10301631836E+02  0.34947274413E+02  0.39973796249E+02  0.00000000000E+00 0.  1.
         22    1    3    3    0    0  0.28701812414E+02  0.11396598947E+02 -0.96939494552E+02  0.10173957985E+03  0.00000000000E+00 0.  1.
</event>
<event>
 7    1  0.5957303E-006  0.7429323E+02  0.7818608E-02  0.1408342E+00
          2   -1    0    0  502    0  0.00000000000E+00  0.00000000000E+00  0.32993464426E+04  0.32993464426E+04  0.00000000000E+00 0. -1.
          1   -1    0    0  501    0 -0.00000000000E+00 -0.00000000000E+00 -0.22315524688E+03  0.22315524688E+03  0.00000000000E+00 0. -1.
         25    2    1    2    0    0  0.68984055796E+02 -0.64267972665E+02  0.23426469287E+03  0.28176906543E+03  0.12499875056E+03 0.  0.
          2    1    1    2  501    0  0.24526239737E+01  0.44536721504E+02 -0.19645117018E+03  0.20145122782E+03  0.00000000000E+00 0. -1.
          1    1    1    2  502    0 -0.71436679769E+02  0.19731251161E+02  0.30383776731E+04  0.30392813963E+04  0.00000000000E+00 0. -1.
         22    1    3    3    0    0  0.57023906959E+02 -0.82191786481E+02  0.85924533690E+02  0.13187206383E+03  0.00000000000E+00 0.  1.
         22    1    3    3    0    0  0.11960148836E+02  0.17923813816E+02  0.14834015918E+03  0.14989700159E+03  0.00000000000E+00 0.  1.
</event>
<event>
 7    1  0.5957303E-006  0.8478015E+02  0.7818608E-02  0.1423518E+00
          2   -1    0    0  502    0  0.00000000000E+00  0.00000000000E+00  0.64778825551E+03  0.64778825551E+03  0.00000000000E+00 0. -1.
          1   -1    0    0  501    0 -0.00000000000E+00 -0.00000000000E+00 -0.19074806367E+03  0.19074806367E+03  0.00000000000E+00 0. -1.
         25    2    1    2    0    0 -0.51367055070E+02  0.30547684326E+02  0.13804467290E+03  0.19558605602E+03  0.12500335287E+03 0.  0.
          2    1    1    2  501    0  0.57708378301E+02 -0.64721301008E+02 -0.14968239867E+03  0.17298532944E+03  0.00000000000E+00 0. -1.
          1    1    1    2  502    0 -0.63413232309E+01  0.34173616683E+02  0.46867791761E+03  0.46996493371E+03  0.00000000000E+00 0. -1.
         22    1    3    3    0    0  0.23538306500E+02 -0.27695438560E+02  0.12966425787E+02  0.38590379470E+02  0.00000000000E+00 0. -1.
         22    1    3    3    0    0 -0.74905361570E+02  0.58243122886E+02  0.12507824711E+03  0.15699567655E+03  0.00000000000E+00 0. -1.
</event>
<event>
 7    1  0.5957303E-006  0.3996003E+02  0.7818608E-02  0.1561406E+00
          2   -1    0    0  502    0  0.00000000000E+00  0.00000000000E+00  0.10231628182E+04  0.10231628182E+04  0.00000000000E+00 0. -1.
          1   -1    0    0  501    0 -0.00000000000E+00 -0.00000000000E+00 -0.62952196711E+03  0.62952196711E+03  0.00000000000E+00 0. -1.
         25    2    1    2    0    0  0.37216719734E+02  0.16058862514E+02  0.49836071322E+03  0.51539873409E+03  0.12501793204E+03 0.  0.
          2    1    1    2  501    0  0.16927002749E+01 -0.28199742261E+02 -0.61987627371E+03  0.62051968978E+03  0.00000000000E+00 0. -1.
          1    1    1    2  502    0 -0.38909420009E+02  0.12140879747E+02  0.51515641156E+03  0.51676636142E+03  0.00000000000E+00 0. -1.
         22    1    3    3    0    0 -0.36178873631E+02  0.88707259901E+01  0.32329616172E+03  0.32543510698E+03  0.00000000000E+00 0.  1.
         22    1    3    3    0    0  0.73395593365E+02  0.71881365234E+01  0.17506455150E+03  0.18996362711E+03  0.00000000000E+00 0.  1.
</event>
<event>
 7    1  0.5957303E-006  0.4215160E+02  0.7818608E-02  0.1533992E+00
          2   -1    0    0  502    0  0.00000000000E+00  0.00000000000E+00  0.64212350463E+02  0.64212350463E+02  0.00000000000E+00 0. -1.
          1   -1    0    0  501    0 -0.00000000000E+00 -0.00000000000E+00 -0.78235856043E+03  0.78235856043E+03  0.00000000000E+00 0. -1.
         25    2    1    2    0    0 -0.15842981286E+02 -0.25455021135E+02 -0.28726962141E+03  0.31471695115E+03  0.12499586313E+03 0.  0.
          2    1    1    2  501    0  0.27863760990E+02 -0.15645374666E+02 -0.47164636734E+03  0.47272768350E+03  0.00000000000E+00 0. -1.
          1    1    1    2  502    0 -0.12020779704E+02  0.41100395801E+02  0.40769778784E+02  0.59126276238E+02  0.00000000000E+00 0. -1.
         22    1    3    3    0    0  0.43387403572E+02 -0.48413441696E+02 -0.14364345334E+03  0.15766981262E+03  0.00000000000E+00 0. -1.
         22    1    3    3    0    0 -0.59230384857E+02  0.22958420561E+02 -0.14362616808E+03  0.15704713853E+03  0.00000000000E+00 0. -1.
</event>
<event>
 7    1  0.5957303E-006  0.7645278E+02  0.7818608E-02  0.1448890E+00
          2   -1    0    0  502    0  0.00000000000E+00  0.00000000000E+00  0.17094484098E+03  0.17094484098E+03  0.00000000000E+00 0. -1.
          1   -1    0    0  501    0 -0.00000000000E+00 -0.00000000000E+00 -0.19516366092E+04  0.19516366092E+04  0.00000000000E+00 0. -1.
         25    2    1    2    0    0  0.89455541603E+02  0.46696757105E+02 -0.11541237209E+04  0.11652508788E+04  0.12500066567E+03 0.  0.
          2    1    1    2  501    0 -0.59101315865E+02 -0.37041910915E+02 -0.78886238613E+03  0.79193998065E+03  0.00000000000E+00 0. -1.
          1    1    1    2  502    0 -0.30354225737E+02 -0.96548461903E+01  0.16229433882E+03  0.16539059069E+03  0.00000000000E+00 0. -1.
         22    1    3    3    0    0  0.11716778657E+03  0.52554868869E+02 -0.10277703272E+04  0.10357616280E+04  0.00000000000E+00 0.  1.
         22    1    3    3    0    0 -0.27712244969E+02 -0.58581117633E+01 -0.12635339369E+03  0.12948925087E+03  0.00000000000E+00 0.  1.
</event>
<event>
 7    1  0.5957303E-006  0.5136386E+02  0.7818608E-02  0.1443136E+00
          2   -1    0    0  502    0  0.00000000000E+00  0.00000000000E+00  0.74010487310E+03  0.74010487310E+03  0.00000000000E+00 0. -1.
          1   -1    0    0  501    0 -0.00000000000E+00 -0.00000000000E+00 -0.29745411558E+03  0.29745411558E+03  0.00000000000E+00 0. -1.
         25    2    1    2    0    0  0.53622876157E+02 -0.75474138973E+02 -0.35931809484E+01  0.15559583703E+03  0.12500158019E+03 0.  0.
          2    1    1    2  501    0 -0.12123788121E+02  0.48534478644E+02 -0.21405003946E+03  0.21981810946E+03  0.00000000000E+00 0. -1.
          1    1    1    2  502    0 -0.41499088035E+02  0.26939660329E+02  0.66029397793E+03  0.66214504219E+03  0.00000000000E+00 0. -1.
         22    1    3    3    0    0  0.43674994028E+02  0.15934101021E+02  0.32599257372E+02  0.56781266804E+02  0.00000000000E+00 0. -1.
         22    1    3    3    0    0  0.99478821290E+01 -0.91408239994E+02 -0.36192438321E+02  0.98814570227E+02  0.00000000000E+00 0. -1.
</event>
<event>
 7    1  0.5957303E-006  0.4936141E+02  0.7818608E-02  0.1479942E+00
          2   -1    0    0  502    0  0.00000000000E+00  0.00000000000E+00  0.68540080721E+02  0.68540080721E+02  0.00000000000E+00 0. -1.
          1   -1    0    0  501    0 -0.00000000000E+00 -0.00000000000E+00 -0.22631467917E+04  0.22631467917E+04  0.00000000000E+00 0. -1.
         25    2    1    2    0    0  0.36525760133E+01  0.76512314532E+02 -0.88979438762E+02  0.17149347581E+03  0.12500078455E+03 0.  0.
          2    1    1    2  501    0 -0.24205689029E+02 -0.42866673136E+02 -0.21182296441E+04  0.21188016170E+04  0.00000000000E+00 0. -1.
          1    1    1    2  502    0  0.20553113016E+02 -0.33645641395E+02  0.12602371907E+02  0.41391779585E+02  0.00000000000E+00 0. -1.
         22    1    3    3    0    0  0.42278099333E+02  0.92430907519E+02 -0.46033677136E+02  0.11157961184E+03  0.00000000000E+00 0. -1.
         22    1    3    3    0    0 -0.38625523320E+02 -0.15918592988E+02 -0.42945761627E+02  0.59913863972E+02  0.00000000000E+00 0. -1.
</event>
<event>
 7    1  0.5957303E-006  0.1108770E+03  0.7818608E-02  0.1266746E+00
          2   -1    0    0  502    0  0.00000000000E+00  0.00000000000E+00  0.14029884856E+04  0.14029884856E+04  0.00000000000E+00 0. -1.
          1   -1    0    0  501    0 -0.00000000000E+00 -0.00000000000E+00 -0.78806038525E+02  0.78806038525E+02  0.00000000000E+00 0. -1.
         25    2    1    2    0    0 -0.23121993555E+01 -0.54199400605E+01  0.14686355319E+03  0.19294826656E+03  0.12500163319E+03 0.  0.
          2    1    1    2  501    0 -0.10612912411E+03 -0.32098437048E+02  0.50681636729E+01  0.11099273367E+03  0.00000000000E+00 0. -1.
          1    1    1    2  502    0  0.10844132346E+03  0.37518377108E+02  0.11722507302E+04  0.11778535239E+04  0.00000000000E+00 0. -1.
         22    1    3    3    0    0 -0.61120190289E+02  0.13648428215E+02  0.84037277620E+02  0.10480563574E+03  0.00000000000E+00 0.  1.
         22    1    3    3    0    0  0.58807990933E+02 -0.19068368275E+02  0.62826275567E+02  0.88142630821E+02  0.00000000000E+00 0.  1.
</event>
<event>
 7    1  0.5957303E-006  0.1664763E+03  0.7818608E-02  0.1304289E+00
          2   -1    0    0  502    0  0.00000000000E+00  0.00000000000E+00  0.16128400899E+04  0.16128400899E+04  0.00000000000E+00 0. -1.
          1   -1    0    0  501    0 -0.00000000000E+00 -0.00000000000E+00 -0.21467175062E+03  0.21467175062E+03  0.00000000000E+00 0. -1.
         25    2    1    2    0    0  0.70217149713E+02 -0.10427109486E+03  0.11589204175E+04  0.11724007242E+04  0.12499605833E+03 0.  0.
          2    1    1    2  501    0 -0.70253334482E+02  0.15228978550E+03 -0.17248935007E+03  0.24058321983E+03  0.00000000000E+00 0. -1.
          1    1    1    2  502    0  0.36184768594E-01 -0.48018690639E+02  0.41173727188E+03  0.41452789654E+03  0.00000000000E+00 0. -1.
         22    1    3    3    0    0 -0.72406483432E+01  0.79670272035E+01  0.79584138096E+01  0.13387937155E+02  0.00000000000E+00 0.  1.
         22    1    3    3    0    0  0.77457798056E+02 -0.11223812207E+03  0.11509620037E+04  0.11590127870E+04  0.00000000000E+00 0.  1.
</event>
<event>
 7    1  0.5957303E-006  0.2648161E+03  0.7818608E-02  0.1215575E+00
          2   -1    0    0  502    0  0.00000000000E+00  0.00000000000E+00  0.19128899762E+04  0.19128899762E+04  0.00000000000E+00 0. -1.
          1   -1    0    0  501    0 -0.00000000000E+00 -0.00000000000E+00 -0.20754239434E+04  0.20754239434E+04  0.00000000000E+00 0. -1.
         25    2    1    2    0    0 -0.18644185463E+03 -0.17952603084E+03 -0.15856943689E+04  0.16115340578E+04  0.12500090743E+03 0.  0.
          2    1    1    2  501    0 -0.47219908743E+02  0.54714406176E+02 -0.46476945668E+03  0.47035522096E+03  0.00000000000E+00 0. -1.
          1    1    1    2  502    0  0.23366176338E+03  0.12481162466E+03  0.18879298583E+04  0.19064246409E+04  0.00000000000E+00 0. -1.
         22    1    3    3    0    0 -0.51379849868E+02 -0.52478718295E+02 -0.83714089427E+03  0.84035634210E+03  0.00000000000E+00 0. -1.
         22    1    3    3    0    0 -0.13506200477E+03 -0.12704731254E+03 -0.74855347465E+03  0.77117771568E+03  0.00000000000E+00 0. -1.
</event>
<event>
 7    1  0.5957303E-006  0.4657466E+02  0.7818608E-02  0.1514528E+00
          2   -1    0    0  502    0  0.00000000000E+00  0.00000000000E+00  0.29637993993E+03  0.29637993993E+03  0.00000000000E+00 0. -1.
          1   -1    0    0  501    0 -0.00000000000E+00 -0.00000000000E+00 -0.85799134547E+03  0.85799134547E+03  0.00000000000E+00 0. -1.
         25    2    1    2    0    0 -0.17271424268E+02 -0.35288776108E+01 -0.50294471092E+03  0.51854411042E+03  0.12499542846E+03 0.  0.
          2    1    1    2  501    0 -0.26687171302E+02  0.19268463776E+02 -0.34456882451E+03  0.34613747794E+03  0.00000000000E+00 0. -1.
          1    1    1    2  502    0  0.43958595570E+02 -0.15739586165E+02  0.28590212989E+03  0.28968969704E+03  0.00000000000E+00 0. -1.
         22    1    3    3    0    0 -0.63599333865E+02  0.28492018649E+02 -0.29346782723E+03  0.30162897078E+03  0.00000000000E+00 0. -1.
         22    1    3    3    0    0  0.46327909596E+02 -0.32020896260E+02 -0.20947688369E+03  0.21691513964E+03  0.00000000000E+00 0. -1.
</event>
<event>
 7    1  0.5957303E-006  0.1023753E+03  0.7818608E-02  0.1441345E+00
          2   -1    0    0  502    0  0.00000000000E+00  0.00000000000E+00  0.13745172617E+04  0.13745172617E+04  0.00000000000E+00 0. -1.
          1   -1    0    0  501    0 -0.00000000000E+00 -0.00000000000E+00 -0.17906314709E+03  0.17906314709E+03  0.00000000000E+00 0. -1.
         25    2    1    2    0    0 -0.10985423913E+03  0.16327981907E+02 -0.85116339889E+01  0.16742724385E+03  0.12499950889E+03 0.  0.
          2    1    1    2  501    0  0.99783788379E+02  0.67250808422E+01 -0.63481387021E+02  0.11845639550E+03  0.00000000000E+00 0. -1.
          1    1    1    2  502    0  0.10070450746E+02 -0.23053062750E+02  0.12674471357E+04  0.12676967695E+04  0.00000000000E+00 0. -1.
         22    1    3    3    0    0 -0.30200386918E+02  0.64295079246E+02  0.12436534102E+02  0.72115102203E+02  0.00000000000E+00 0. -1.
         22    1    3    3    0    0 -0.79653852207E+02 -0.47967097339E+02 -0.20948168091E+02  0.95312141645E+02  0.00000000000E+00 0. -1.
</event>
<event>
 7    1  0.5957303E-006  0.1791775E+03  0.7818608E-02  0.1224826E+00
          2   -1    0    0  502    0  0.00000000000E+00  0.00000000000E+00  0.30707002845E+03  0.30707002845E+03  0.00000000000E+00 0. -1.
          1   -1    0    0  501    0 -0.00000000000E+00 -0.00000000000E+00 -0.16159515467E+04  0.16159515467E+04  0.00000000000E+00 0. -1.
         25    2    1    2    0    0 -0.10666948143E+03 -0.57482009206E+02 -0.46679862742E+03  0.49820442748E+03  0.12499653335E+03 0.  0.
          2    1    1    2  501    0  0.70408265827E+01 -0.96676864043E+02 -0.11022028136E+04  0.11064569723E+04  0.00000000000E+00 0. -1.
          1    1    1    2  502    0  0.99628654844E+02  0.15415887325E+03  0.26011992274E+03  0.31836017539E+03  0.00000000000E+00 0. -1.
         22    1    3    3    0    0 -0.99752233129E+02 -0.54701119096E+02 -0.47422569820E+03  0.48768097490E+03  0.00000000000E+00 0.  1.
         22    1    3    3    0    0 -0.69172482982E+01 -0.27808901098E+01  0.74270707818E+01  0.10523452581E+02  0.00000000000E+00 0.  1.
</event>
<event>
 7    1  0.5957303E-006  0.7823787E+02  0.7818608E-02  0.1362160E+00
          2   -1    0    0  502    0  0.00000000000E+00  0.00000000000E+00  0.21511025105E+04  0.21511025105E+04  0.00000000000E+00 0. -1.
          1   -1    0    0  501    0 -0.00000000000E+00 -0.00000000000E+00 -0.70834700267E+02  0.70834700267E+02  0.00000000000E+00 0. -1.
         25    2    1    2    0    0 -0.11630734654E+03  0.42441309151E+02  0.23786669897E+03  0.29585907229E+03  0.12499344221E+03 0.  0.
          2    1    1    2  501    0  0.73506237489E+02  0.17949600332E+01 -0.86219494484E+01  0.74031931243E+02  0.00000000000E+00 0. -1.
          1    1    1    2  502    0  0.42801109053E+02 -0.44236269184E+02  0.18510230607E+04  0.18520462072E+04  0.00000000000E+00 0. -1.
         22    1    3    3    0    0 -0.12085785071E+03  0.75454393464E+02  0.18823323949E+03  0.23607570400E+03  0.00000000000E+00 0.  1.
         22    1    3    3    0    0  0.45505041665E+01 -0.33013084313E+02  0.49633459480E+02  0.59783368289E+02  0.00000000000E+00 0.  1.
</event>
<event>
 7    1  0.5957303E-006  0.2536085E+03  0.7818608E-02  0.1150676E+00
          2   -1    0    0  502    0  0.00000000000E+00  0.00000000000E+00  0.19701680104E+04  0.19701680104E+04  0.00000000000E+00 0. -1.
          1   -1    0    0  501    0 -0.00000000000E+00 -0.00000000000E+00 -0.81038256344E+02  0.81038256344E+02  0.00000000000E+00 0. -1.
         25    2    1    2    0    0 -0.38174577648E+02  0.17174011232E+03  0.89643454056E+03  0.92204823479E+03  0.12500438877E+03 0.  0.
          2    1    1    2  501    0  0.18560686505E+03 -0.22267776001E+03  0.29256070371E+03  0.41185805627E+03  0.00000000000E+00 0. -1.
          1    1    1    2  502    0 -0.14743228741E+03  0.50937647695E+02  0.70013450974E+03  0.71729997564E+03  0.00000000000E+00 0. -1.
         22    1    3    3    0    0 -0.80533084092E+02  0.74384778432E+02  0.44933208239E+03  0.46251269513E+03  0.00000000000E+00 0.  1.
         22    1    3    3    0    0  0.42358506444E+02  0.97355333886E+02  0.44710245817E+03  0.45953553966E+03  0.00000000000E+00 0.  1.
</event>
<event>
 7    1  0.5957303E-006  0.1400498E+03  0.7818608E-02  0.1358262E+00
          2   -1    0    0  502    0  0.00000000000E+00  0.00000000000E+00  0.94427171787E+03  0.94427171787E+03  0.00000000000E+00 0. -1.
          1   -1    0    0  501    0 -0.00000000000E+00 -0.00000000000E+00 -0.47841112945E+03  0.47841112945E+03  0.00000000000E+00 0. -1.
         25    2    1    2    0    0 -0.11526326887E+03  0.28573018504E+01 -0.72438162955E+02  0.18484082707E+03  0.12500023431E+03 0.  0.
          2    1    1    2  501    0 -0.24016022103E+02 -0.26185042475E+02 -0.34323466355E+03  0.34506877580E+03  0.00000000000E+00 0. -1.
          1    1    1    2  502    0  0.13927929098E+03  0.23327740625E+02  0.88153341493E+03  0.89277324445E+03  0.00000000000E+00 0. -1.
         22    1    3    3    0    0 -0.75124269559E+02  0.58458941169E+02 -0.17082142860E+02  0.96710409388E+02  0.00000000000E+00 0.  1.
         22    1    3    3    0    0 -0.40138999314E+02 -0.55601639319E+02 -0.55356020095E+02  0.88130417687E+02  0.00000000000E+00 0.  1.
</event>
<event>
 7    1  0.5957303E-006  0.5890404E+02  0.7818608E-02  0.1423759E+00
          2   -1    0    0  502    0  0.00000000000E+00  0.00000000000E+00  0.10788341094E+04  0.10788341094E+04  0.00000000000E+00 0. -1.
          1   -1    0    0  501    0 -0.00000000000E+00 -0.00000000000E+00 -0.59043314558E+02  0.59043314558E+02  0.00000000000E+00 0. -1.
         25    2    1    2    0    0 -0.33523549739E+02  0.72063355296E+02  0.82747911252E+03  0.84063237345E+03  0.12499660024E+03 0.  0.
          2    1    1    2  501    0 -0.14119194718E+02 -0.57112931002E+02 -0.32323441778E+02  0.67127069320E+02  0.00000000000E+00 0. -1.
          1    1    1    2  502    0  0.47642744457E+02 -0.14950424294E+02  0.22463512408E+03  0.23011798117E+03  0.00000000000E+00 0. -1.
         22    1    3    3    0    0 -0.13600560549E+02  0.93158374339E+02  0.35526999421E+03  0.36753261997E+03  0.00000000000E+00 0.  1.
         22    1    3    3    0    0 -0.19922989189E+02 -0.21095019043E+02  0.47220911832E+03  0.47309975349E+03  0.00000000000E+00 0.  1.
</event>
<event>
 7    1  0.5957303E-006  0.4533849E+02  0.7818608E-02  0.1497039E+00
          2   -1    0    0  502    0  0.00000000000E+00  0.00000000000E+00  0.26230770610E+03  0.26230770610E+03  0.00000000000E+00 0. -1.
          1   -1    0    0  501    0 -0.00000000000E+00 -0.00000000000E+00 -0.45540255512E+03  0.45540255512E+03  0.00000000000E+00 0. -1.
         25    2    1    2    0    0  0.85578829852E+01 -0.59744508214E+02 -0.12215605983E+03  0.18490603496E+03  0.12500198074E+03 0.  0.
          2    1    1    2  501    0 -0.31861800773E+02  0.20882868221E+02 -0.29842610231E+03  0.30084781381E+03  0.00000000000E+00 0. -1.
          1    1    1    2  502    0  0.23303917788E+02  0.38861639993E+02  0.22748731312E+03  0.23195641245E+03  0.00000000000E+00 0. -1.
         22    1    3    3    0    0 -0.38740965165E+01  0.10359473493E+02  0.21721972374E+02  0.24375631247E+02  0.00000000000E+00 0. -1.
         22    1    3    3    0    0  0.12431979502E+02 -0.70103981707E+02 -0.14387803220E+03  0.16053040371E+03  0.00000000000E+00 0. -1.
</event>
<event>
 7    1  0.5957303E-006  0.4276015E+02  0.7818608E-02  0.1604365E+00
          2   -1    0    0  502    0  0.00000000000E+00  0.00000000000E+00  0.93622597299E+03  0.93622597299E+03  0.00000000000E+00 0. -1.
          1   -1    0    0  501    0 -0.00000000000E+00 -0.00000000000E+00 -0.14294401074E+04  0.14294401074E+04  0.00000000000E+00 0. -1.
         25    2    1    2    0    0  0.26504964939E+02 -0.22097699435E+02 -0.67700395764E+03  0.68931146110E+03  0.12500044103E+03 0.  0.
          2    1    1    2  501    0 -0.10274258063E+02 -0.17471850202E+02 -0.74565293207E+03  0.74592836186E+03  0.00000000000E+00 0. -1.
          1    1    1    2  502    0 -0.16230706876E+02  0.39569549637E+02  0.92944275530E+03  0.93042625742E+03  0.00000000000E+00 0. -1.
         22    1    3    3    0    0  0.20848590048E+02 -0.59895545364E+02 -0.18010512727E+03  0.19094501022E+03  0.00000000000E+00 0. -1.
         22    1    3    3    0    0  0.56563748910E+01  0.37797845929E+02 -0.49689883037E+03  0.49836645088E+03  0.00000000000E+00 0. -1.
</event>
<event>
 7    1  0.5957303E-006  0.2703290E+02  0.7818608E-02  0.1640150E+00
          2   -1    0    0  502    0  0.00000000000E+00  0.00000000000E+00  0.12092144484E+03  0.12092144484E+03  0.00000000000E+00 0. -1.
          1   -1    0    0  501    0 -0.00000000000E+00 -0.00000000000E+00 -0.28406139451E+03  0.28406139451E+03  0.00000000000E+00 0. -1.
         25    2    1    2    0    0  0.48143251548E+00 -0.16805319386E+01 -0.17191889029E+03  0.21256934733E+03  0.12500626632E+03 0.  0.
          2    1    1    2  501    0 -0.12670878146E+02  0.25809252090E+02 -0.87661359038E+02  0.92256070341E+02  0.00000000000E+00 0. -1.
          1    1    1    2  502    0  0.12189445631E+02 -0.24128720151E+02  0.96440299652E+02  0.10015742168E+03  0.00000000000E+00 0. -1.
         22    1    3    3    0    0 -0.19296045805E+02  0.47447602837E+02 -0.26216414843E+02  0.57540531853E+02  0.00000000000E+00 0.  1.
         22    1    3    3    0    0  0.19777478321E+02 -0.49128134776E+02 -0.14570247545E+03  0.15502881547E+03  0.00000000000E+00 0.  1.
</event>
<event>
 7    1  0.5957303E-006  0.5488116E+02  0.7818608E-02  0.1466455E+00
          2   -1    0    0  502    0  0.00000000000E+00  0.00000000000E+00  0.69063520955E+03  0.69063520955E+03  0.00000000000E+00 0. -1.
          1   -1    0    0  501    0 -0.00000000000E+00 -0.00000000000E+00 -0.39329009920E+03  0.39329009920E+03  0.00000000000E+00 0. -1.
         25    2    1    2    0    0 -0.36670364872E+02 -0.24736293187E+02 -0.22647655215E+03  0.26244233758E+03  0.12501100759E+03 0.  0.
          2    1    1    2  501    0 -0.17358218140E+02  0.34969858982E+02 -0.14512264154E+03  0.15028233383E+03  0.00000000000E+00 0. -1.
          1    1    1    2  502    0  0.54028583013E+02 -0.10233565796E+02  0.66894430404E+03  0.67120063734E+03  0.00000000000E+00 0. -1.
         22    1    3    3    0    0  0.26863486750E+02 -0.52433483857E+02 -0.13801062740E+03  0.15005948962E+03  0.00000000000E+00 0. -1.
         22    1    3    3    0    0 -0.63533851622E+02  0.27697190670E+02 -0.88465924754E+02  0.11238284796E+03  0.00000000000E+00 0. -1.
</event>
<event>
 7    1  0.5957303E-006  0.5115563E+02  0.7818608E-02  0.1475522E+00
          2   -1    0    0  502    0  0.00000000000E+00  0.00000000000E+00  0.39587032981E+04  0.39587032981E+04  0.00000000000E+00 0. -1.
          1   -1    0    0  501    0 -0.00000000000E+00 -0.00000000000E+00 -0.52289966550E+03  0.52289966550E+03  0.00000000000E+00 0. -1.
         25    2    1    2    0    0  0.40427896371E+01  0.18008713493E+02  0.14750032305E+04  0.14804064461E+04  0.12501223050E+03 0.  0.
          2    1    1    2  501    0 -0.41376912913E+02 -0.30134731539E+02 -0.51878312648E+03  0.52130229550E+03  0.00000000000E+00 0. -1.
          1    1    1    2  502    0  0.37334123276E+02  0.12126018046E+02  0.24795835286E+04  0.24798942221E+04  0.00000000000E+00 0. -1.
         22    1    3    3    0    0  0.35752313804E+02  0.47429971854E+02  0.38586451624E+03  0.39040908681E+03  0.00000000000E+00 0.  1.
         22    1    3    3    0    0 -0.31709524167E+02 -0.29421258361E+02  0.10891387142E+04  0.10899973593E+04  0.00000000000E+00 0.  1.
</event>
<event>
 7    1  0.5957303E-006  0.2931984E+02  0.7818608E-02  0.1615088E+00
          2   -1    0    0  502    0  0.00000000000E+00  0.00000000000E+00  0.85199852045E+02  0.85199852045E+02  0.00000000000E+00 0. -1.
          1   -1    0    0  501    0 -0.00000000000E+00 -0.00000000000E+00 -0.62276421964E+03  0.62276421964E+03  0.00000000000E+00 0. -1.
         25    2    1    2    0    0 -0.34774995792E+02 -0.38000096534E+02 -0.53624882677E+02  0.14543751458E+03  0.12499253952E+03 0.  0.
          2    1    1    2  501    0  0.25352736795E+02  0.11247153849E+02 -0.51769446703E+03  0.51843690158E+03  0.00000000000E+00 0. -1.
          1    1    1    2  502    0  0.94222589968E+01  0.26752942685E+02  0.33754982109E+02  0.44089655522E+02  0.00000000000E+00 0. -1.
         22    1    3    3    0    0 -0.54451736389E+02  0.86040830588E+01 -0.72817499811E+02  0.91331320585E+02  0.00000000000E+00 0. -1.
         22    1    3    3    0    0  0.19676740597E+02 -0.46604179593E+02  0.19192617134E+02  0.54106193994E+02  0.00000000000E+00 0. -1.
</event>
<event>
 7    1  0.5957303E-006  0.3631189E+02  0.7818608E-02  0.1604331E+00
          2   -1    0    0  502    0  0.00000000000E+00  0.00000000000E+00  0.18374258062E+04  0.18374258062E+04  0.00000000000E+00 0. -1.
          1   -1    0    0  501    0 -0.00000000000E+00 -0.00000000000E+00 -0.18940964742E+04  0.18940964742E+04  0.00000000000E+00 0. -1.
         25    2    1    2    0    0 -0.39241550040E+02 -0.29596363019E+02  0.42723814939E+03  0.44785425126E+03  0.12500060049E+03 0.  0.
          2    1    1    2  501    0  0.15583703815E+02  0.32794677573E+02 -0.18835116614E+04  0.18838615983E+04  0.00000000000E+00 0. -1.
          1    1    1    2  502    0  0.23657846225E+02 -0.31983145537E+01  0.13996028440E+04  0.13998064309E+04  0.00000000000E+00 0. -1.
         22    1    3    3    0    0 -0.51825598939E+02 -0.34087930055E+02  0.84337279736E+02  0.10469315371E+03  0.00000000000E+00 0. -1.
         22    1    3    3    0    0  0.12584048899E+02  0.44915670353E+01  0.34290086965E+03  0.34316109755E+03  0.00000000000E+00 0. -1.
</event>
<event>
 7    1  0.5957303E-006  0.3137219E+02  0.7818608E-02  0.1613645E+00
          2   -1    0    0  502    0  0.00000000000E+00  0.00000000000E+00  0.32505222502E+03  0.32505222502E+03  0.00000000000E+00 0. -1.
          1   -1    0    0  501    0 -0.00000000000E+00 -0.00000000000E+00 -0.23709357381E+03  0.23709357381E+03  0.00000000000E+00 0. -1.
         25    2    1    2    0    0  0.28329190857E+02  0.37039140731E+01  0.10518433768E+03  0.16584531268E+03  0.12499864324E+03 0.  0.
          2    1    1    2  501    0 -0.22701328820E+02  0.21826068001E+02 -0.20465145078E+03  0.20706024216E+03  0.00000000000E+00 0. -1.
          1    1    1    2  502    0 -0.56278620363E+01 -0.25529982074E+02  0.18742576431E+03  0.18924024399E+03  0.00000000000E+00 0. -1.
         22    1    3    3    0    0  0.19543472038E+02  0.62427678417E+01  0.13402665884E+03  0.13558784876E+03  0.00000000000E+00 0. -1.
         22    1    3    3    0    0  0.87857188185E+01 -0.25388537686E+01 -0.28842321159E+02  0.30257463930E+02  0.00000000000E+00 0. -1.
</event>
<event>
 7    1  0.5957303E-006  0.1496112E+03  0.7818608E-02  0.1224150E+00
          2   -1    0    0  502    0  0.00000000000E+00  0.00000000000E+00  0.14067915144E+04  0.14067915144E+04  0.00000000000E+00 0. -1.
          1   -1    0    0  501    0 -0.00000000000E+00 -0.00000000000E+00 -0.94824823202E+03  0.94824823202E+03  0.00000000000E+00 0. -1.
         25    2    1    2    0    0  0.30200370576E+02 -0.15906099751E+02  0.50301998637E+03  0.51944290847E+03  0.12500704813E+03 0.  0.
          2    1    1    2  501    0 -0.13695216837E+03  0.63569693532E+02 -0.93010756080E+03  0.94228290710E+03  0.00000000000E+00 0. -1.
          1    1    1    2  502    0  0.10675179779E+03 -0.47663593782E+02  0.88563085683E+03  0.89331393087E+03  0.00000000000E+00 0. -1.
         22    1    3    3    0    0  0.28417693524E+01 -0.58149979255E+02  0.40592674646E+03  0.41008050336E+03  0.00000000000E+00 0. -1.
         22    1    3    3    0    0  0.27358601224E+02  0.42243879505E+02  0.97093239911E+02  0.10936240512E+03  0.00000000000E+00 0. -1.
</event>
<event>
 7    1  0.5957303E-006  0.2352912E+03  0.7818608E-02  0.1183620E+00
          2   -1    0    0  502    0  0.00000000000E+00  0.00000000000E+00  0.79729059920E+03  0.79729059920E+03  0.00000000000E+00 0. -1.
          1   -1    0    0  501    0 -0.00000000000E+00 -0.00000000000E+00 -0.24576482079E+04  0.24576482079E+04  0.00000000000E+00 0. -1.
         25    2    1    2    0    0  0.31338868641E+03  0.51564665971E+02  0.26570912220E+03  0.43254629758E+03  0.12499431342E+03 0.  0.
          2    1    1    2  501    0 -0.23220647129E+03  0.30057773802E+02 -0.23609489924E+04  0.23725310240E+04  0.00000000000E+00 0. -1.
          1    1    1    2  502    0 -0.81182215119E+02 -0.81622439773E+02  0.43488226154E+03  0.44986148549E+03  0.00000000000E+00 0. -1.
         22    1    3    3    0    0  0.17697246505E+03  0.44111809328E+02  0.73296471656E+02  0.19656418256E+03  0.00000000000E+00 0.  1.
         22    1    3    3    0    0  0.13641622136E+03  0.74528566428E+01  0.19241265054E+03  0.23598211502E+03  0.00000000000E+00 0.  1.
</event>
<event>
 7    1  0.5957303E-006  0.1214747E+03  0.7818608E-02  0.1315536E+00
          2   -1    0    0  502    0  0.00000000000E+00  0.00000000000E+00  0.16402181579E+03  0.16402181579E+03  0.00000000000E+00 0. -1.
          1   -1    0    0  501    0 -0.00000000000E+00 -0.00000000000E+00 -0.49492124436E+03  0.49492124436E+03  0.00000000000E+00 0. -1.
         25    2    1    2    0    0  0.73130143862E+02 -0.39949668578E+02 -0.10227522409E+03  0.18173791056E+03  0.12499781083E+03 0.  0.
          2    1    1    2  501    0  0.56934146103E+02  0.17013752424E+02 -0.31424152811E+03  0.31981041690E+03  0.00000000000E+00 0. -1.
          1    1    1    2  502    0 -0.13006428997E+03  0.22935916154E+02  0.85617323627E+02  0.15739473269E+03  0.00000000000E+00 0. -1.
         22    1    3    3    0    0  0.65742944409E+01  0.10040137791E+02  0.26106552792E+02  0.28732869904E+02  0.00000000000E+00 0. -1.
         22    1    3    3    0    0  0.66555849422E+02 -0.49989806369E+02 -0.12838177688E+03  0.15300504066E+03  0.00000000000E+00 0. -1.
</event>
<event>
 7    1  0.5957303E-006  0.1319296E+03  0.7818608E-02  0.1369349E+00
          2   -1    0    0  502    0  0.00000000000E+00  0.00000000000E+00  0.71075602425E+03  0.71075602425E+03  0.00000000000E+00 0. -1.
          1   -1    0    0  501    0 -0.00000000000E+00 -0.00000000000E+00 -0.72807758679E+02  0.72807758679E+02  0.00000000000E+00 0. -1.
         25    2    1    2    0    0 -0.12613216039E+03 -0.82497409416E+02  0.18179087721E+03  0.26716976464E+03  0.12496645812E+03 0.  0.
          2    1    1    2  501    0  0.33699839891E+02 -0.68075136922E+01 -0.75537547233E+01  0.35200577577E+02  0.00000000000E+00 0. -1.
          1    1    1    2  502    0  0.92432320498E+02  0.89304923108E+02  0.46371114309E+03  0.48119344071E+03  0.00000000000E+00 0. -1.
         22    1    3    3    0    0 -0.35853193518E+02 -0.93410018844E+02  0.12437491087E+03  0.15962456440E+03  0.00000000000E+00 0.  1.
         22    1    3    3    0    0 -0.90278966871E+02  0.10912609428E+02  0.57415966337E+02  0.10754520024E+03  0.00000000000E+00 0.  1.
</event>
<event>
 7    1  0.5957303E-006  0.4784917E+02  0.7818608E-02  0.1465696E+00
          2   -1    0    0  502    0  0.00000000000E+00  0.00000000000E+00  0.60051735746E+03  0.60051735746E+03  0.00000000000E+00 0. -1.
          1   -1    0    0  501    0 -0.00000000000E+00 -0.00000000000E+00 -0.25573046879E+03  0.25573046879E+03  0.00000000000E+00 0. -1.
         25    2    1    2    0    0  0.80537840426E+02  0.22309368075E+02 -0.24865903584E+02  0.15240656498E+03  0.12500158496E+03 0.  0.
          2    1    1    2  501    0 -0.45907759141E+02  0.64641253483E+01 -0.16291022807E+03  0.16937842152E+03  0.00000000000E+00 0. -1.
          1    1    1    2  502    0 -0.34630081285E+02 -0.28773493423E+02  0.53256302033E+03  0.53446283975E+03  0.00000000000E+00 0. -1.
         22    1    3    3    0    0  0.99031348972E+02  0.28810062735E+02 -0.54672367985E+02  0.11673172497E+03  0.00000000000E+00 0.  1.
         22    1    3    3    0    0 -0.18493508547E+02 -0.65006946602E+01  0.29806464401E+02  0.35674840007E+02  0.00000000000E+00 0.  1.
</event>
<event>
 7    1  0.5957303E-006  0.1078432E+03  0.7818608E-02  0.1344124E+00
          2   -1    0    0  502    0  0.00000000000E+00  0.00000000000E+00  0.13963070201E+04  0.13963070201E+04  0.00000000000E+00 0. -1.
          1   -1    0    0  501    0 -0.00000000000E+00 -0.00000000000E+00 -0.57259550150E+03  0.57259550150E+03  0.00000000000E+00 0. -1.
         25    2    1    2    0    0  0.35588151164E+02 -0.14117864908E+03  0.34690071709E+03  0.39643773632E+03  0.12499937520E+03 0.  0.
          2    1    1    2  501    0  0.39355822984E+01  0.10731681729E+03 -0.54189349446E+03  0.55243184866E+03  0.00000000000E+00 0. -1.
          1    1    1    2  502    0 -0.39523733462E+02  0.33861831799E+02  0.10187042960E+04  0.10200329367E+04  0.00000000000E+00 0. -1.
         22    1    3    3    0    0  0.83007256361E+01 -0.30808924163E+02  0.23415873182E+03  0.23632266828E+03  0.00000000000E+00 0.  1.
         22    1    3    3    0    0  0.27287425528E+02 -0.11036972492E+03  0.11274198527E+03  0.16011506804E+03  0.00000000000E+00 0.  1.
</event>
<event>
 7    1  0.5957303E-006  0.1698690E+03  0.7818608E-02  0.1356847E+00
          2   -1    0    0  502    0  0.00000000000E+00  0.00000000000E+00  0.88822979957E+03  0.88822979957E+03  0.00000000000E+00 0. -1.
          1   -1    0    0  501    0 -0.00000000000E+00 -0.00000000000E+00 -0.73744746754E+03  0.73744746754E+03  0.00000000000E+00 0. -1.
         25    2    1    2    0    0  0.82703939646E+02 -0.15964832427E+03 -0.11953273844E+03  0.24948539658E+03  0.12500943353E+03 0.  0.
          2    1    1    2  501    0 -0.29615584967E+02 -0.13253580268E+01 -0.54380559249E+03  0.54461303865E+03  0.00000000000E+00 0. -1.
          1    1    1    2  502    0 -0.53088354679E+02  0.16097368229E+03  0.81412066296E+03  0.83157883189E+03  0.00000000000E+00 0. -1.
         22    1    3    3    0    0  0.45874295163E+02 -0.10525212501E+03 -0.13964420332E+03  0.18078430324E+03  0.00000000000E+00 0.  1.
         22    1    3    3    0    0  0.36829644483E+02 -0.54396199260E+02  0.20111464881E+02  0.68701093342E+02  0.00000000000E+00 0.  1.
</event>
<event>
 7    1  0.5957303E-006  0.9093479E+02  0.7818608E-02  0.1332362E+00
          2   -1    0    0  502    0  0.00000000000E+00  0.00000000000E+00  0.21636146590E+04  0.21636146590E+04  0.00000000000E+00 0. -1.
          1   -1    0    0  501    0 -0.00000000000E+00 -0.00000000000E+00 -0.91319277558E+03  0.91319277558E+03  0.00000000000E+00 0. -1.
         25    2    1    2    0    0 -0.33924290272E+02  0.58031189453E+02  0.37032645388E+02  0.14666532451E+03  0.12498329557E+03 0.  0.
          2    1    1    2  501    0 -0.27546405820E+02 -0.87943378437E+02 -0.85533667672E+03  0.86028697120E+03  0.00000000000E+00 0. -1.
          1    1    1    2  502    0  0.61470696092E+02  0.29912188984E+02  0.20687259148E+04  0.20698551389E+04  0.00000000000E+00 0. -1.
         22    1    3    3    0    0  0.10348512342E+02  0.36042959759E+01 -0.40584810021E+02  0.42038190513E+02  0.00000000000E+00 0. -1.
         22    1    3    3    0    0 -0.44272802614E+02  0.54426893477E+02  0.77617455409E+02  0.10462713400E+03  0.00000000000E+00 0. -1.
</event>
<event>
 7    1  0.5957303E-006  0.5404720E+02  0.7818608E-02  0.1491558E+00
          2   -1    0    0  502    0  0.00000000000E+00  0.00000000000E+00  0.37855098967E+04  0.37855098967E+04  0.00000000000E+00 0. -1.
          1   -1    0    0  501    0 -0.00000000000E+00 -0.00000000000E+00 -0.42737995534E+03  0.42737995534E+03  0.00000000000E+00 0. -1.
         25    2    1    2    0    0 -0.25737761634E+02 -0.54529465247E+02  0.13172132808E+03  0.19133983345E+03  0.12499811455E+03 0.  0.
          2    1    1    2  501    0 -0.20338051784E+02  0.26233027343E+02 -0.39667578539E+03  0.39806216448E+03  0.00000000000E+00 0. -1.
          1    1    1    2  502    0  0.46075813418E+02  0.28296437903E+02  0.36230843987E+04  0.36234878541E+04  0.00000000000E+00 0. -1.
         22    1    3    3    0    0 -0.66731841296E+02 -0.58131484559E+02  0.11893016507E+03  0.14824571597E+03  0.00000000000E+00 0. -1.
         22    1    3    3    0    0  0.40994079662E+02  0.36020193125E+01  0.12791163006E+02  0.43094117482E+02  0.00000000000E+00 0. -1.
</event>
<event>
 7    1  0.5957303E-006  0.2370247E+03  0.7818608E-02  0.1212231E+00
          2   -1    0    0  502    0  0.00000000000E+00  0.00000000000E+00  0.11027611156E+03  0.11027611156E+03  0.00000000000E+00 0. -1.
          1   -1    0    0  501    0 -0.00000000000E+00 -0.00000000000E+00 -0.24076209083E+04  0.24076209083E+04  0.00000000000E+00 0. -1.
         25    2    1    2    0    0  0.15441327154E+03 -0.25934417535E+03 -0.12991877690E+04  0.13396328799E+04  0.12499813564E+03 0.  0.
          2    1    1    2  501    0 -0.70418856457E+02  0.45173065459E+02 -0.93631341688E+03  0.94004374143E+03  0.00000000000E+00 0. -1.
          1    1    1    2  502    0 -0.83994415087E+02  0.21417110989E+03 -0.61843610790E+02  0.23822039852E+03  0.00000000000E+00 0. -1.
         22    1    3    3    0    0  0.13204423392E+03 -0.16022709010E+03 -0.64480230553E+03  0.67740564902E+03  0.00000000000E+00 0.  1.
         22    1    3    3    0    0  0.22369037627E+02 -0.99117085243E+02 -0.65438546350E+03  0.66222723084E+03  0.00000000000E+00 0.  1.
</event>
<event>
 7    1  0.5957303E-006  0.8483712E+02  0.7818608E-02  0.1393036E+00
          2   -1    0    0  502    0  0.00000000000E+00  0.00000000000E+00  0.29499546659E+04  0.29499546659E+04  0.00000000000E+00 0. -1.
          1   -1    0    0  501    0 -0.00000000000E+00 -0.00000000000E+00 -0.27572639393E+02  0.27572639393E+02  0.00000000000E+00 0. -1.
         25    2    1    2    0    0  0.43872842433E+02 -0.51461145764E+02  0.45276709395E+03  0.47454815407E+03  0.12499933338E+03 0.  0.
          2    1    1    2  501    0  0.37841866511E+02  0.22621396317E+02  0.14610229805E+02  0.46445594488E+02  0.00000000000E+00 0. -1.
          1    1    1    2  502    0 -0.81714708945E+02  0.28839749447E+02  0.24550047027E+04  0.24565335567E+04  0.00000000000E+00 0. -1.
         22    1    3    3    0    0  0.12023614245E+02  0.41216509638E+02  0.16762174280E+03  0.17303299288E+03  0.00000000000E+00 0.  1.
         22    1    3    3    0    0  0.31849228188E+02 -0.92677655402E+02  0.28514535115E+03  0.30151516120E+03  0.00000000000E+00 0.  1.
</event>
<event>
 7    1  0.7092714E-006  0.2128689E+03  0.7818608E-02  0.1268425E+00
          2   -1    0    0  502    0  0.00000000000E+00  0.00000000000E+00  0.17018049189E+04  0.17018049189E+04  0.00000000000E+00 0. -1.
          1   -1    0    0  501    0 -0.00000000000E+00 -0.00000000000E+00 -0.14196755310E+04  0.14196755310E+04  0.00000000000E+00 0. -1.
         25    2    1    2    0    0  0.16054001996E+03 -0.22031749173E+02 -0.34326353592E+03  0.39964132236E+03  0.12499934183E+03 0.  0.
          2    1    1    2  501    0  0.52501136383E+02  0.39449660185E+01 -0.10407263691E+04  0.10420572477E+04  0.00000000000E+00 0. -1.
          1    1    1    2  502    0 -0.21304115634E+03  0.18086783155E+02  0.16661192929E+04  0.16797818800E+04  0.00000000000E+00 0. -1.
         22    1    3    3    0    0  0.12204720997E+01 -0.17048162152E+02 -0.14141506761E+03  0.14244420217E+03  0.00000000000E+00 0.  1.
         22    1    3    3    0    0  0.15931954786E+03 -0.49835870207E+01 -0.20184846831E+03  0.25719712018E+03  0.00000000000E+00 0.  1.
</event>
<event>
 7    1  0.5957303E-006  0.3941154E+02  0.7818608E-02  0.1514657E+00
          2   -1    0    0  502    0  0.00000000000E+00  0.00000000000E+00  0.11808656907E+04  0.11808656907E+04  0.00000000000E+00 0. -1.
          1   -1    0    0  501    0 -0.00000000000E+00 -0.00000000000E+00 -0.36311548599E+03  0.36311548599E+03  0.00000000000E+00 0. -1.
         25    2    1    2    0    0 -0.13046515294E+02 -0.50920247680E+02  0.43418286621E+03  0.45486663153E+03  0.12500323192E+03 0.  0.
          2    1    1    2  501    0 -0.21471880026E+02  0.33060015550E+02 -0.35115710859E+03  0.35336287464E+03  0.00000000000E+00 0. -1.
          1    1    1    2  502    0  0.34518395320E+02  0.17860232129E+02  0.73472444706E+03  0.73575167048E+03  0.00000000000E+00 0. -1.
         22    1    3    3    0    0 -0.17779361450E+02 -0.22847782510E+02  0.42345546312E+03  0.42444393753E+03  0.00000000000E+00 0. -1.
         22    1    3    3    0    0  0.47328461554E+01 -0.28072465170E+02  0.10727403086E+02  0.30422694003E+02  0.00000000000E+00 0. -1.
</event>
<event>
 7    1  0.5957303E-006  0.4772300E+02  0.7818608E-02  0.1463964E+00
          2   -1    0    0  502    0  0.00000000000E+00  0.00000000000E+00  0.16733798442E+04  0.16733798442E+04  0.00000000000E+00 0. -1.
          1   -1    0    0  501    0 -0.00000000000E+00 -0.00000000000E+00 -0.16825413822E+03  0.16825413822E+03  0.00000000000E+00 0. -1.
         25    2    1    2    0    0 -0.37191090020E+02 -0.18701256866E+02  0.16514973119E+03  0.21126437386E+03  0.12500115104E+03 0.  0.
          2    1    1    2  501    0  0.34975172992E+02 -0.29431211815E+02 -0.14119769633E+03  0.14841242672E+03  0.00000000000E+00 0. -1.
          1    1    1    2  502    0  0.22159170276E+01  0.48132468680E+02  0.14811736711E+04  0.14819571818E+04  0.00000000000E+00 0. -1.
         22    1    3    3    0    0  0.14808365088E+01 -0.15088288347E+02 -0.18290731425E+02  0.23757107948E+02  0.00000000000E+00 0. -1.
         22    1    3    3    0    0 -0.38671926529E+02 -0.36129685188E+01  0.18344046262E+03  0.18750726591E+03  0.00000000000E+00 0. -1.
</event>
<event>
 7    1  0.5957303E-006  0.8973371E+02  0.7818608E-02  0.1420526E+00
          2   -1    0    0  502    0  0.00000000000E+00  0.00000000000E+00  0.15711612825E+04  0.15711612825E+04  0.00000000000E+00 0. -1.
          1   -1    0    0  501    0 -0.00000000000E+00 -0.00000000000E+00 -0.15830058326E+04  0.15830058326E+04  0.00000000000E+00 0. -1.
         25    2    1    2    0    0  0.65035920664E+02  0.56311956304E+02 -0.61610903953E+02  0.16377658139E+03  0.12500463082E+03 0.  0.
          2    1    1    2  501    0 -0.23932342208E+02  0.23584596530E+02 -0.14687920627E+04  0.14691763385E+04  0.00000000000E+00 0. -1.
          1    1    1    2  502    0 -0.41103578457E+02 -0.79896552834E+02  0.15185584165E+04  0.15212141952E+04  0.00000000000E+00 0. -1.
         22    1    3    3    0    0 -0.35990361632E+02  0.17732730259E+02 -0.32905926533E+02  0.51889843455E+02  0.00000000000E+00 0.  1.
         22    1    3    3    0    0  0.10102628230E+03  0.38579226046E+02 -0.28704977420E+02  0.11188673793E+03  0.00000000000E+00 0.  1.
</event>
<event>
 7    1  0.5957303E-006  0.9020002E+02  0.7818608E-02  0.1476374E+00
          2   -1    0    0  502    0  0.00000000000E+00  0.00000000000E+00  0.46459980677E+03  0.46459980677E+03  0.00000000000E+00 0. -1.
          1   -1    0    0  501    0 -0.00000000000E+00 -0.00000000000E+00 -0.34108988554E+03  0.34108988554E+03  0.00000000000E+00 0. -1.
         25    2    1    2    0    0 -0.56108949794E+02  0.84284254528E+02 -0.10666784952E+03  0.19301733112E+03  0.12500244071E+03 0.  0.
          2    1    1    2  501    0  0.34225500468E+02 -0.81002948998E+02 -0.18082545533E+03  0.20107388673E+03  0.00000000000E+00 0. -1.
          1    1    1    2  502    0  0.21883449326E+02 -0.32813055302E+01  0.41100322608E+03  0.41159847445E+03  0.00000000000E+00 0. -1.
         22    1    3    3    0    0 -0.60646955247E+02 -0.67405309944E+01 -0.74655889847E+02  0.96420899330E+02  0.00000000000E+00 0.  1.
         22    1    3    3    0    0  0.45380054531E+01  0.91024785522E+02 -0.32011959676E+02  0.96596431793E+02  0.00000000000E+00 0.  1.
</event>
<event>
 7    1  0.5957303E-006  0.5881070E+02  0.7818608E-02  0.1418504E+00
          2   -1    0    0  502    0  0.00000000000E+00  0.00000000000E+00  0.12248646306E+04  0.12248646306E+04  0.00000000000E+00 0. -1.
          1   -1    0    0  501    0 -0.00000000000E+00 -0.00000000000E+00 -0.35841550115E+03  0.35841550115E+03  0.00000000000E+00 0. -1.
         25    2    1    2    0    0  0.63449640653E+02  0.26261717198E+02 -0.31198982957E+03  0.34304228307E+03  0.12499927812E+03 0.  0.
          2    1    1    2  501    0 -0.43248992461E+02  0.28999997226E+02 -0.77020989290E+01  0.52638365437E+02  0.00000000000E+00 0. -1.
          1    1    1    2  502    0 -0.20200648191E+02 -0.55261714424E+02  0.11861410579E+04  0.11875994832E+04  0.00000000000E+00 0. -1.
         22    1    3    3    0    0  0.90333494840E+02  0.64154313478E+01 -0.28801077696E+03  0.30191307639E+03  0.00000000000E+00 0.  1.
         22    1    3    3    0    0 -0.26883854187E+02  0.19846285850E+02 -0.23979052603E+02  0.41129206676E+02  0.00000000000E+00 0.  1.
</event>
<event>
 7    1  0.5957303E-006  0.1128790E+03  0.7818608E-02  0.1298973E+00
          2   -1    0    0  502    0  0.00000000000E+00  0.00000000000E+00  0.14956769965E+04  0.14956769965E+04  0.00000000000E+00 0. -1.
          1   -1    0    0  501    0 -0.00000000000E+00 -0.00000000000E+00 -0.78914828772E+02  0.78914828772E+02  0.00000000000E+00 0. -1.
         25    2    1    2    0    0 -0.98730371084E+02 -0.12367359299E+03  0.10552201889E+03  0.22760030243E+03  0.12499662963E+03 0.  0.
          2    1    1    2  501    0  0.48835177282E+02  0.68530124853E+02  0.88972731239E+02  0.12246387001E+03  0.00000000000E+00 0. -1.
          1    1    1    2  502    0  0.49895193802E+02  0.55143468134E+02  0.12222674176E+04  0.12245276528E+04  0.00000000000E+00 0. -1.
         22    1    3    3    0    0  0.13764386278E+02 -0.67881474557E+02  0.66721579991E+02  0.96172356497E+02  0.00000000000E+00 0. -1.
         22    1    3    3    0    0 -0.11249475736E+03 -0.55792118431E+02  0.38800438899E+02  0.13142794593E+03  0.00000000000E+00 0. -1.
</event>
<event>
 7    1  0.5957303E-006  0.9528355E+02  0.7818608E-02  0.1317404E+00
          2   -1    0    0  502    0  0.00000000000E+00  0.00000000000E+00  0.74847911940E+02  0.74847911940E+02  0.00000000000E+00 0. -1.
          1   -1    0    0  501    0 -0.00000000000E+00 -0.00000000000E+00 -0.14027780594E+04  0.14027780594E+04  0.00000000000E+00 0. -1.
         25    2    1    2    0    0 -0.78686310975E+02 -0.32833749507E+02 -0.22405203695E+03  0.27035898102E+03  0.12500029086E+03 0.  0.
          2    1    1    2  501    0  0.89734164120E+02 -0.40837394677E+02 -0.11254120253E+04  0.11297221515E+04  0.00000000000E+00 0. -1.
          1    1    1    2  502    0 -0.11047853145E+02  0.73671144184E+02  0.21533914733E+02  0.77544838824E+02  0.00000000000E+00 0. -1.
         22    1    3    3    0    0 -0.63769777707E+02 -0.28309271765E+02 -0.23887059928E+03  0.24885168799E+03  0.00000000000E+00 0. -1.
         22    1    3    3    0    0 -0.14916533268E+02 -0.45244777422E+01  0.14818562334E+02  0.21507293024E+02  0.00000000000E+00 0. -1.
</event>
<event>
 7    1  0.5957303E-006  0.7823557E+02  0.7818608E-02  0.1422508E+00
          2   -1    0    0  502    0  0.00000000000E+00  0.00000000000E+00  0.69835642597E+03  0.69835642597E+03  0.00000000000E+00 0. -1.
          1   -1    0    0  501    0 -0.00000000000E+00 -0.00000000000E+00 -0.18425639855E+03  0.18425639855E+03  0.00000000000E+00 0. -1.
         25    2    1    2    0    0  0.74344648718E+01  0.47742465112E+02  0.89682582099E+02  0.16125530609E+03  0.12500277584E+03 0.  0.
          2    1    1    2  501    0  0.29147231745E+02  0.24313656543E+02 -0.14313432551E+03  0.14808156588E+03  0.00000000000E+00 0. -1.
          1    1    1    2  502    0 -0.36581696617E+02 -0.72056121655E+02  0.56755177083E+03  0.57327595255E+03  0.00000000000E+00 0. -1.
         22    1    3    3    0    0 -0.97324878779E+01  0.88451197261E+02  0.68285795593E+02  0.11216632960E+03  0.00000000000E+00 0.  1.
         22    1    3    3    0    0  0.17166952750E+02 -0.40708732149E+02  0.21396786506E+02  0.49088976488E+02  0.00000000000E+00 0.  1.
</event>
<event>
 7    1  0.5957303E-006  0.8485373E+02  0.7818608E-02  0.1324232E+00
          2   -1    0    0  502    0  0.00000000000E+00  0.00000000000E+00  0.83705010942E+03  0.83705010942E+03  0.00000000000E+00 0. -1.
          1   -1    0    0  501    0 -0.00000000000E+00 -0.00000000000E+00 -0.34129115830E+03  0.34129115830E+03  0.00000000000E+00 0. -1.
         25    2    1    2    0    0  0.12524759849E+03  0.10658183351E+02  0.37407362193E+03  0.41395261114E+03  0.12500052739E+03 0.  0.
          2    1    1    2  501    0 -0.56982260331E+02 -0.54294704637E+02 -0.31273005438E+03  0.32248252643E+03  0.00000000000E+00 0. -1.
          1    1    1    2  502    0 -0.68265338154E+02  0.43636521286E+02  0.43441538357E+03  0.44190613015E+03  0.00000000000E+00 0. -1.
         22    1    3    3    0    0  0.81921709605E+02 -0.13868123684E+02  0.78801849211E+02  0.11451298092E+03  0.00000000000E+00 0. -1.
         22    1    3    3    0    0  0.43325888880E+02  0.24526307036E+02  0.29527177272E+03  0.29943963022E+03  0.00000000000E+00 0. -1.
</event>
<event>
 7    1  0.5957303E-006  0.8914230E+02  0.7818608E-02  0.1393191E+00
          2   -1    0    0  502    0  0.00000000000E+00  0.00000000000E+00  0.13257558594E+04  0.13257558594E+04  0.00000000000E+00 0. -1.
          1   -1    0    0  501    0 -0.00000000000E+00 -0.00000000000E+00 -0.13217774438E+03  0.13217774438E+03  0.00000000000E+00 0. -1.
         25    2    1    2    0    0  0.11905979472E+03  0.45098292460E+02  0.56136571299E+02  0.18705558332E+03  0.12501754242E+03 0.  0.
          2    1    1    2  501    0 -0.41835870240E+02 -0.24341959081E+01 -0.58348301671E+02  0.71837940229E+02  0.00000000000E+00 0. -1.
          1    1    1    2  502    0 -0.77223924481E+02 -0.42664096552E+02  0.11957898454E+04  0.11990400802E+04  0.00000000000E+00 0. -1.
         22    1    3    3    0    0 -0.15731922043E+02 -0.14182852062E+02  0.31195138443E+02  0.37706542221E+02  0.00000000000E+00 0.  1.
         22    1    3    3    0    0  0.13479171676E+03  0.59281144522E+02  0.24941432856E+02  0.14934904110E+03  0.00000000000E+00 0.  1.
</event>
<event>
 7    1  0.5957303E-006  0.7474899E+02  0.7818608E-02  0.1378052E+00
          2   -1    0    0  502    0  0.00000000000E+00  0.00000000000E+00  0.15253249418E+04  0.15253249418E+04  0.00000000000E+00 0. -1.
          1   -1    0    0  501    0 -0.00000000000E+00 -0.00000000000E+00 -0.46629402758E+02  0.46629402758E+02  0.00000000000E+00 0. -1.
         25    2    1    2    0    0  0.27628244998E+02 -0.10093782437E+03  0.55450528307E+03  0.57797619094E+03  0.12501441527E+03 0.  0.
          2    1    1    2  501    0  0.20150310114E+02  0.70807947161E+02  0.57944938911E+01  0.73846980563E+02  0.00000000000E+00 0. -1.
          1    1    1    2  502    0 -0.47778555113E+02  0.30129877209E+02  0.91839576211E+03  0.92013117309E+03  0.00000000000E+00 0. -1.
         22    1    3    3    0    0  0.28042109638E+02  0.23275137145E+02  0.88724413584E+02  0.95917222061E+02  0.00000000000E+00 0.  1.
         22    1    3    3    0    0 -0.41386463974E+00 -0.12421296152E+03  0.46578086949E+03  0.48205896888E+03  0.00000000000E+00 0.  1.
</event>
<event>
 7    1  0.5957303E-006  0.4877998E+02  0.7818608E-02  0.1461665E+00
          2   -1    0    0  502    0  0.00000000000E+00  0.00000000000E+00  0.21683063008E+03  0.21683063008E+03  0.00000000000E+00 0. -1.
          1   -1    0    0  501    0 -0.00000000000E+00 -0.00000000000E+00 -0.20158872476E+03  0.20158872476E+03  0.00000000000E+00 0. -1.
         25    2    1    2    0    0 -0.19723287464E+02 -0.21023495177E+02  0.68042594754E+02  0.14521006819E+03  0.12500069514E+03 0.  0.
          2    1    1    2  501    0 -0.17669340346E+02  0.46895183853E+02 -0.15416925733E+03  0.16210960417E+03  0.00000000000E+00 0. -1.
          1    1    1    2  502    0  0.37392627810E+02 -0.25871688676E+02  0.10136856790E+03  0.11109968248E+03  0.00000000000E+00 0. -1.
         22    1    3    3    0    0  0.22350962502E+02  0.39310338376E+02  0.53814120506E+02  0.70291022143E+02  0.00000000000E+00 0.  1.
         22    1    3    3    0    0 -0.42074249966E+02 -0.60333833553E+02  0.14228474247E+02  0.74919046049E+02  0.00000000000E+00 0.  1.
</event>
<event>
 7    1  0.5957303E-006  0.2798127E+03  0.7818608E-02  0.1321645E+00
          2   -1    0    0  502    0  0.00000000000E+00  0.00000000000E+00  0.17682774628E+04  0.17682774628E+04  0.00000000000E+00 0. -1.
          1   -1    0    0  501    0 -0.00000000000E+00 -0.00000000000E+00 -0.13025757470E+04  0.13025757470E+04  0.00000000000E+00 0. -1.
         25    2    1    2    0    0 -0.28499516039E+03  0.89611540074E+02 -0.45912499107E+03  0.56185624325E+03  0.12503683895E+03 0.  0.
          2    1    1    2  501    0  0.23136112774E+02  0.78256082087E+01 -0.78052590498E+03  0.78090793836E+03  0.00000000000E+00 0. -1.
          1    1    1    2  502    0  0.26185904761E+03 -0.97437148283E+02  0.17053526118E+04  0.17280890282E+04  0.00000000000E+00 0. -1.
         22    1    3    3    0    0 -0.26134149464E+03  0.11713212698E+03 -0.39095127832E+03  0.48462584951E+03  0.00000000000E+00 0.  1.
         22    1    3    3    0    0 -0.23653665745E+02 -0.27520586911E+02 -0.68173712747E+02  0.77230393737E+02  0.00000000000E+00 0.  1.
</event>
<event>
 7    1  0.5957303E-006  0.8416056E+02  0.7818608E-02  0.1455108E+00
          2   -1    0    0  502    0  0.00000000000E+00  0.00000000000E+00  0.22716394258E+03  0.22716394258E+03  0.00000000000E+00 0. -1.
          1   -1    0    0  501    0 -0.00000000000E+00 -0.00000000000E+00 -0.53538708903E+03  0.53538708903E+03  0.00000000000E+00 0. -1.
         25    2    1    2    0    0 -0.28521073597E+02 -0.90519449256E+02  0.58921766083E+02  0.16764715242E+03  0.12500628330E+03 0.  0.
          2    1    1    2  501    0 -0.16630160716E+02  0.22081635623E+02 -0.46580369522E+03  0.46662323491E+03  0.00000000000E+00 0. -1.
          1    1    1    2  502    0  0.45151234313E+02  0.68437813633E+02  0.98658782684E+02  0.12828064428E+03  0.00000000000E+00 0. -1.
         22    1    3    3    0    0 -0.75317127541E+02 -0.78020015705E+02  0.43070965578E+02  0.11668290632E+03  0.00000000000E+00 0. -1.
         22    1    3    3    0    0  0.46796053944E+02 -0.12499433550E+02  0.15850800505E+02  0.50964246099E+02  0.00000000000E+00 0. -1.
</event>
<event>
 7    1  0.5957303E-006  0.8483765E+02  0.7818608E-02  0.1367965E+00
          2   -1    0    0  502    0  0.00000000000E+00  0.00000000000E+00  0.17989767260E+04  0.17989767260E+04  0.00000000000E+00 0. -1.
          1   -1    0    0  501    0 -0.00000000000E+00 -0.00000000000E+00 -0.19428484289E+03  0.19428484289E+03  0.00000000000E+00 0. -1.
         25    2    1    2    0    0  0.63577488768E+02  0.12253079460E+03  0.79985906500E+03  0.82125247258E+03  0.12500082863E+03 0.  0.
          2    1    1    2  501    0 -0.35194706879E+02 -0.76495090553E+02 -0.17314658733E+03  0.19253546940E+03  0.00000000000E+00 0. -1.
          1    1    1    2  502    0 -0.28382781889E+02 -0.46035704046E+02  0.97797940544E+03  0.97947362692E+03  0.00000000000E+00 0. -1.
         22    1    3    3    0    0  0.57880357843E+02  0.13676168202E+03  0.51507368853E+03  0.53605484618E+03  0.00000000000E+00 0. -1.
         22    1    3    3    0    0  0.56971309247E+01 -0.14230887419E+02  0.28478537647E+03  0.28519762641E+03  0.00000000000E+00 0. -1.
</event>
<event>
 7    1  0.5957303E-006  0.8864965E+02  0.7818608E-02  0.1490517E+00
          2   -1    0    0  502    0  0.00000000000E+00  0.00000000000E+00  0.12424211721E+04  0.12424211721E+04  0.00000000000E+00 0. -1.
          1   -1    0    0  501    0 -0.00000000000E+00 -0.00000000000E+00 -0.38674311930E+02  0.38674311930E+02  0.00000000000E+00 0. -1.
         25    2    1    2    0    0  0.50286466952E+01 -0.95979773047E+02  0.39228391171E+03  0.42278755027E+03  0.12500096460E+03 0.  0.
          2    1    1    2  501    0 -0.18189726170E+02  0.92004066860E+01 -0.16179251596E+02  0.26024638394E+02  0.00000000000E+00 0. -1.
          1    1    1    2  502    0  0.13161079475E+02  0.86779366361E+02  0.82764220004E+03  0.83228329536E+03  0.00000000000E+00 0. -1.
         22    1    3    3    0    0  0.51835403603E+02 -0.76679293556E+02  0.15815988616E+03  0.18325166498E+03  0.00000000000E+00 0. -1.
         22    1    3    3    0    0 -0.46806756908E+02 -0.19300479491E+02  0.23412402555E+03  0.23953588529E+03  0.00000000000E+00 0. -1.
</event>
<event>
 7    1  0.5957303E-006  0.9224357E+02  0.7818608E-02  0.1342946E+00
          2   -1    0    0  502    0  0.00000000000E+00  0.00000000000E+00  0.81336022371E+03  0.81336022371E+03  0.00000000000E+00 0. -1.
          1   -1    0    0  501    0 -0.00000000000E+00 -0.00000000000E+00 -0.35485340345E+03  0.35485340345E+03  0.00000000000E+00 0. -1.
         25    2    1    2    0    0  0.15023901587E+03 -0.17432098550E+02  0.48096679075E+02  0.20204827983E+03  0.12503830171E+03 0.  0.
          2    1    1    2  501    0 -0.61382527895E+02  0.32384619166E+01 -0.27148608218E+03  0.27835767492E+03  0.00000000000E+00 0. -1.
          1    1    1    2  502    0 -0.88856487976E+02  0.14193636633E+02  0.68189622337E+03  0.68780767241E+03  0.00000000000E+00 0. -1.
         22    1    3    3    0    0 -0.36306913249E+01  0.33787002992E+02  0.60540044729E+01  0.34516582404E+02  0.00000000000E+00 0. -1.
         22    1    3    3    0    0  0.15386970720E+03 -0.51219101542E+02  0.42042674602E+02  0.16753169743E+03  0.00000000000E+00 0. -1.
</event>
<event>
 7    1  0.5957303E-006  0.1571466E+03  0.7818608E-02  0.1271521E+00
          2   -1    0    0  502    0  0.00000000000E+00  0.00000000000E+00  0.46186501792E+03  0.46186501792E+03  0.00000000000E+00 0. -1.
          1   -1    0    0  501    0 -0.00000000000E+00 -0.00000000000E+00 -0.77424384055E+03  0.77424384055E+03  0.00000000000E+00 0. -1.
         25    2    1    2    0    0  0.10182458254E+03 -0.10340101695E+03 -0.95981701364E+01  0.19177768314E+03  0.12500615571E+03 0.  0.
          2    1    1    2  501    0 -0.51735754241E+02  0.15116825144E+03 -0.66071853620E+03  0.67976276199E+03  0.00000000000E+00 0. -1.
          1    1    1    2  502    0 -0.50088828299E+02 -0.47767234490E+02  0.35793788371E+03  0.36456841334E+03  0.00000000000E+00 0. -1.
         22    1    3    3    0    0  0.11856241983E+03 -0.10051694880E+03  0.20932885836E+02  0.15684033314E+03  0.00000000000E+00 0. -1.
         22    1    3    3    0    0 -0.16737837286E+02 -0.28840681512E+01 -0.30531055972E+02  0.34937349998E+02  0.00000000000E+00 0. -1.
</event>
<event>
 7    1  0.5957303E-006  0.1822277E+03  0.7818608E-02  0.1167683E+00
          2   -1    0    0  502    0  0.00000000000E+00  0.00000000000E+00  0.57945848341E+03  0.57945848341E+03  0.00000000000E+00 0. -1.
          1   -1    0    0  501    0 -0.00000000000E+00 -0.00000000000E+00 -0.98556400538E+03  0.98556400538E+03  0.00000000000E+00 0. -1.
         25    2    1    2    0    0  0.22592509565E+03  0.10352530065E+03  0.17115620625E+03  0.32661748865E+03  0.12499960094E+03 0.  0.
          2    1    1    2  501    0 -0.17023692196E+03  0.65587356112E+02 -0.87373482338E+03  0.89257764506E+03  0.00000000000E+00 0. -1.
          1    1    1    2  502    0 -0.55688173690E+02 -0.16911265676E+03  0.29647309516E+03  0.34582735507E+03  0.00000000000E+00 0. -1.
         22    1    3    3    0    0 -0.43613152301E+01  0.34482681767E+02  0.39128473889E+02  0.52336544415E+02  0.00000000000E+00 0. -1.
         22    1    3    3    0    0  0.23028641088E+03  0.69042618878E+02  0.13202773236E+03  0.27428094423E+03  0.00000000000E+00 0. -1.
</event>
<event>
 7    1  0.5957303E-006  0.9070911E+02  0.7818608E-02  0.1399091E+00
          2   -1    0    0  502    0  0.00000000000E+00  0.00000000000E+00  0.66091934041E+03  0.66091934041E+03  0.00000000000E+00 0. -1.
          1   -1    0    0  501    0 -0.00000000000E+00 -0.00000000000E+00 -0.33960915678E+03  0.33960915678E+03  0.00000000000E+00 0. -1.
         25    2    1    2    0    0 -0.11525057048E+03  0.34171047180E+01  0.20089990106E+03  0.26321775031E+03  0.12501377216E+03 0.  0.
          2    1    1    2  501    0  0.85376285256E+02 -0.28940327696E+02 -0.30092988742E+03  0.31414240369E+03  0.00000000000E+00 0. -1.
          1    1    1    2  502    0  0.29874285222E+02  0.25523222978E+02  0.42134017000E+03  0.42316834319E+03  0.00000000000E+00 0. -1.
         22    1    3    3    0    0  0.19662667531E+02  0.17282238282E+02  0.79259029771E+01  0.27351712788E+02  0.00000000000E+00 0. -1.
         22    1    3    3    0    0 -0.13491323801E+03 -0.13865133563E+02  0.19297399808E+03  0.23586603752E+03  0.00000000000E+00 0. -1.
</event>
<event>
 7    1  0.5957303E-006  0.9659719E+02  0.7818608E-02  0.1447884E+00
          2   -1    0    0  502    0  0.00000000000E+00  0.00000000000E+00  0.15574910776E+04  0.15574910776E+04  0.00000000000E+00 0. -1.
          1   -1    0    0  501    0 -0.00000000000E+00 -0.00000000000E+00 -0.14171517191E+04  0.14171517191E+04  0.00000000000E+00 0. -1.
         25    2    1    2    0    0  0.82564770397E+02  0.49031340156E+02 -0.34054803199E+03  0.37525570127E+03  0.12499146216E+03 0.  0.
          2    1    1    2  501    0 -0.67646748373E+02 -0.69586470550E+02 -0.10569218884E+04  0.10613680972E+04  0.00000000000E+00 0. -1.
          1    1    1    2  502    0 -0.14918022023E+02  0.20555130394E+02  0.15378092790E+04  0.15380189983E+04  0.00000000000E+00 0. -1.
         22    1    3    3    0    0  0.93871472736E+02  0.61165364521E+02 -0.34072081219E+03  0.35866938407E+03  0.00000000000E+00 0.  1.
         22    1    3    3    0    0 -0.11306702339E+02 -0.12134024365E+02  0.17278020179E+00  0.16586317195E+02  0.00000000000E+00 0.  1.
</event>
<event>
 7    1  0.5957303E-006  0.1176524E+03  0.7818608E-02  0.1335133E+00
          2   -1    0    0  502    0  0.00000000000E+00  0.00000000000E+00  0.27381790647E+03  0.27381790647E+03  0.00000000000E+00 0. -1.
          1   -1    0    0  501    0 -0.00000000000E+00 -0.00000000000E+00 -0.34613780893E+03  0.34613780893E+03  0.00000000000E+00 0. -1.
         25    2    1    2    0    0 -0.28852932379E+02 -0.14087224472E+03  0.83925602303E+02  0.20819751342E+03  0.12500086734E+03 0.  0.
          2    1    1    2  501    0  0.59723396859E+02  0.99559486060E+02 -0.26614173112E+03  0.29036252589E+03  0.00000000000E+00 0. -1.
          1    1    1    2  502    0 -0.30870464480E+02  0.41312758660E+02  0.10989622636E+03  0.12139567609E+03  0.00000000000E+00 0. -1.
         22    1    3    3    0    0 -0.60344777693E+02 -0.24474426131E+02  0.77732371940E+01  0.65581346019E+02  0.00000000000E+00 0.  1.
         22    1    3    3    0    0  0.31491845314E+02 -0.11639781859E+03  0.76152365109E+02  0.14261616740E+03  0.00000000000E+00 0.  1.
</event>
<event>
 7    1  0.5957303E-006  0.1618353E+03  0.7818608E-02  0.1219587E+00
          2   -1    0    0  502    0  0.00000000000E+00  0.00000000000E+00  0.17102702902E+03  0.17102702902E+03  0.00000000000E+00 0. -1.
          1   -1    0    0  501    0 -0.00000000000E+00 -0.00000000000E+00 -0.60943878529E+03  0.60943878529E+03  0.00000000000E+00 0. -1.
         25    2    1    2    0    0  0.72145935061E+02 -0.45152675988E+02 -0.12928800396E+03  0.19896110914E+03  0.12500533944E+03 0.  0.
          2    1    1    2  501    0  0.10438347648E+03 -0.44223553280E+02 -0.35981326631E+03  0.37724954532E+03  0.00000000000E+00 0. -1.
          1    1    1    2  502    0 -0.17652941154E+03  0.89376229268E+02  0.50689513989E+02  0.20425515985E+03  0.00000000000E+00 0. -1.
         22    1    3    3    0    0 -0.30123731420E+02 -0.76831743708E+01 -0.15989186363E+01  0.31129196968E+02  0.00000000000E+00 0. -1.
         22    1    3    3    0    0  0.10226966648E+03 -0.37469501617E+02 -0.12768908532E+03  0.16783191217E+03  0.00000000000E+00 0. -1.
</event>
<event>
 7    1  0.5957303E-006  0.1850318E+03  0.7818608E-02  0.1312212E+00
          2   -1    0    0  502    0  0.00000000000E+00  0.00000000000E+00  0.37958350119E+03  0.37958350119E+03  0.00000000000E+00 0. -1.
          1   -1    0    0  501    0 -0.00000000000E+00 -0.00000000000E+00 -0.10840553138E+04  0.10840553138E+04  0.00000000000E+00 0. -1.
         25    2    1    2    0    0  0.13277916374E+03 -0.72380682703E+02 -0.10182404150E+03  0.22105609199E+03  0.12501356257E+03 0.  0.
          2    1    1    2  501    0  0.37895622922E+02 -0.13410331238E+02 -0.89361238772E+03  0.89451607851E+03  0.00000000000E+00 0. -1.
          1    1    1    2  502    0 -0.17067478666E+03  0.85791013941E+02  0.29096461662E+03  0.34806664448E+03  0.00000000000E+00 0. -1.
         22    1    3    3    0    0  0.11045043394E+03 -0.65380950642E+02 -0.13117191928E+03  0.18352122349E+03  0.00000000000E+00 0. -1.
         22    1    3    3    0    0  0.22328729792E+02 -0.69997320612E+01  0.29347877778E+02  0.37534868498E+02  0.00000000000E+00 0. -1.
</event>
<event>
 7    1  0.5957303E-006  0.6552626E+02  0.7818608E-02  0.1392263E+00
          2   -1    0    0  502    0  0.00000000000E+00  0.00000000000E+00  0.17677635854E+04  0.17677635854E+04  0.00000000000E+00 0. -1.
          1   -1    0    0  501    0 -0.00000000000E+00 -0.00000000000E+00 -0.70467799253E+03  0.70467799253E+03  0.00000000000E+00 0. -1.
         25    2    1    2    0    0 -0.25681885098E+01 -0.82058797832E+01  0.23214016617E+03  0.26379511425E+03  0.12499949399E+03 0.  0.
          2    1    1    2  501    0  0.86765020042E+01  0.65315289285E+02 -0.68673048902E+03  0.68988414480E+03  0.00000000000E+00 0. -1.
          1    1    1    2  502    0 -0.61083134943E+01 -0.57109409502E+02  0.15176759158E+04  0.15187623189E+04  0.00000000000E+00 0. -1.
         22    1    3    3    0    0 -0.35547685355E+02 -0.10296933642E+02  0.22742278168E+03  0.23041437976E+03  0.00000000000E+00 0. -1.
         22    1    3    3    0    0  0.32979496845E+02  0.20910538587E+01  0.47173844961E+01  0.33380734487E+02  0.00000000000E+00 0. -1.
</event>
<event>
 7    1  0.5957303E-006  0.3318648E+02  0.7818608E-02  0.1573532E+00
          2   -1    0    0  502    0  0.00000000000E+00  0.00000000000E+00  0.19307391500E+04  0.19307391500E+04  0.00000000000E+00 0. -1.
          1   -1    0    0  501    0 -0.00000000000E+00 -0.00000000000E+00 -0.44441472304E+03  0.44441472304E+03  0.00000000000E+00 0. -1.
         25    2    1    2    0    0  0.41205664729E+02  0.15755995689E+02  0.23508293139E+02  0.13462871094E+03  0.12500436695E+03 0.  0.
          2    1    1    2  501    0 -0.30207877055E+02  0.13787073045E+02 -0.38801117293E+03  0.38942941535E+03  0.00000000000E+00 0. -1.
          1    1    1    2  502    0 -0.10997787674E+02 -0.29543068733E+02  0.18508273067E+04  0.18510957467E+04  0.00000000000E+00 0. -1.
         22    1    3    3    0    0 -0.30232139788E+02  0.36046141852E+02 -0.17015475496E+02  0.50028322228E+02  0.00000000000E+00 0.  1.
         22    1    3    3    0    0  0.71437804517E+02 -0.20290146164E+02  0.40523768635E+02  0.84600388710E+02  0.00000000000E+00 0.  1.
</event>
<event>
 7    1  0.5957303E-006  0.1027701E+03  0.7818608E-02  0.1399324E+00
          2   -1    0    0  502    0  0.00000000000E+00  0.00000000000E+00  0.17542117894E+04  0.17542117894E+04  0.00000000000E+00 0. -1.
          1   -1    0    0  501    0 -0.00000000000E+00 -0.00000000000E+00 -0.52231948593E+03  0.52231948593E+03  0.00000000000E+00 0. -1.
         25    2    1    2    0    0 -0.72156804559E+02 -0.10743016408E+03  0.50541500763E+02  0.18688890136E+03  0.12500069422E+03 0.  0.
          2    1    1    2  501    0  0.70815275693E+02  0.72838795928E+02 -0.44827850952E+03  0.45964542374E+03  0.00000000000E+00 0. -1.
          1    1    1    2  502    0  0.13415288661E+01  0.34591368156E+02  0.16296293122E+04  0.16299969502E+04  0.00000000000E+00 0. -1.
         22    1    3    3    0    0 -0.20796398131E+02 -0.44848863445E+02  0.85453883023E+02  0.98723233594E+02  0.00000000000E+00 0. -1.
         22    1    3    3    0    0 -0.51360406429E+02 -0.62581300640E+02 -0.34912382260E+02  0.88165667770E+02  0.00000000000E+00 0. -1.
</event>
<event>
 7    1  0.5957303E-006  0.1228677E+03  0.7818608E-02  0.1388917E+00
          2   -1    0    0  502    0  0.00000000000E+00  0.00000000000E+00  0.17940551872E+03  0.17940551872E+03  0.00000000000E+00 0. -1.
          1   -1    0    0  501    0 -0.00000000000E+00 -0.00000000000E+00 -0.72711175698E+03  0.72711175698E+03  0.00000000000E+00 0. -1.
         25    2    1    2    0    0  0.11640854976E+03 -0.75591713057E+01  0.41510698725E+02  0.17594214288E+03  0.12499763199E+03 0.  0.
          2    1    1    2  501    0 -0.11706298837E+03  0.39016855752E+02 -0.65027918416E+03  0.66188297730E+03  0.00000000000E+00 0. -1.
          1    1    1    2  502    0  0.65443861598E+00 -0.31457684446E+02  0.61062247177E+02  0.68692155527E+02  0.00000000000E+00 0. -1.
         22    1    3    3    0    0  0.63441636677E+02  0.57661419931E+02  0.10447296607E+02  0.86364498604E+02  0.00000000000E+00 0. -1.
         22    1    3    3    0    0  0.52966913079E+02 -0.65220591236E+02  0.31063402117E+02  0.89577644273E+02  0.00000000000E+00 0. -1.
</event>
<event>
 7    1  0.5957303E-006  0.3197455E+03  0.7818608E-02  0.1213582E+00
          2   -1    0    0  502    0  0.00000000000E+00  0.00000000000E+00  0.14997658333E+04  0.14997658333E+04  0.00000000000E+00 0. -1.
          1   -1    0    0  501    0 -0.00000000000E+00 -0.00000000000E+00 -0.25394761970E+04  0.25394761970E+04  0.00000000000E+00 0. -1.
         25    2    1    2    0    0  0.19708194185E+02  0.25956372321E+03 -0.58362109545E+03  0.65116112605E+03  0.12504195176E+03 0.  0.
          2    1    1    2  501    0  0.52547996016E+01  0.60907805203E+02 -0.19039682779E+04  0.19049494946E+04  0.00000000000E+00 0. -1.
          1    1    1    2  502    0 -0.24962993786E+02 -0.32047152841E+03  0.14478790097E+04  0.14831314096E+04  0.00000000000E+00 0. -1.
         22    1    3    3    0    0  0.43147375467E+02  0.26064345183E+03 -0.51820359495E+03  0.58166284978E+03  0.00000000000E+00 0. -1.
         22    1    3    3    0    0 -0.23439181282E+02 -0.10797286256E+01 -0.65417500496E+02  0.69498276268E+02  0.00000000000E+00 0. -1.
</event>
<event>
 7    1  0.5957303E-006  0.1871540E+03  0.7818608E-02  0.1219767E+00
          2   -1    0    0  502    0  0.00000000000E+00  0.00000000000E+00  0.55399541315E+03  0.55399541315E+03  0.00000000000E+00 0. -1.
          1   -1    0    0  501    0 -0.00000000000E+00 -0.00000000000E+00 -0.16095722236E+04  0.16095722236E+04  0.00000000000E+00 0. -1.
         25    2    1    2    0    0 -0.16408805509E+03  0.22522472000E+03 -0.17560173687E+03  0.35229834378E+03  0.12500835459E+03 0.  0.
          2    1    1    2  501    0  0.10782034853E+03 -0.14517913836E+03 -0.13343148830E+04  0.13465134298E+04  0.00000000000E+00 0. -1.
          1    1    1    2  502    0  0.56267706551E+02 -0.80045581639E+02  0.45433980938E+03  0.46475586315E+03  0.00000000000E+00 0. -1.
         22    1    3    3    0    0  0.69510351296E+01  0.77569452597E+02 -0.61090821882E+02  0.98981944736E+02  0.00000000000E+00 0.  1.
         22    1    3    3    0    0 -0.17103909022E+03  0.14765526740E+03 -0.11451091499E+03  0.25331639905E+03  0.00000000000E+00 0.  1.
</event>
<event>
 7    1  0.5957303E-006  0.6444403E+02  0.7818608E-02  0.1385507E+00
          2   -1    0    0  502    0  0.00000000000E+00  0.00000000000E+00  0.21567094929E+04  0.21567094929E+04  0.00000000000E+00 0. -1.
          1   -1    0    0  501    0 -0.00000000000E+00 -0.00000000000E+00 -0.15678209052E+03  0.15678209052E+03  0.00000000000E+00 0. -1.
         25    2    1    2    0    0 -0.69169449321E+01 -0.21212070169E+02  0.11372853441E+04  0.11443516602E+04  0.12499988916E+03 0.  0.
          2    1    1    2  501    0  0.64791470065E+02 -0.68329829534E-01 -0.14541623695E+03  0.15919742847E+03  0.00000000000E+00 0. -1.
          1    1    1    2  502    0 -0.57874525133E+02  0.21280399999E+02  0.10080582952E+04  0.10099424947E+04  0.00000000000E+00 0. -1.
         22    1    3    3    0    0  0.13150256811E+02 -0.35139139226E+01  0.10352450883E+02  0.17101172023E+02  0.00000000000E+00 0. -1.
         22    1    3    3    0    0 -0.20067201743E+02 -0.17698156246E+02  0.11269328932E+04  0.11272504882E+04  0.00000000000E+00 0. -1.
</event>
<event>
 7    1  0.5957303E-006  0.1672455E+03  0.7818608E-02  0.1303532E+00
          2   -1    0    0  502    0  0.00000000000E+00  0.00000000000E+00  0.14233903700E+04  0.14233903700E+04  0.00000000000E+00 0. -1.
          1   -1    0    0  501    0 -0.00000000000E+00 -0.00000000000E+00 -0.25257308335E+03  0.25257308335E+03  0.00000000000E+00 0. -1.
         25    2    1    2    0    0  0.17464375955E+03  0.59713531721E+02  0.11618765205E+03  0.25137610827E+03  0.12499691476E+03 0.  0.
          2    1    1    2  501    0 -0.88422493728E+01 -0.47311187131E+02 -0.17616079497E+03  0.18261752240E+03  0.00000000000E+00 0. -1.
          1    1    1    2  502    0 -0.16580151018E+03 -0.12402344590E+02  0.12307904296E+04  0.12419698227E+04  0.00000000000E+00 0. -1.
         22    1    3    3    0    0  0.79949628780E+02  0.80028382080E+02  0.10418079350E+03  0.15378596430E+03  0.00000000000E+00 0. -1.
         22    1    3    3    0    0  0.94694130771E+02 -0.20314850359E+02  0.12006858543E+02  0.97590143968E+02  0.00000000000E+00 0. -1.
</event>
<event>
 7    1  0.5957303E-006  0.8403419E+02  0.7818608E-02  0.1326637E+00
          2   -1    0    0  502    0  0.00000000000E+00  0.00000000000E+00  0.27106109643E+02  0.27106109643E+02  0.00000000000E+00 0. -1.
          1   -1    0    0  501    0 -0.00000000000E+00 -0.00000000000E+00 -0.10559024898E+04  0.10559024898E+04  0.00000000000E+00 0. -1.
         25    2    1    2    0    0  0.15730265115E+02 -0.36579324237E+02 -0.24572373857E+03  0.27855135810E+03  0.12500086080E+03 0.  0.
          2    1    1    2  501    0 -0.93464921938E+02  0.33399952362E+02 -0.54592000722E+03  0.55486926634E+03  0.00000000000E+00 0. -1.
          1    1    1    2  502    0  0.77734656822E+02  0.31793718744E+01 -0.23715263434E+03  0.24958797497E+03  0.00000000000E+00 0. -1.
         22    1    3    3    0    0 -0.38969221018E+02  0.25424263042E+02 -0.66357818964E+02  0.81045379114E+02  0.00000000000E+00 0.  1.
         22    1    3    3    0    0  0.54699486134E+02 -0.62003587279E+02 -0.17936591961E+03  0.19750597898E+03  0.00000000000E+00 0.  1.
</event>
<event>
 7    1  0.5957303E-006  0.1719453E+03  0.7818608E-02  0.1221223E+00
          2   -1    0    0  502    0  0.00000000000E+00  0.00000000000E+00  0.33633308271E+03  0.33633308271E+03  0.00000000000E+00 0. -1.
          1   -1    0    0  501    0 -0.00000000000E+00 -0.00000000000E+00 -0.49648509411E+03  0.49648509411E+03  0.00000000000E+00 0. -1.
         25    2    1    2    0    0  0.45386426702E+02 -0.11581479803E+03 -0.17293843641E+03  0.24699330964E+03  0.12499998819E+03 0.  0.
          2    1    1    2  501    0  0.10400775762E+03  0.13528740291E+02 -0.24747339060E+03  0.26878191813E+03  0.00000000000E+00 0. -1.
          1    1    1    2  502    0 -0.14939418432E+03  0.10228605774E+03  0.26025981561E+03  0.31704294905E+03  0.00000000000E+00 0. -1.
         22    1    3    3    0    0  0.48459488202E+02 -0.42657133758E+01 -0.10659280507E+03  0.11716887130E+03  0.00000000000E+00 0. -1.
         22    1    3    3    0    0 -0.30730615003E+01 -0.11154908465E+03 -0.66345631339E+02  0.12982443835E+03  0.00000000000E+00 0. -1.
</event>
<event>
 7    1  0.5957303E-006  0.7090319E+02  0.7818608E-02  0.1378455E+00
          2   -1    0    0  502    0  0.00000000000E+00  0.00000000000E+00  0.35111394052E+03  0.35111394052E+03  0.00000000000E+00 0. -1.
          1   -1    0    0  501    0 -0.00000000000E+00 -0.00000000000E+00 -0.14687490072E+03  0.14687490072E+03  0.00000000000E+00 0. -1.
         25    2    1    2    0    0  0.12703860062E+02 -0.87416830150E+01  0.21956043894E+03  0.25312038563E+03  0.12500135275E+03 0.  0.
          2    1    1    2  501    0 -0.42238362576E+02  0.60224575076E+02 -0.11047307515E+03  0.13272294093E+03  0.00000000000E+00 0. -1.
          1    1    1    2  502    0  0.29534502514E+02 -0.51482892061E+02  0.95151676012E+02  0.11214551467E+03  0.00000000000E+00 0. -1.
         22    1    3    3    0    0  0.47110929425E+02 -0.32361522727E+02  0.42544556117E+02  0.71251295284E+02  0.00000000000E+00 0.  1.
         22    1    3    3    0    0 -0.34407069363E+02  0.23619839712E+02  0.17701588282E+03  0.18186909034E+03  0.00000000000E+00 0.  1.
</event>
<event>
 7    1  0.5957303E-006  0.9018087E+02  0.7818608E-02  0.1341332E+00
          2   -1    0    0  502    0  0.00000000000E+00  0.00000000000E+00  0.18923392503E+04  0.18923392503E+04  0.00000000000E+00 0. -1.
          1   -1    0    0  501    0 -0.00000000000E+00 -0.00000000000E+00 -0.12686373214E+04  0.12686373214E+04  0.00000000000E+00 0. -1.
         25    2    1    2    0    0  0.15141182346E+03 -0.17714444757E+02 -0.17936962064E+01  0.19714680629E+03  0.12499721616E+03 0.  0.
          2    1    1    2  501    0 -0.63755377791E+02 -0.30042845267E+00 -0.11671809684E+04  0.11689209774E+04  0.00000000000E+00 0. -1.
          1    1    1    2  502    0 -0.87656445670E+02  0.18014873209E+02  0.17926765936E+04  0.17949087880E+04  0.00000000000E+00 0. -1.
         22    1    3    3    0    0  0.42217225115E+02  0.34750235731E+02  0.41344385789E+02  0.68550938842E+02  0.00000000000E+00 0.  1.
         22    1    3    3    0    0  0.10919459835E+03 -0.52464680488E+02 -0.43138081995E+02  0.12859586745E+03  0.00000000000E+00 0.  1.
</event>
<event>
 7    1  0.5957303E-006  0.1811650E+03  0.7818608E-02  0.1281896E+00
          2   -1    0    0  502    0  0.00000000000E+00  0.00000000000E+00  0.37267739510E+03  0.37267739510E+03  0.00000000000E+00 0. -1.
          1   -1    0    0  501    0 -0.00000000000E+00 -0.00000000000E+00 -0.64843199931E+03  0.64843199931E+03  0.00000000000E+00 0. -1.
         25    2    1    2    0    0 -0.67917763970E+02 -0.14359569788E+03  0.16036636357E+03  0.25801961367E+03  0.12499681340E+03 0.  0.
          2    1    1    2  501    0 -0.23358218257E+02 -0.49091935542E+02 -0.52809428854E+03  0.53088530031E+03  0.00000000000E+00 0. -1.
          1    1    1    2  502    0  0.91275982227E+02  0.19268763342E+03  0.91973320760E+02  0.23220448044E+03  0.00000000000E+00 0. -1.
         22    1    3    3    0    0 -0.81597415040E+02 -0.12500181688E+03  0.70226225257E+02  0.16497064914E+03  0.00000000000E+00 0. -1.
         22    1    3    3    0    0  0.13679651071E+02 -0.18593880998E+02  0.90140138314E+02  0.93048964526E+02  0.00000000000E+00 0. -1.
</event>
<event>
 7    1  0.5957303E-006  0.7284406E+02  0.7818608E-02  0.1371915E+00
          2   -1    0    0  502    0  0.00000000000E+00  0.00000000000E+00  0.13370374079E+04  0.13370374079E+04  0.00000000000E+00 0. -1.
          1   -1    0    0  501    0 -0.00000000000E+00 -0.00000000000E+00 -0.12459050993E+03  0.12459050993E+03  0.00000000000E+00 0. -1.
         25    2    1    2    0    0 -0.70640291341E+01 -0.11205693254E+02  0.18508991943E+02  0.12706027240E+03  0.12500504778E+03 0.  0.
          2    1    1    2  501    0 -0.42426794264E+02  0.64655818862E+02 -0.47656605900E+02  0.90838097019E+02  0.00000000000E+00 0. -1.
          1    1    1    2  502    0  0.49490823398E+02 -0.53450125608E+02  0.12415945119E+04  0.12437295484E+04  0.00000000000E+00 0. -1.
         22    1    3    3    0    0 -0.21989139162E+01  0.19939108375E+02  0.66601887231E+02  0.69557276025E+02  0.00000000000E+00 0. -1.
         22    1    3    3    0    0 -0.48651152179E+01 -0.31144801629E+02 -0.48092895288E+02  0.57502996372E+02  0.00000000000E+00 0. -1.
</event>
<event>
 7    1  0.7749647E-006  0.1093797E+03  0.7818608E-02  0.1357794E+00
          2   -1    0    0  502    0  0.00000000000E+00  0.00000000000E+00  0.16006014244E+04  0.16006014244E+04  0.00000000000E+00 0. -1.
          1   -1    0    0  501    0 -0.00000000000E+00 -0.00000000000E+00 -0.87872610102E+03  0.87872610102E+03  0.00000000000E+00 0. -1.
         25    2    1    2    0    0  0.45572206777E+02 -0.87620495794E+02 -0.13531525172E+03  0.20902055573E+03  0.12500079222E+03 0.  0.
          2    1    1    2  501    0  0.40913462118E+02  0.20301698975E+02 -0.70389684573E+03  0.70537709049E+03  0.00000000000E+00 0. -1.
          1    1    1    2  502    0 -0.86485668895E+02  0.67318796819E+02  0.15610874208E+04  0.15649298792E+04  0.00000000000E+00 0. -1.
         22    1    3    3    0    0  0.38447899313E+00  0.31507068186E+02 -0.21195654093E+02  0.37974977580E+02  0.00000000000E+00 0.  1.
         22    1    3    3    0    0  0.45187727783E+02 -0.11912756398E+03 -0.11411959763E+03  0.17104557815E+03  0.00000000000E+00 0.  1.
</event>
<event>
 7    1  0.5957303E-006  0.8223677E+02  0.7818608E-02  0.1383451E+00
          2   -1    0    0  502    0  0.00000000000E+00  0.00000000000E+00  0.76866255663E+03  0.76866255663E+03  0.00000000000E+00 0. -1.
          1   -1    0    0  501    0 -0.00000000000E+00 -0.00000000000E+00 -0.77140749323E+02  0.77140749323E+02  0.00000000000E+00 0. -1.
         25    2    1    2    0    0 -0.28949015292E+02 -0.12237106741E+03  0.28365198789E+03  0.33450450145E+03  0.12498834999E+03 0.  0.
          2    1    1    2  501    0  0.11794995019E+02  0.47696176562E+02 -0.35971068380E+02  0.60893061399E+02  0.00000000000E+00 0. -1.
          1    1    1    2  502    0  0.17154020273E+02  0.74674890851E+02  0.44384088780E+03  0.45040574310E+03  0.00000000000E+00 0. -1.
         22    1    3    3    0    0 -0.38047885448E+01 -0.14390956713E+03  0.23704214034E+03  0.27733268149E+03  0.00000000000E+00 0.  1.
         22    1    3    3    0    0 -0.25144226747E+02  0.21538499720E+02  0.46609847549E+02  0.57171819959E+02  0.00000000000E+00 0.  1.
</event>
<event>
 7    1  0.5957303E-006  0.1196452E+03  0.7818608E-02  0.1347426E+00
          2   -1    0    0  502    0  0.00000000000E+00  0.00000000000E+00  0.34574384205E+03  0.34574384205E+03  0.00000000000E+00 0. -1.
          1   -1    0    0  501    0 -0.00000000000E+00 -0.00000000000E+00 -0.99640849383E+03  0.99640849383E+03  0.00000000000E+00 0. -1.
         25    2    1    2    0    0 -0.15576328644E+03 -0.41541732087E+02 -0.24121363857E+03  0.31590207978E+03  0.12498875018E+03 0.  0.
          2    1    1    2  501    0  0.45594776393E+02 -0.70715001935E+00 -0.70580214274E+03  0.70727367291E+03  0.00000000000E+00 0. -1.
          1    1    1    2  502    0  0.11016851004E+03  0.42248882106E+02  0.29635112953E+03  0.31897658319E+03  0.00000000000E+00 0. -1.
         22    1    3    3    0    0 -0.13344892058E+03 -0.81885645769E+02 -0.20053916942E+03  0.25442058065E+03  0.00000000000E+00 0.  1.
         22    1    3    3    0    0 -0.22314365859E+02  0.40343913682E+02 -0.40674469158E+02  0.61481499138E+02  0.00000000000E+00 0.  1.
</event>
<event>
 7    1  0.5957303E-006  0.9152800E+02  0.7818608E-02  0.1316857E+00
          2   -1    0    0  502    0  0.00000000000E+00  0.00000000000E+00  0.41670892202E+04  0.41670892202E+04  0.00000000000E+00 0. -1.
          1   -1    0    0  501    0 -0.00000000000E+00 -0.00000000000E+00 -0.12781563621E+02  0.12781563621E+02  0.00000000000E+00 0. -1.
         25    2    1    2    0    0 -0.12200369908E+03  0.38406620246E+02  0.17342853742E+04  0.17434825109E+04  0.12500214340E+03 0.  0.
          2    1    1    2  501    0  0.51947451993E+02 -0.72549205716E+02  0.25860065919E+03  0.27356210620E+03  0.00000000000E+00 0. -1.
          1    1    1    2  502    0  0.70056247085E+02  0.34142585470E+02  0.21614216232E+04  0.21628261667E+04  0.00000000000E+00 0. -1.
         22    1    3    3    0    0 -0.70497053876E+02  0.41532581300E+02  0.40429555511E+03  0.41249204332E+03  0.00000000000E+00 0. -1.
         22    1    3    3    0    0 -0.51506645202E+02 -0.31259610541E+01  0.13299898191E+04  0.13309904676E+04  0.00000000000E+00 0. -1.
</event>
<event>
 7    1  0.5957303E-006  0.3301139E+02  0.7818608E-02  0.1596692E+00
          2   -1    0    0  502    0  0.00000000000E+00  0.00000000000E+00  0.25114548693E+02  0.25114548693E+02  0.00000000000E+00 0. -1.
          1   -1    0    0  501    0 -0.00000000000E+00 -0.00000000000E+00 -0.14081414702E+04  0.14081414702E+04  0.00000000000E+00 0. -1.
         25    2    1    2    0    0  0.13709558015E+02  0.12432734940E+02 -0.64872418808E+03  0.66091628615E+03  0.12499896085E+03 0.  0.
          2    1    1    2  501    0 -0.33844633328E+02  0.62891412328E+01 -0.74277309183E+03  0.74357035878E+03  0.00000000000E+00 0. -1.
          1    1    1    2  502    0  0.20135075312E+02 -0.18721876173E+02  0.84703584293E+01  0.28769373945E+02  0.00000000000E+00 0. -1.
         22    1    3    3    0    0  0.48086249343E+02  0.48554717599E+02 -0.25314219923E+03  0.26220377764E+03  0.00000000000E+00 0. -1.
         22    1    3    3    0    0 -0.34376691327E+02 -0.36121982659E+02 -0.39558198885E+03  0.39871250850E+03  0.00000000000E+00 0. -1.
</event>
<event>
 7    1  0.5957303E-006  0.3131546E+03  0.7818608E-02  0.1141883E+00
          2   -1    0    0  502    0  0.00000000000E+00  0.00000000000E+00  0.84428933779E+03  0.84428933779E+03  0.00000000000E+00 0. -1.
          1   -1    0    0  501    0 -0.00000000000E+00 -0.00000000000E+00 -0.83663560771E+03  0.83663560771E+03  0.00000000000E+00 0. -1.
         25    2    1    2    0    0  0.14916378548E+03 -0.36326006640E+03  0.32477685187E+03  0.52470196421E+03  0.12499774794E+03 0.  0.
          2    1    1    2  501    0  0.17204509228E+02  0.13922979427E+03 -0.68233421484E+03  0.69660671221E+03  0.00000000000E+00 0. -1.
          1    1    1    2  502    0 -0.16636829471E+03  0.22403027213E+03  0.36521109306E+03  0.45961626909E+03  0.00000000000E+00 0. -1.
         22    1    3    3    0    0  0.28646162868E+02 -0.12503546365E+03  0.17990525120E+03  0.22095331911E+03  0.00000000000E+00 0. -1.
         22    1    3    3    0    0  0.12051762261E+03 -0.23822460275E+03  0.14487160068E+03  0.30374864510E+03  0.00000000000E+00 0. -1.
</event>
<event>
 7    1  0.5957303E-006  0.7452071E+02  0.7818608E-02  0.1457333E+00
          2   -1    0    0  502    0  0.00000000000E+00  0.00000000000E+00  0.18802170176E+03  0.18802170176E+03  0.00000000000E+00 0. -1.
          1   -1    0    0  501    0 -0.00000000000E+00 -0.00000000000E+00 -0.34066239251E+03  0.34066239251E+03  0.00000000000E+00 0. -1.
         25    2    1    2    0    0  0.51978357062E+02  0.35700813423E+02  0.12078326140E+02  0.14052704413E+03  0.12500266592E+03 0.  0.
          2    1    1    2  501    0  0.24042192643E+02 -0.19116983657E+02 -0.26188299497E+03  0.26367819240E+03  0.00000000000E+00 0. -1.
          1    1    1    2  502    0 -0.76020549705E+02 -0.16583829766E+02  0.97163978080E+02  0.12447885774E+03  0.00000000000E+00 0. -1.
         22    1    3    3    0    0  0.82953252961E+02  0.47742069935E+02 -0.15977159806E+02  0.97035133091E+02  0.00000000000E+00 0. -1.
         22    1    3    3    0    0 -0.30974895899E+02 -0.12041256513E+02  0.28055485945E+02  0.43491911041E+02  0.00000000000E+00 0. -1.
</event>
<event>
 7    1  0.5957303E-006  0.1871552E+03  0.7818608E-02  0.1248331E+00
          2   -1    0    0  502    0  0.00000000000E+00  0.00000000000E+00  0.16164570843E+03  0.16164570843E+03  0.00000000000E+00 0. -1.
          1   -1    0    0  501    0 -0.00000000000E+00 -0.00000000000E+00 -0.15660762878E+04  0.15660762878E+04  0.00000000000E+00 0. -1.
         25    2    1    2    0    0 -0.47691732859E+02 -0.14894863792E+03 -0.14832628346E+03  0.24916797468E+03  0.12499518038E+03 0.  0.
          2    1    1    2  501    0  0.47441490093E+02 -0.55476196709E+02 -0.12714595215E+04  0.12735531470E+04  0.00000000000E+00 0. -1.
          1    1    1    2  502    0  0.25024276616E+00  0.20442483463E+03  0.15355225554E+02  0.20500087460E+03  0.00000000000E+00 0. -1.
         22    1    3    3    0    0  0.21644308535E+02  0.32952049988E+01 -0.51302881204E+02  0.55779208382E+02  0.00000000000E+00 0.  1.
         22    1    3    3    0    0 -0.69336041394E+02 -0.15224384292E+03 -0.97023402261E+02  0.19338876630E+03  0.00000000000E+00 0.  1.
</event>
<event>
 7    1  0.5957303E-006  0.3366704E+02  0.7818608E-02  0.1565688E+00
          2   -1    0    0  502    0  0.00000000000E+00  0.00000000000E+00  0.12686527926E+04  0.12686527926E+04  0.00000000000E+00 0. -1.
          1   -1    0    0  501    0 -0.00000000000E+00 -0.00000000000E+00 -0.42172237258E+02  0.42172237258E+02  0.00000000000E+00 0. -1.
         25    2    1    2    0    0 -0.35895147168E+02 -0.53323105859E+02  0.47058760478E+03  0.49113003729E+03  0.12499681815E+03 0.  0.
          2    1    1    2  501    0  0.13129750136E+02  0.29879788236E+02 -0.23120237279E+02  0.39996718059E+02  0.00000000000E+00 0. -1.
          1    1    1    2  502    0  0.22765397033E+02  0.23443317623E+02  0.77901318789E+03  0.77969827456E+03  0.00000000000E+00 0. -1.
         22    1    3    3    0    0 -0.44964410780E+01 -0.44290809191E+02  0.45067430415E+03  0.45286777560E+03  0.00000000000E+00 0. -1.
         22    1    3    3    0    0 -0.31398706090E+02 -0.90322966680E+01  0.19913300631E+02  0.38262261685E+02  0.00000000000E+00 0. -1.
</event>
<event>
 7    1  0.5957303E-006  0.8047629E+02  0.7818608E-02  0.1360500E+00
          2   -1    0    0  502    0  0.00000000000E+00  0.00000000000E+00  0.17679658056E+03  0.17679658056E+03  0.00000000000E+00 0. -1.
          1   -1    0    0  501    0 -0.00000000000E+00 -0.00000000000E+00 -0.99144410038E+03  0.99144410038E+03  0.00000000000E+00 0. -1.
         25    2    1    2    0    0 -0.40687079724E+02  0.36291446094E+01 -0.22475310555E+03  0.26039836729E+03  0.12499896834E+03 0.  0.
          2    1    1    2  501    0  0.73299982165E+02  0.47541158439E+02 -0.74041464220E+03  0.74555140099E+03  0.00000000000E+00 0. -1.
          1    1    1    2  502    0 -0.32612902441E+02 -0.51170303048E+02  0.15052022792E+03  0.16229091266E+03  0.00000000000E+00 0. -1.
         22    1    3    3    0    0 -0.77889538152E+02  0.11469803105E+02 -0.20023997604E+03  0.21516129889E+03  0.00000000000E+00 0.  1.
         22    1    3    3    0    0  0.37202458428E+02 -0.78406584959E+01 -0.24513129506E+02  0.45237068394E+02  0.00000000000E+00 0.  1.
</event>
<event>
 7    1  0.5957303E-006  0.5700607E+02  0.7818608E-02  0.1519107E+00
          2   -1    0    0  502    0  0.00000000000E+00  0.00000000000E+00  0.16029723607E+03  0.16029723607E+03  0.00000000000E+00 0. -1.
          1   -1    0    0  501    0 -0.00000000000E+00 -0.00000000000E+00 -0.10071374851E+04  0.10071374851E+04  0.00000000000E+00 0. -1.
         25    2    1    2    0    0 -0.28837032276E+02  0.13813013914E+02 -0.54244123924E+02  0.13996318355E+03  0.12499957594E+03 0.  0.
          2    1    1    2  501    0  0.54494616231E+02 -0.18480600828E+02 -0.90766363072E+03  0.90948582305E+03  0.00000000000E+00 0. -1.
          1    1    1    2  502    0 -0.25657583956E+02  0.46675869147E+01  0.11506750564E+03  0.11798571454E+03  0.00000000000E+00 0. -1.
         22    1    3    3    0    0 -0.71268361710E+02  0.58558646621E+01 -0.11302629351E+01  0.71517466580E+02  0.00000000000E+00 0.  1.
         22    1    3    3    0    0  0.42431329434E+02  0.79571492514E+01 -0.53113860989E+02  0.68445716965E+02  0.00000000000E+00 0.  1.
</event>
<event>
 7    1  0.5957303E-006  0.5892786E+02  0.7818608E-02  0.1418828E+00
          2   -1    0    0  502    0  0.00000000000E+00  0.00000000000E+00  0.16501641059E+04  0.16501641059E+04  0.00000000000E+00 0. -1.
          1   -1    0    0  501    0 -0.00000000000E+00 -0.00000000000E+00 -0.35353372442E+03  0.35353372442E+03  0.00000000000E+00 0. -1.
         25    2    1    2    0    0  0.50548834802E+02 -0.88002993197E+02  0.44642880581E+02  0.16708243541E+03  0.12499536761E+03 0.  0.
          2    1    1    2  501    0 -0.45928283510E+01  0.51634587240E+02 -0.28945448084E+03  0.29405972378E+03  0.00000000000E+00 0. -1.
          1    1    1    2  502    0 -0.45956006451E+02  0.36368405957E+02  0.15414419817E+04  0.15425556711E+04  0.00000000000E+00 0. -1.
         22    1    3    3    0    0  0.31879253457E+01  0.24165173967E+02 -0.17862243351E+02  0.30218839130E+02  0.00000000000E+00 0. -1.
         22    1    3    3    0    0  0.47360909456E+02 -0.11216816716E+03  0.62505123932E+02  0.13686359628E+03  0.00000000000E+00 0. -1.
</event>
<event>
 7    1  0.5957303E-006  0.3245460E+02  0.7818608E-02  0.1620992E+00
          2   -1    0    0  502    0  0.00000000000E+00  0.00000000000E+00  0.11561628814E+04  0.11561628814E+04  0.00000000000E+00 0. -1.
          1   -1    0    0  501    0 -0.00000000000E+00 -0.00000000000E+00 -0.68088710283E+03  0.68088710283E+03  0.00000000000E+00 0. -1.
         25    2    1    2    0    0  0.42648087531E+02 -0.32906867375E+02  0.96549785862E+02  0.16687939504E+03  0.12500060019E+03 0.  0.
          2    1    1    2  501    0 -0.12793903518E+02  0.20543739488E+02 -0.64524057902E+03  0.64569430384E+03  0.00000000000E+00 0. -1.
          1    1    1    2  502    0 -0.29854184012E+02  0.12363127887E+02  0.10239665717E+04  0.10244762854E+04  0.00000000000E+00 0. -1.
         22    1    3    3    0    0  0.51596879631E+02 -0.74946503009E+01 -0.13272087802E+02  0.53801078850E+02  0.00000000000E+00 0.  1.
         22    1    3    3    0    0 -0.89487921008E+01 -0.25412217074E+02  0.10982187366E+03  0.11307831619E+03  0.00000000000E+00 0.  1.
</event>
<event>
 7    1  0.5957303E-006  0.1308752E+03  0.7818608E-02  0.1343051E+00
          2   -1    0    0  502    0  0.00000000000E+00  0.00000000000E+00  0.18019716352E+03  0.18019716352E+03  0.00000000000E+00 0. -1.
          1   -1    0    0  501    0 -0.00000000000E+00 -0.00000000000E+00 -0.18702328120E+04  0.18702328120E+04  0.00000000000E+00 0. -1.
         25    2    1    2    0    0  0.43334760322E+02  0.14668297985E+03 -0.63049159670E+03  0.66071113233E+03  0.12500299534E+03 0.  0.
          2    1    1    2  501    0 -0.48960597721E+01 -0.12678234699E+03 -0.12184424171E+04  0.12250304726E+04  0.00000000000E+00 0. -1.
          1    1    1    2  502    0 -0.38438700550E+02 -0.19900632861E+02  0.15889836537E+03  0.16468837058E+03  0.00000000000E+00 0. -1.
         22    1    3    3    0    0  0.68360369445E+02  0.94896122608E+02 -0.54675516162E+03  0.55912397637E+03  0.00000000000E+00 0.  1.
         22    1    3    3    0    0 -0.25025609123E+02  0.51786857244E+02 -0.83736435078E+02  0.10158715595E+03  0.00000000000E+00 0.  1.
</event>
<event>
 7    1  0.5957303E-006  0.6848877E+02  0.7818608E-02  0.1394626E+00
          2   -1    0    0  502    0  0.00000000000E+00  0.00000000000E+00  0.48229547248E+03  0.48229547248E+03  0.00000000000E+00 0. -1.
          1   -1    0    0  501    0 -0.00000000000E+00 -0.00000000000E+00 -0.11058107332E+03  0.11058107332E+03  0.00000000000E+00 0. -1.
         25    2    1    2    0    0 -0.77621684875E+02  0.29808041564E+02  0.13747926410E+03  0.20356672036E+03  0.12500086511E+03 0.  0.
          2    1    1    2  501    0  0.12629683097E+02 -0.52422118299E+02 -0.63741861951E+02  0.83490193119E+02  0.00000000000E+00 0. -1.
          1    1    1    2  502    0  0.64992001778E+02  0.22614076735E+02  0.29797699701E+03  0.30581963232E+03  0.00000000000E+00 0. -1.
         22    1    3    3    0    0 -0.44958555477E+00  0.58777859897E+02  0.24425120280E+02  0.63652379704E+02  0.00000000000E+00 0. -1.
         22    1    3    3    0    0 -0.77172099320E+02 -0.28969818333E+02  0.11305414382E+03  0.13991434066E+03  0.00000000000E+00 0. -1.
</event>
<event>
 7    1  0.5957303E-006  0.8168637E+02  0.7818608E-02  0.1354787E+00
          2   -1    0    0  502    0  0.00000000000E+00  0.00000000000E+00  0.30451938045E+03  0.30451938045E+03  0.00000000000E+00 0. -1.
          1   -1    0    0  501    0 -0.00000000000E+00 -0.00000000000E+00 -0.20313077015E+03  0.20313077015E+03  0.00000000000E+00 0. -1.
         25    2    1    2    0    0  0.41085524229E+02 -0.28130838052E+02  0.17648472649E+03  0.22192315235E+03  0.12499464994E+03 0.  0.
          2    1    1    2  501    0 -0.11427971251E+02  0.83408825122E+02 -0.15962398484E+03  0.18046453161E+03  0.00000000000E+00 0. -1.
          1    1    1    2  502    0 -0.29657552978E+02 -0.55277987070E+02  0.84527868656E+02  0.10526246664E+03  0.00000000000E+00 0. -1.
         22    1    3    3    0    0  0.77120345331E+02 -0.48695748451E+02  0.13743998552E+03  0.16495021431E+03  0.00000000000E+00 0.  1.
         22    1    3    3    0    0 -0.36034821102E+02  0.20564910398E+02  0.39044740963E+02  0.56972938036E+02  0.00000000000E+00 0.  1.
</event>
<event>
 7    1  0.5957303E-006  0.1801931E+03  0.7818608E-02  0.1320449E+00
          2   -1    0    0  502    0  0.00000000000E+00  0.00000000000E+00  0.11981742843E+04  0.11981742843E+04  0.00000000000E+00 0. -1.
          1   -1    0    0  501    0 -0.00000000000E+00 -0.00000000000E+00 -0.97055625684E+03  0.97055625684E+03  0.00000000000E+00 0. -1.
         25    2    1    2    0    0 -0.58819648376E+02  0.18852439075E+03  0.84797572251E+03  0.87959635962E+03  0.12500293176E+03 0.  0.
          2    1    1    2  501    0  0.75179499598E+01 -0.37588687546E+02 -0.93533105504E+03  0.93611623825E+03  0.00000000000E+00 0. -1.
          1    1    1    2  502    0  0.51301698416E+02 -0.15093570321E+03  0.31497336002E+03  0.35301794329E+03  0.00000000000E+00 0. -1.
         22    1    3    3    0    0 -0.80147486361E+02  0.13654241017E+03  0.75109911706E+03  0.76760493289E+03  0.00000000000E+00 0.  1.
         22    1    3    3    0    0  0.21327837985E+02  0.51981980583E+02  0.96876605451E+02  0.11199142674E+03  0.00000000000E+00 0.  1.
</event>
<event>
 7    1  0.5957303E-006  0.9770086E+02  0.7818608E-02  0.1391006E+00
          2   -1    0    0  502    0  0.00000000000E+00  0.00000000000E+00  0.56566591948E+03  0.56566591948E+03  0.00000000000E+00 0. -1.
          1   -1    0    0  501    0 -0.00000000000E+00 -0.00000000000E+00 -0.18081714170E+04  0.18081714170E+04  0.00000000000E+00 0. -1.
         25    2    1    2    0    0  0.19253136076E+02  0.62175645283E+02 -0.84785946391E+02  0.16447479571E+03  0.12500723021E+03 0.  0.
          2    1    1    2  501    0 -0.60377124708E+01 -0.98773362389E+02 -0.16813644081E+04  0.16842739991E+04  0.00000000000E+00 0. -1.
          1    1    1    2  502    0 -0.13215423605E+02  0.36597717106E+02  0.52364485701E+03  0.52508854167E+03  0.00000000000E+00 0. -1.
         22    1    3    3    0    0  0.37058607825E+02  0.64342649272E+02  0.35496605682E+01  0.74336512020E+02  0.00000000000E+00 0. -1.
         22    1    3    3    0    0 -0.17805471749E+02 -0.21670039887E+01 -0.88335606959E+02  0.90138283694E+02  0.00000000000E+00 0. -1.
</event>
<event>
 7    1  0.5957303E-006  0.1082148E+03  0.7818608E-02  0.1277873E+00
          2   -1    0    0  502    0  0.00000000000E+00  0.00000000000E+00  0.25388213695E+03  0.25388213695E+03  0.00000000000E+00 0. -1.
          1   -1    0    0  501    0 -0.00000000000E+00 -0.00000000000E+00 -0.14421507269E+04  0.14421507269E+04  0.00000000000E+00 0. -1.
         25    2    1    2    0    0  0.25242564318E+02 -0.19193189267E+03 -0.65549460195E+03  0.69481902465E+03  0.12500106137E+03 0.  0.
          2    1    1    2  501    0 -0.39174939055E+02  0.86071893193E+02 -0.75170692358E+03  0.75763206480E+03  0.00000000000E+00 0. -1.
          1    1    1    2  502    0  0.13932374737E+02  0.10585999948E+03  0.21893293557E+03  0.24358177443E+03  0.00000000000E+00 0. -1.
         22    1    3    3    0    0  0.41285991614E+02 -0.77098024486E+02 -0.45398159190E+03  0.46232880536E+03  0.00000000000E+00 0. -1.
         22    1    3    3    0    0 -0.16043427296E+02 -0.11483386819E+03 -0.20151301005E+03  0.23249021928E+03  0.00000000000E+00 0. -1.
</event>
<event>
 7    1  0.5957303E-006  0.2236326E+03  0.7818608E-02  0.1253006E+00
          2   -1    0    0  502    0  0.00000000000E+00  0.00000000000E+00  0.94293218404E+03  0.94293218404E+03  0.00000000000E+00 0. -1.
          1   -1    0    0  501    0 -0.00000000000E+00 -0.00000000000E+00 -0.49697186921E+03  0.49697186921E+03  0.00000000000E+00 0. -1.
         25    2    1    2    0    0  0.15822585483E+03  0.20515625838E+03  0.37973109379E+03  0.47638737117E+03  0.12499884930E+03 0.  0.
          2    1    1    2  501    0 -0.11062836502E+02 -0.57245269933E+02 -0.42543494503E+03  0.42941157383E+03  0.00000000000E+00 0. -1.
          1    1    1    2  502    0 -0.14716301833E+03 -0.14791098845E+03  0.49166416607E+03  0.53410510825E+03  0.00000000000E+00 0. -1.
         22    1    3    3    0    0 -0.27061568746E+01  0.65835908769E+02  0.14643495955E+03  0.16057673414E+03  0.00000000000E+00 0. -1.
         22    1    3    3    0    0  0.16093201171E+03  0.13932034961E+03  0.23329613424E+03  0.31581063703E+03  0.00000000000E+00 0. -1.
</event>
<event>
 7    1  0.5957303E-006  0.1101211E+03  0.7818608E-02  0.1283205E+00
          2   -1    0    0  502    0  0.00000000000E+00  0.00000000000E+00  0.39494220942E+03  0.39494220942E+03  0.00000000000E+00 0. -1.
          1   -1    0    0  501    0 -0.00000000000E+00 -0.00000000000E+00 -0.72393572182E+03  0.72393572182E+03  0.00000000000E+00 0. -1.
         25    2    1    2    0    0 -0.49778018232E+02 -0.36160278884E+01 -0.45236990728E+03  0.47196716173E+03  0.12499416779E+03 0.  0.
          2    1    1    2  501    0 -0.15180190760E+02 -0.87022977536E+02 -0.24583621574E+03  0.26122572955E+03  0.00000000000E+00 0. -1.
          1    1    1    2  502    0  0.64958208992E+02  0.90639005424E+02  0.36921261061E+03  0.38568503997E+03  0.00000000000E+00 0. -1.
         22    1    3    3    0    0 -0.30148229646E+02 -0.13996532670E+02 -0.44812939604E+03  0.44936040577E+03  0.00000000000E+00 0. -1.
         22    1    3    3    0    0 -0.19629788585E+02  0.10380504782E+02 -0.42405112374E+01  0.22606755959E+02  0.00000000000E+00 0. -1.
</event>
<event>
 7    1  0.5957303E-006  0.1427397E+03  0.7818608E-02  0.1297320E+00
          2   -1    0    0  502    0  0.00000000000E+00  0.00000000000E+00  0.23844342650E+04  0.23844342650E+04  0.00000000000E+00 0. -1.
          1   -1    0    0  501    0 -0.00000000000E+00 -0.00000000000E+00 -0.25331477733E+03  0.25331477733E+03  0.00000000000E+00 0. -1.
         25    2    1    2    0    0  0.88055248870E+02 -0.47135820666E+02  0.29713265617E+03  0.33747235093E+03  0.12499703931E+03 0.  0.
          2    1    1    2  501    0 -0.14386452276E+03  0.25894213878E+02 -0.20975362705E+03  0.25566402814E+03  0.00000000000E+00 0. -1.
          1    1    1    2  502    0  0.55809273894E+02  0.21241606787E+02  0.20437404586E+04  0.20446126633E+04  0.00000000000E+00 0. -1.
         22    1    3    3    0    0  0.10066487409E+03  0.85291877604E+01  0.21381062451E+03  0.23647652541E+03  0.00000000000E+00 0. -1.
         22    1    3    3    0    0 -0.12609625218E+02 -0.55665008426E+02  0.83322031660E+02  0.10099582551E+03  0.00000000000E+00 0. -1.
</event>
<event>
 7    1  0.5957303E-006  0.1457377E+03  0.7818608E-02  0.1280543E+00
          2   -1    0    0  502    0  0.00000000000E+00  0.00000000000E+00  0.13008025310E+04  0.13008025310E+04  0.00000000000E+00 0. -1.
          1   -1    0    0  501    0 -0.00000000000E+00 -0.00000000000E+00 -0.10298738096E+03  0.10298738096E+03  0.00000000000E+00 0. -1.
         25    2    1    2    0    0 -0.18300943921E+03  0.27443041040E+02  0.82008956178E+03  0.84995065428E+03  0.12499459998E+03 0.  0.
          2    1    1    2  501    0  0.58833288121E+02 -0.34997395705E+02 -0.64738101588E+02  0.94218869100E+02  0.00000000000E+00 0. -1.
          1    1    1    2  502    0  0.12417615108E+03  0.75543546652E+01  0.44246368979E+03  0.45962038854E+03  0.00000000000E+00 0. -1.
         22    1    3    3    0    0 -0.12059862605E+03  0.68579546069E+02  0.40288119250E+03  0.42609909412E+03  0.00000000000E+00 0.  1.
         22    1    3    3    0    0 -0.62410813158E+02 -0.41136505029E+02  0.41720836928E+03  0.42385156016E+03  0.00000000000E+00 0.  1.
</event>
<event>
 7    1  0.5957303E-006  0.6439256E+02  0.7818608E-02  0.1414409E+00
          2   -1    0    0  502    0  0.00000000000E+00  0.00000000000E+00  0.26906117344E+03  0.26906117344E+03  0.00000000000E+00 0. -1.
          1   -1    0    0  501    0 -0.00000000000E+00 -0.00000000000E+00 -0.10825477190E+03  0.10825477190E+03  0.00000000000E+00 0. -1.
         25    2    1    2    0    0  0.10099739134E+03  0.41784510584E+01  0.13252660233E+02  0.16130183660E+03  0.12499886790E+03 0.  0.
          2    1    1    2  501    0 -0.52813515043E+02 -0.13552977382E+02 -0.59540981226E+01  0.54848900185E+02  0.00000000000E+00 0. -1.
          1    1    1    2  502    0 -0.48183876297E+02  0.93745263239E+01  0.15350783943E+03  0.16116520854E+03  0.00000000000E+00 0. -1.
         22    1    3    3    0    0  0.25069619835E+02 -0.26421024053E+01  0.64629557999E+02  0.69371797663E+02  0.00000000000E+00 0. -1.
         22    1    3    3    0    0  0.75927771505E+02  0.68205534637E+01 -0.51376897766E+02  0.91930038939E+02  0.00000000000E+00 0. -1.
</event>
<event>
 7    1  0.5957303E-006  0.1194327E+03  0.7818608E-02  0.1281187E+00
          2   -1    0    0  502    0  0.00000000000E+00  0.00000000000E+00  0.15296942588E+04  0.15296942588E+04  0.00000000000E+00 0. -1.
          1   -1    0    0  501    0 -0.00000000000E+00 -0.00000000000E+00 -0.31877119961E+03  0.31877119961E+03  0.00000000000E+00 0. -1.
         25    2    1    2    0    0 -0.16081659077E+03 -0.61101513929E+02 -0.12302687367E+03  0.24567450142E+03  0.12499991253E+03 0.  0.
          2    1    1    2  501    0  0.42305403758E+02  0.71435849045E+02 -0.11893383549E+03  0.14504511347E+03  0.00000000000E+00 0. -1.
          1    1    1    2  502    0  0.11851118701E+03 -0.10334335116E+02  0.14528837684E+04  0.14577458436E+04  0.00000000000E+00 0. -1.
         22    1    3    3    0    0 -0.50390902977E+02  0.32734123312E+02 -0.79169122247E+01  0.60608938541E+02  0.00000000000E+00 0.  1.
         22    1    3    3    0    0 -0.11042568779E+03 -0.93835637241E+02 -0.11510996144E+03  0.18506556288E+03  0.00000000000E+00 0.  1.
</event>
<event>
 7    1  0.5957303E-006  0.3826889E+02  0.7818608E-02  0.1600289E+00
          2   -1    0    0  502    0  0.00000000000E+00  0.00000000000E+00  0.95880186444E+02  0.95880186444E+02  0.00000000000E+00 0. -1.
          1   -1    0    0  501    0 -0.00000000000E+00 -0.00000000000E+00 -0.44453807230E+03  0.44453807230E+03  0.00000000000E+00 0. -1.
         25    2    1    2    0    0  0.11000716250E+02 -0.23757917584E+02  0.45205071594E+01  0.12778825150E+03  0.12499579125E+03 0.  0.
          2    1    1    2  501    0  0.74871924740E+01  0.37787174812E+02 -0.37723883519E+03  0.37920056356E+03  0.00000000000E+00 0. -1.
          1    1    1    2  502    0 -0.18487908724E+02 -0.14029257227E+02  0.24060442175E+02  0.33429443684E+02  0.00000000000E+00 0. -1.
         22    1    3    3    0    0  0.53884234815E+02  0.25696613045E+02  0.14858070690E+02  0.61519012900E+02  0.00000000000E+00 0.  1.
         22    1    3    3    0    0 -0.42883518565E+02 -0.49454530629E+02 -0.10337563531E+02  0.66269238595E+02  0.00000000000E+00 0.  1.
</event>
<event>
 7    1  0.5957303E-006  0.2071892E+03  0.7818608E-02  0.1295374E+00
          2   -1    0    0  502    0  0.00000000000E+00  0.00000000000E+00  0.14799972872E+04  0.14799972872E+04  0.00000000000E+00 0. -1.
          1   -1    0    0  501    0 -0.00000000000E+00 -0.00000000000E+00 -0.91394856622E+03  0.91394856622E+03  0.00000000000E+00 0. -1.
         25    2    1    2    0    0  0.21930706196E+03  0.57219134931E+02 -0.12457288634E+02  0.25912885638E+03  0.12499185309E+03 0.  0.
          2    1    1    2  501    0 -0.13824278672E+02 -0.39541797039E+02 -0.76974444122E+03  0.77088336937E+03  0.00000000000E+00 0. -1.
          1    1    1    2  502    0 -0.20548278329E+03 -0.17677337892E+02  0.13482504508E+04  0.13639336276E+04  0.00000000000E+00 0. -1.
         22    1    3    3    0    0  0.16701154628E+02 -0.31527940288E+02  0.93014491521E+01  0.36870808793E+02  0.00000000000E+00 0.  1.
         22    1    3    3    0    0  0.20260590733E+03  0.88747075219E+02 -0.21758737786E+02  0.22225804759E+03  0.00000000000E+00 0.  1.
</event>
<event>
 7    1  0.5957303E-006  0.7210778E+02  0.7818608E-02  0.1362390E+00
          2   -1    0    0  502    0  0.00000000000E+00  0.00000000000E+00  0.33427652818E+03  0.33427652818E+03  0.00000000000E+00 0. -1.
          1   -1    0    0  501    0 -0.00000000000E+00 -0.00000000000E+00 -0.22657711075E+03  0.22657711075E+03  0.00000000000E+00 0. -1.
         25    2    1    2    0    0  0.26544208674E+02  0.18522234196E+02  0.29396617761E+02  0.13242634941E+03  0.12499963483E+03 0.  0.
          2    1    1    2  501    0  0.28257313901E+02 -0.66340457058E+02 -0.16201917986E+03  0.17734076428E+03  0.00000000000E+00 0. -1.
          1    1    1    2  502    0 -0.54801522575E+02  0.47818222862E+02  0.24032197953E+03  0.25108652525E+03  0.00000000000E+00 0. -1.
         22    1    3    3    0    0 -0.47197085251E+02  0.27360722135E+02  0.16909385747E+02  0.57114808047E+02  0.00000000000E+00 0. -1.
         22    1    3    3    0    0  0.73741293925E+02 -0.88384879397E+01  0.12487232014E+02  0.75311541361E+02  0.00000000000E+00 0. -1.
</event>
<event>
 7    1  0.5957303E-006  0.6810767E+02  0.7818608E-02  0.1369365E+00
          2   -1    0    0  502    0  0.00000000000E+00  0.00000000000E+00  0.13425223620E+04  0.13425223620E+04  0.00000000000E+00 0. -1.
          1   -1    0    0  501    0 -0.00000000000E+00 -0.00000000000E+00 -0.14203499961E+03  0.14203499961E+03  0.00000000000E+00 0. -1.
         25    2    1    2    0    0 -0.68906668941E+01 -0.28559256047E+02  0.12016453403E+03  0.17586232466E+03  0.12499971840E+03 0.  0.
          2    1    1    2  501    0  0.71458547043E+02  0.12277493355E+02 -0.10164388589E+03  0.12485407613E+03  0.00000000000E+00 0. -1.
          1    1    1    2  502    0 -0.64567880148E+02  0.16281762692E+02  0.11819667143E+04  0.11838409609E+04  0.00000000000E+00 0. -1.
         22    1    3    3    0    0 -0.65467198267E+02 -0.20838603383E+02  0.73160757851E+02  0.10036283141E+03  0.00000000000E+00 0. -1.
         22    1    3    3    0    0  0.58576531373E+02 -0.77206526639E+01  0.47003776179E+02  0.75499493246E+02  0.00000000000E+00 0. -1.
</event>
<event>
 7    1  0.1103424E-005  0.6822128E+02  0.7818608E-02  0.1367280E+00
          2   -1    0    0  502    0  0.00000000000E+00  0.00000000000E+00  0.92530372922E+03  0.92530372922E+03  0.00000000000E+00 0. -1.
          1   -1    0    0  501    0 -0.00000000000E+00 -0.00000000000E+00 -0.16551595702E+04  0.16551595702E+04  0.00000000000E+00 0. -1.
         25    2    1    2    0    0 -0.39520549781E+02  0.17024232511E+02 -0.27086315741E+03  0.30139858926E+03  0.12499024450E+03 0.  0.
          2    1    1    2  501    0 -0.26278408193E+01 -0.70668021835E+02 -0.13668347809E+04  0.13686629216E+04  0.00000000000E+00 0. -1.
          1    1    1    2  502    0  0.42148390601E+02  0.53643789324E+02  0.90784209728E+03  0.91040178853E+03  0.00000000000E+00 0. -1.
         22    1    3    3    0    0  0.11195456939E+02  0.51538236931E+02 -0.51861572205E+02  0.73967227835E+02  0.00000000000E+00 0. -1.
         22    1    3    3    0    0 -0.50716006721E+02 -0.34514004420E+02 -0.21900158520E+03  0.22743136143E+03  0.00000000000E+00 0. -1.
</event>
<event>
 7    1  0.5957303E-006  0.1110779E+03  0.7818608E-02  0.1437999E+00
          2   -1    0    0  502    0  0.00000000000E+00  0.00000000000E+00  0.91876124521E+02  0.91876124521E+02  0.00000000000E+00 0. -1.
          1   -1    0    0  501    0 -0.00000000000E+00 -0.00000000000E+00 -0.28320076758E+04  0.28320076758E+04  0.00000000000E+00 0. -1.
         25    2    1    2    0    0 -0.21775124663E+02 -0.92381075747E+02 -0.45577866054E+02  0.16343334809E+03  0.12499879273E+03 0.  0.
          2    1    1    2  501    0  0.72246248741E+01  0.11118109464E+03 -0.27219205653E+04  0.27241998816E+04  0.00000000000E+00 0. -1.
          1    1    1    2  502    0  0.14550499789E+02 -0.18800018889E+02  0.27366880020E+02  0.36250570704E+02  0.00000000000E+00 0. -1.
         22    1    3    3    0    0  0.33949636895E+02  0.19753338522E+01  0.16165019068E+02  0.37653520826E+02  0.00000000000E+00 0.  1.
         22    1    3    3    0    0 -0.55724761559E+02 -0.94356409599E+02 -0.61742885122E+02  0.12577982726E+03  0.00000000000E+00 0.  1.
</event>
<event>
 7    1  0.5957303E-006  0.1431644E+03  0.7818608E-02  0.1291698E+00
          2   -1    0    0  502    0  0.00000000000E+00  0.00000000000E+00  0.15184881085E+03  0.15184881085E+03  0.00000000000E+00 0. -1.
          1   -1    0    0  501    0 -0.00000000000E+00 -0.00000000000E+00 -0.14236293601E+04  0.14236293601E+04  0.00000000000E+00 0. -1.
         25    2    1    2    0    0  0.10265113458E+03  0.79285627670E+02 -0.51777339789E+03  0.54821335360E+03  0.12500049327E+03 0.  0.
          2    1    1    2  501    0 -0.14821341439E+03 -0.36163933665E+02 -0.87648096805E+03  0.88965944814E+03  0.00000000000E+00 0. -1.
          1    1    1    2  502    0  0.45562279817E+02 -0.43121694005E+02  0.12247381674E+03  0.13760536917E+03  0.00000000000E+00 0. -1.
         22    1    3    3    0    0  0.98540199746E+02  0.10873018562E+03 -0.46545644348E+03  0.48803906094E+03  0.00000000000E+00 0. -1.
         22    1    3    3    0    0  0.41109348298E+01 -0.29444557947E+02 -0.52316954418E+02  0.60174292663E+02  0.00000000000E+00 0. -1.
</event>
<event>
 7    1  0.5957303E-006  0.4738431E+02  0.7818608E-02  0.1545308E+00
          2   -1    0    0  502    0  0.00000000000E+00  0.00000000000E+00  0.58343505039E+03  0.58343505039E+03  0.00000000000E+00 0. -1.
          1   -1    0    0  501    0 -0.00000000000E+00 -0.00000000000E+00 -0.36019875909E+04  0.36019875909E+04  0.00000000000E+00 0. -1.
         25    2    1    2    0    0 -0.84374986990E+01 -0.59424867375E+02 -0.19949856618E+04  0.19997988964E+04  0.12500131644E+03 0.  0.
          2    1    1    2  501    0 -0.17501481975E+02  0.19774867131E+02 -0.16035204776E+04  0.16037379055E+04  0.00000000000E+00 0. -1.
          1    1    1    2  502    0  0.25938980674E+02  0.39650000244E+02  0.57995359890E+03  0.58188583942E+03  0.00000000000E+00 0. -1.
         22    1    3    3    0    0 -0.18799837518E+02 -0.97325672896E+02 -0.13732279250E+04  0.13768008768E+04  0.00000000000E+00 0.  1.
         22    1    3    3    0    0  0.10362338819E+02  0.37900805521E+02 -0.62175773678E+03  0.62299801956E+03  0.00000000000E+00 0.  1.
</event>
<event>
 7    1  0.5957303E-006  0.5153472E+02  0.7818608E-02  0.1440880E+00
          2   -1    0    0  502    0  0.00000000000E+00  0.00000000000E+00  0.16363985284E+03  0.16363985284E+03  0.00000000000E+00 0. -1.
          1   -1    0    0  501    0 -0.00000000000E+00 -0.00000000000E+00 -0.96275771461E+02  0.96275771461E+02  0.00000000000E+00 0. -1.
         25    2    1    2    0    0 -0.71330230182E+01 -0.43982616844E+02  0.48460276722E+02  0.14127433988E+03  0.12499876035E+03 0.  0.
          2    1    1    2  501    0  0.51288398188E+02  0.50326411329E+01 -0.10859792757E+02  0.52666520335E+02  0.00000000000E+00 0. -1.
          1    1    1    2  502    0 -0.44155375170E+02  0.38949975711E+02  0.29763597409E+02  0.65974764077E+02  0.00000000000E+00 0. -1.
         22    1    3    3    0    0 -0.33335596520E+02 -0.12813803650E+02 -0.33999009768E+02  0.49309108941E+02  0.00000000000E+00 0.  1.
         22    1    3    3    0    0  0.26202573502E+02 -0.31168813193E+02  0.82459286490E+02  0.91965230944E+02  0.00000000000E+00 0.  1.
</event>
<event>
 7    1  0.5957303E-006  0.1430824E+03  0.7818608E-02  0.1303126E+00
          2   -1    0    0  502    0  0.00000000000E+00  0.00000000000E+00  0.40048623568E+03  0.40048623568E+03  0.00000000000E+00 0. -1.
          1   -1    0    0  501    0 -0.00000000000E+00 -0.00000000000E+00 -0.59800462052E+03  0.59800462052E+03  0.00000000000E+00 0. -1.
         25    2    1    2    0    0  0.51236151146E+02 -0.73076681133E+02 -0.26698297570E+03  0.30800873862E+03  0.12499651691E+03 0.  0.
          2    1    1    2  501    0  0.32460052506E+02 -0.46206091451E+02 -0.29374970746E+03  0.29912798019E+03  0.00000000000E+00 0. -1.
          1    1    1    2  502    0 -0.83696203653E+02  0.11928277258E+03  0.36321429833E+03  0.39135413739E+03  0.00000000000E+00 0. -1.
         22    1    3    3    0    0  0.54076550042E+02  0.20615379127E+02 -0.12669547628E+03  0.13928751139E+03  0.00000000000E+00 0. -1.
         22    1    3    3    0    0 -0.28403988954E+01 -0.93692060260E+02 -0.14028749943E+03  0.16872122723E+03  0.00000000000E+00 0. -1.
</event>
<event>
 7    1  0.6371953E-006  0.5926464E+02  0.7818608E-02  0.1480471E+00
          2   -1    0    0  502    0  0.00000000000E+00  0.00000000000E+00  0.17393716395E+04  0.17393716395E+04  0.00000000000E+00 0. -1.
          1   -1    0    0  501    0 -0.00000000000E+00 -0.00000000000E+00 -0.12292774562E+04  0.12292774562E+04  0.00000000000E+00 0. -1.
         25    2    1    2    0    0 -0.77069160107E+02 -0.18223240436E+02 -0.95189951234E+03  0.96333395096E+03  0.12501150962E+03 0.  0.
          2    1    1    2  501    0  0.45056233275E+02  0.24968427554E+02 -0.26906285919E+03  0.27394946382E+03  0.00000000000E+00 0. -1.
          1    1    1    2  502    0  0.32012926832E+02 -0.67451871180E+01  0.17310565548E+04  0.17313656809E+04  0.00000000000E+00 0. -1.
         22    1    3    3    0    0 -0.10538222198E+03 -0.69759617018E+01 -0.86126507599E+03  0.86771631762E+03  0.00000000000E+00 0. -1.
         22    1    3    3    0    0  0.28313061871E+02 -0.11247278735E+02 -0.90634436350E+02  0.95617633332E+02  0.00000000000E+00 0. -1.
</event>
<event>
 7    1  0.5957303E-006  0.1191711E+03  0.7818608E-02  0.1357764E+00
          2   -1    0    0  502    0  0.00000000000E+00  0.00000000000E+00  0.28748702691E+04  0.28748702691E+04  0.00000000000E+00 0. -1.
          1   -1    0    0  501    0 -0.00000000000E+00 -0.00000000000E+00 -0.25375954883E+03  0.25375954883E+03  0.00000000000E+00 0. -1.
         25    2    1    2    0    0 -0.43206083955E+02 -0.15309997953E+03  0.15145310245E+04  0.15279843214E+04  0.12500197108E+03 0.  0.
          2    1    1    2  501    0  0.41836980004E+02  0.11119084517E+03 -0.23240244188E+03  0.26100695765E+03  0.00000000000E+00 0. -1.
          1    1    1    2  502    0  0.13691039509E+01  0.41909134354E+02  0.13389821376E+04  0.13396385389E+04  0.00000000000E+00 0. -1.
         22    1    3    3    0    0  0.66554053783E+01  0.18390016915E+02  0.26962147585E+03  0.27032984923E+03  0.00000000000E+00 0. -1.
         22    1    3    3    0    0 -0.49861489334E+02 -0.17148999644E+03  0.12449095486E+04  0.12576544721E+04  0.00000000000E+00 0. -1.
</event>
<event>
 7    1  0.5957303E-006  0.7824813E+02  0.7818608E-02  0.1499581E+00
          2   -1    0    0  502    0  0.00000000000E+00  0.00000000000E+00  0.24179095021E+04  0.24179095021E+04  0.00000000000E+00 0. -1.
          1   -1    0    0  501    0 -0.00000000000E+00 -0.00000000000E+00 -0.51789288184E+03  0.51789288184E+03  0.00000000000E+00 0. -1.
         25    2    1    2    0    0  0.59846787773E+02  0.31005638804E+01  0.97294581286E+02  0.16935977224E+03  0.12500098161E+03 0.  0.
          2    1    1    2  501    0  0.16990179900E+02  0.13483349051E+02 -0.48093962507E+03  0.48142848885E+03  0.00000000000E+00 0. -1.
          1    1    1    2  502    0 -0.76836967673E+02 -0.16583912932E+02  0.22836616641E+04  0.22850141229E+04  0.00000000000E+00 0. -1.
         22    1    3    3    0    0 -0.87703035756E+00  0.38070596439E+02  0.91427639265E+02  0.99041166779E+02  0.00000000000E+00 0. -1.
         22    1    3    3    0    0  0.60723818130E+02 -0.34970032559E+02  0.58669420218E+01  0.70318605462E+02  0.00000000000E+00 0. -1.
</event>
<event>
 7    1  0.5957303E-006  0.1191234E+03  0.7818608E-02  0.1336469E+00
          2   -1    0    0  502    0  0.00000000000E+00  0.00000000000E+00  0.12440596113E+04  0.12440596113E+04  0.00000000000E+00 0. -1.
          1   -1    0    0  501    0 -0.00000000000E+00 -0.00000000000E+00 -0.45737671337E+03  0.45737671337E+03  0.00000000000E+00 0. -1.
         25    2    1    2    0    0 -0.89204923620E+02 -0.51537060498E+02 -0.25072959655E+03  0.29850140155E+03  0.12499667649E+03 0.  0.
          2    1    1    2  501    0  0.20390072958E+02 -0.46032486159E+02 -0.17630823503E+03  0.18335577056E+03  0.00000000000E+00 0. -1.
          1    1    1    2  502    0  0.68814850662E+02  0.97569546657E+02  0.12137207295E+04  0.12195791526E+04  0.00000000000E+00 0. -1.
         22    1    3    3    0    0 -0.25079359829E+02  0.32513106949E+02 -0.22143551910E+02  0.46652045015E+02  0.00000000000E+00 0.  1.
         22    1    3    3    0    0 -0.64125563791E+02 -0.84050167447E+02 -0.22858604464E+03  0.25184935653E+03  0.00000000000E+00 0.  1.
</event>
<event>
 7    1  0.5957303E-006  0.1299253E+03  0.7818608E-02  0.1369735E+00
          2   -1    0    0  502    0  0.00000000000E+00  0.00000000000E+00  0.46661153356E+02  0.46661153356E+02  0.00000000000E+00 0. -1.
          1   -1    0    0  501    0 -0.00000000000E+00 -0.00000000000E+00 -0.18957184734E+04  0.18957184734E+04  0.00000000000E+00 0. -1.
         25    2    1    2    0    0  0.85479763388E+02 -0.64582055472E+02 -0.70659594265E+03  0.72552123282E+03  0.12500240504E+03 0.  0.
          2    1    1    2  501    0 -0.10387350760E+03  0.94123302639E+02 -0.11662892804E+04  0.11746827603E+04  0.00000000000E+00 0. -1.
          1    1    1    2  502    0  0.18393744213E+02 -0.29541247167E+02  0.23827903034E+02  0.42175633645E+02  0.00000000000E+00 0. -1.
         22    1    3    3    0    0  0.11724714692E+02 -0.81422214429E+02 -0.26443359006E+03  0.27693351096E+03  0.00000000000E+00 0.  1.
         22    1    3    3    0    0  0.73755048696E+02  0.16840158957E+02 -0.44216235258E+03  0.44858772186E+03  0.00000000000E+00 0.  1.
</event>
<event>
 7    1  0.5957303E-006  0.7074468E+02  0.7818608E-02  0.1381760E+00
          2   -1    0    0  502    0  0.00000000000E+00  0.00000000000E+00  0.13217798334E+04  0.13217798334E+04  0.00000000000E+00 0. -1.
          1   -1    0    0  501    0 -0.00000000000E+00 -0.00000000000E+00 -0.41217941848E+04  0.41217941848E+04  0.00000000000E+00 0. -1.
         25    2    1    2    0    0 -0.43444116346E+02  0.10991884027E+03 -0.24087970063E+04  0.24149323722E+04  0.12500320727E+03 0.  0.
          2    1    1    2  501    0 -0.43091113347E+01 -0.57743834610E+02 -0.17084902697E+04  0.17094712401E+04  0.00000000000E+00 0. -1.
          1    1    1    2  502    0  0.47753227681E+02 -0.52175005663E+02  0.13172729246E+04  0.13191704059E+04  0.00000000000E+00 0. -1.
         22    1    3    3    0    0 -0.61421812015E+02  0.10476504356E+03 -0.12286657293E+04  0.12346529179E+04  0.00000000000E+00 0. -1.
         22    1    3    3    0    0  0.17977695669E+02  0.51537967169E+01 -0.11801312771E+04  0.11802794543E+04  0.00000000000E+00 0. -1.
</event>
<event>
 7    1  0.5957303E-006  0.1171869E+03  0.7818608E-02  0.1290408E+00
          2   -1    0    0  502    0  0.00000000000E+00  0.00000000000E+00  0.71086047375E+03  0.71086047375E+03  0.00000000000E+00 0. -1.
          1   -1    0    0  501    0 -0.00000000000E+00 -0.00000000000E+00 -0.45411671797E+03  0.45411671797E+03  0.00000000000E+00 0. -1.
         25    2    1    2    0    0 -0.79806421831E+02 -0.19984570062E+02 -0.29109087565E+02  0.15244905760E+03  0.12499971271E+03 0.  0.
          2    1    1    2  501    0 -0.28868801402E+02  0.71996628010E+02 -0.35350618005E+03  0.36191648412E+03  0.00000000000E+00 0. -1.
          1    1    1    2  502    0  0.10867522323E+03 -0.52012057948E+02  0.63935902340E+03  0.65061165000E+03  0.00000000000E+00 0. -1.
         22    1    3    3    0    0 -0.74249139877E+02  0.12750275978E+01  0.36868346458E+02  0.82908596891E+02  0.00000000000E+00 0. -1.
         22    1    3    3    0    0 -0.55572819540E+01 -0.21259597659E+02 -0.65977434023E+02  0.69540460709E+02  0.00000000000E+00 0. -1.
</event>
<event>
 7    1  0.5957303E-006  0.5872386E+02  0.7818608E-02  0.1464923E+00
          2   -1    0    0  502    0  0.00000000000E+00  0.00000000000E+00  0.20535915683E+04  0.20535915683E+04  0.00000000000E+00 0. -1.
          1   -1    0    0  501    0 -0.00000000000E+00 -0.00000000000E+00 -0.60973107923E+02  0.60973107923E+02  0.00000000000E+00 0. -1.
         25    2    1    2    0    0  0.23191904711E+01  0.44381022669E+02  0.12769973481E+03  0.18413879242E+03  0.12499927514E+03 0.  0.
          2    1    1    2  501    0  0.36891017887E+02 -0.14088139553E+00 -0.21753765662E+02  0.42827483801E+02  0.00000000000E+00 0. -1.
          1    1    1    2  502    0 -0.39210208358E+02 -0.44240141273E+02  0.18866724912E+04  0.18875984000E+04  0.00000000000E+00 0. -1.
         22    1    3    3    0    0  0.59750862031E+02  0.45689779450E+02  0.72289211917E+02  0.10432378262E+03  0.00000000000E+00 0. -1.
         22    1    3    3    0    0 -0.57431671559E+02 -0.13087567806E+01  0.55410522894E+02  0.79815009803E+02  0.00000000000E+00 0. -1.
</event>
<event>
 7    1  0.5957303E-006  0.1404325E+03  0.7818608E-02  0.1359609E+00
          2   -1    0    0  502    0  0.00000000000E+00  0.00000000000E+00  0.47906791418E+03  0.47906791418E+03  0.00000000000E+00 0. -1.
          1   -1    0    0  501    0 -0.00000000000E+00 -0.00000000000E+00 -0.99530783019E+03  0.99530783019E+03  0.00000000000E+00 0. -1.
         25    2    1    2    0    0  0.95218057678E+02  0.87940114310E+02 -0.23291886355E+03  0.29440091657E+03  0.12498304072E+03 0.  0.
          2    1    1    2  501    0 -0.17972982292E+02  0.30073056388E+02 -0.72011810993E+03  0.72096983922E+03  0.00000000000E+00 0. -1.
          1    1    1    2  502    0 -0.77245075386E+02 -0.11801317070E+03  0.43679705747E+03  0.45900498858E+03  0.00000000000E+00 0. -1.
         22    1    3    3    0    0  0.73961511663E+02  0.24537717498E+02 -0.34878122900E+02  0.85374986059E+02  0.00000000000E+00 0.  1.
         22    1    3    3    0    0  0.21256546014E+02  0.63402396812E+02 -0.19804074065E+03  0.20902593051E+03  0.00000000000E+00 0.  1.
</event>
<event>
 7    1  0.5957303E-006  0.8379297E+02  0.7818608E-02  0.1375170E+00
          2   -1    0    0  502    0  0.00000000000E+00  0.00000000000E+00  0.45031069075E+03  0.45031069075E+03  0.00000000000E+00 0. -1.
          1   -1    0    0  501    0 -0.00000000000E+00 -0.00000000000E+00 -0.15430672772E+04  0.15430672772E+04  0.00000000000E+00 0. -1.
         25    2    1    2    0    0  0.51422352834E+02  0.18878517646E+02 -0.38360063167E+02  0.14175167450E+03  0.12498554307E+03 0.  0.
          2    1    1    2  501    0 -0.24398244596E+01  0.51535301489E+02 -0.14479322864E+04  0.14488511815E+04  0.00000000000E+00 0. -1.
          1    1    1    2  502    0 -0.48982528374E+02 -0.70413819136E+02  0.39353576309E+03  0.40277511200E+03  0.00000000000E+00 0. -1.
         22    1    3    3    0    0 -0.36806180130E+02 -0.71032623916E+01  0.86339268191E+01  0.38466815889E+02  0.00000000000E+00 0.  1.
         22    1    3    3    0    0  0.88228532964E+02  0.25981780038E+02 -0.46993989986E+02  0.10328485861E+03  0.00000000000E+00 0.  1.
</event>
<event>
 7    1  0.5957303E-006  0.3722924E+02  0.7818608E-02  0.1604041E+00
          2   -1    0    0  502    0  0.00000000000E+00  0.00000000000E+00  0.23289634521E+04  0.23289634521E+04  0.00000000000E+00 0. -1.
          1   -1    0    0  501    0 -0.00000000000E+00 -0.00000000000E+00 -0.37855133654E+03  0.37855133654E+03  0.00000000000E+00 0. -1.
         25    2    1    2    0    0  0.29536205662E+02  0.48274651684E+02  0.29358335937E+03  0.32406625056E+03  0.12499966565E+03 0.  0.
          2    1    1    2  501    0 -0.22636294510E+01 -0.23215178544E+02 -0.36276553924E+03  0.36351465581E+03  0.00000000000E+00 0. -1.
          1    1    1    2  502    0 -0.27272576211E+02 -0.25059473140E+02  0.20195942954E+04  0.20199338822E+04  0.00000000000E+00 0. -1.
         22    1    3    3    0    0  0.65723319979E+02 -0.60632618300E+01  0.19463333997E+03  0.20551996244E+03  0.00000000000E+00 0. -1.
         22    1    3    3    0    0 -0.36187114317E+02  0.54337913514E+02  0.98950019397E+02  0.11854628812E+03  0.00000000000E+00 0. -1.
</event>
<event>
 7    1  0.5957303E-006  0.1458395E+03  0.7818608E-02  0.1285151E+00
          2   -1    0    0  502    0  0.00000000000E+00  0.00000000000E+00  0.23451813473E+04  0.23451813473E+04  0.00000000000E+00 0. -1.
          1   -1    0    0  501    0 -0.00000000000E+00 -0.00000000000E+00 -0.15703894104E+04  0.15703894104E+04  0.00000000000E+00 0. -1.
         25    2    1    2    0    0  0.10177865137E+01  0.80857694544E+02  0.12274676977E+04  0.12364619129E+04  0.12498844221E+03 0.  0.
          2    1    1    2  501    0 -0.10655999499E+02 -0.14563024136E+03 -0.15615201012E+04  0.15683324724E+04  0.00000000000E+00 0. -1.
          1    1    1    2  502    0  0.96382129857E+01  0.64772546819E+02  0.11088443404E+04  0.11107763723E+04  0.00000000000E+00 0. -1.
         22    1    3    3    0    0 -0.57702688036E+02  0.49187336689E+02  0.82766991263E+03  0.83113565594E+03  0.00000000000E+00 0. -1.
         22    1    3    3    0    0  0.58720474550E+02  0.31670357855E+02  0.39979778503E+03  0.40532625700E+03  0.00000000000E+00 0. -1.
</event>
<event>
 7    1  0.5957303E-006  0.8742169E+02  0.7818608E-02  0.1333866E+00
          2   -1    0    0  502    0  0.00000000000E+00  0.00000000000E+00  0.86818962236E+03  0.86818962236E+03  0.00000000000E+00 0. -1.
          1   -1    0    0  501    0 -0.00000000000E+00 -0.00000000000E+00 -0.43543941081E+03  0.43543941081E+03  0.00000000000E+00 0. -1.
         25    2    1    2    0    0  0.14678954520E+03  0.17940601450E+02  0.37253853266E+03  0.41984989823E+03  0.12497977024E+03 0.  0.
          2    1    1    2  501    0 -0.67749311733E+02 -0.18307345884E+02 -0.40543887390E+03  0.41146787071E+03  0.00000000000E+00 0. -1.
          1    1    1    2  502    0 -0.79040233466E+02  0.36674443473E+00  0.46565055278E+03  0.47231126423E+03  0.00000000000E+00 0. -1.
         22    1    3    3    0    0  0.16157821296E+03  0.23786591558E+02  0.36904495248E+03  0.40356845490E+03  0.00000000000E+00 0. -1.
         22    1    3    3    0    0 -0.14788667763E+02 -0.58459901088E+01  0.34935801853E+01  0.16281443335E+02  0.00000000000E+00 0. -1.
</event>
<event>
 7    1  0.5957303E-006  0.8852135E+02  0.7818608E-02  0.1432809E+00
          2   -1    0    0  502    0  0.00000000000E+00  0.00000000000E+00  0.82826112633E+03  0.82826112633E+03  0.00000000000E+00 0. -1.
          1   -1    0    0  501    0 -0.00000000000E+00 -0.00000000000E+00 -0.37690241951E+02  0.37690241951E+02  0.00000000000E+00 0. -1.
         25    2    1    2    0    0  0.97843637810E+02  0.38368440249E+02  0.35888032545E+03  0.39430087482E+03  0.12503030519E+03 0.  0.
          2    1    1    2  501    0 -0.68976663248E+02 -0.49719265423E+02  0.74302142903E+02  0.11291852756E+03  0.00000000000E+00 0. -1.
          1    1    1    2  502    0 -0.28866974563E+02  0.11350825174E+02  0.35738841602E+03  0.35873196590E+03  0.00000000000E+00 0. -1.
         22    1    3    3    0    0  0.53637023723E+02 -0.22300528075E+02  0.50674903118E+02  0.77085599643E+02  0.00000000000E+00 0. -1.
         22    1    3    3    0    0  0.44206614087E+02  0.60668968324E+02  0.30820542233E+03  0.31721527517E+03  0.00000000000E+00 0. -1.
</event>
<event>
 7    1  0.5957303E-006  0.1677914E+03  0.7818608E-02  0.1249499E+00
          2   -1    0    0  502    0  0.00000000000E+00  0.00000000000E+00  0.20562652430E+04  0.20562652430E+04  0.00000000000E+00 0. -1.
          1   -1    0    0  501    0 -0.00000000000E+00 -0.00000000000E+00 -0.34381441742E+03  0.34381441742E+03  0.00000000000E+00 0. -1.
         25    2    1    2    0    0 -0.20544758692E+03 -0.16382820599E+02 -0.43646887467E+02  0.24496151610E+03  0.12499594314E+03 0.  0.
          2    1    1    2  501    0  0.15245372131E+03 -0.44177844508E+02 -0.16696539901E+03  0.23037201122E+03  0.00000000000E+00 0. -1.
          1    1    1    2  502    0  0.52993865618E+02  0.60560665107E+02  0.19230631120E+04  0.19247461331E+04  0.00000000000E+00 0. -1.
         22    1    3    3    0    0 -0.18775526774E+03 -0.46105832548E+01 -0.78969747663E+02  0.20373885022E+03  0.00000000000E+00 0.  1.
         22    1    3    3    0    0 -0.17692319183E+02 -0.11772237344E+02  0.35322860197E+02  0.41222665885E+02  0.00000000000E+00 0.  1.
</event>
<event>
 7    1  0.5957303E-006  0.1687766E+03  0.7818608E-02  0.1219960E+00
          2   -1    0    0  502    0  0.00000000000E+00  0.00000000000E+00  0.16770646962E+04  0.16770646962E+04  0.00000000000E+00 0. -1.
          1   -1    0    0  501    0 -0.00000000000E+00 -0.00000000000E+00 -0.23525630858E+04  0.23525630858E+04  0.00000000000E+00 0. -1.
         25    2    1    2    0    0  0.88918362288E+02 -0.13638485195E+03  0.21261818729E+03  0.29553066810E+03  0.12499831691E+03 0.  0.
          2    1    1    2  501    0 -0.16014061997E+03  0.54827955777E+02 -0.23059405176E+04  0.23121446308E+04  0.00000000000E+00 0. -1.
          1    1    1    2  502    0  0.71222257681E+02  0.81556896168E+02  0.14178239407E+04  0.14219524831E+04  0.00000000000E+00 0. -1.
         22    1    3    3    0    0  0.99854192573E+01  0.24278972582E+02  0.26760594454E+02  0.37487418194E+02  0.00000000000E+00 0. -1.
         22    1    3    3    0    0  0.78932943030E+02 -0.16066382453E+03  0.18585759284E+03  0.25804324991E+03  0.00000000000E+00 0. -1.
</event>
<event>
 7    1  0.5957303E-006  0.3972120E+02  0.7818608E-02  0.1542653E+00
          2   -1    0    0  502    0  0.00000000000E+00  0.00000000000E+00  0.15276319849E+04  0.15276319849E+04  0.00000000000E+00 0. -1.
          1   -1    0    0  501    0 -0.00000000000E+00 -0.00000000000E+00 -0.45786925377E+03  0.45786925377E+03  0.00000000000E+00 0. -1.
         25    2    1    2    0    0 -0.10729708879E+01 -0.37633399435E+02 -0.26431534472E+03  0.29479644954E+03  0.12499968475E+03 0.  0.
          2    1    1    2  501    0  0.30230643760E+02  0.10638724622E+02 -0.17661001869E+03  0.17949421436E+03  0.00000000000E+00 0. -1.
          1    1    1    2  502    0 -0.29157672872E+02  0.26994674813E+02  0.15106880945E+04  0.15112105748E+04  0.00000000000E+00 0. -1.
         22    1    3    3    0    0  0.18321244344E+02 -0.98005573465E+01  0.65726189518E+01  0.21792618900E+02  0.00000000000E+00 0. -1.
         22    1    3    3    0    0 -0.19394215232E+02 -0.27832842089E+02 -0.27088796367E+03  0.27300383064E+03  0.00000000000E+00 0. -1.
</event>
<event>
 7    1  0.5957303E-006  0.1295922E+03  0.7818608E-02  0.1386192E+00
          2   -1    0    0  502    0  0.00000000000E+00  0.00000000000E+00  0.57999397111E+03  0.57999397111E+03  0.00000000000E+00 0. -1.
          1   -1    0    0  501    0 -0.00000000000E+00 -0.00000000000E+00 -0.98457469856E+03  0.98457469856E+03  0.00000000000E+00 0. -1.
         25    2    1    2    0    0 -0.39940825791E+02  0.10568475979E+03 -0.41699634444E+02  0.17357501953E+03  0.12499955950E+03 0.  0.
          2    1    1    2  501    0  0.70020006675E+02 -0.11070076478E+03 -0.87158693017E+03  0.88137462949E+03  0.00000000000E+00 0. -1.
          1    1    1    2  502    0 -0.30079180884E+02  0.50160049963E+01  0.50870583718E+03  0.50961902065E+03  0.00000000000E+00 0. -1.
         22    1    3    3    0    0 -0.49533502158E+02  0.13172536374E+03 -0.35517956132E+02  0.14514359957E+03  0.00000000000E+00 0.  1.
         22    1    3    3    0    0  0.95926763665E+01 -0.26040603953E+02 -0.61816783114E+01  0.28431419959E+02  0.00000000000E+00 0.  1.
</event>
<event>
 7    1  0.5957303E-006  0.1253257E+03  0.7818608E-02  0.1256735E+00
          2   -1    0    0  502    0  0.00000000000E+00  0.00000000000E+00  0.42006576400E+04  0.42006576400E+04  0.00000000000E+00 0. -1.
          1   -1    0    0  501    0 -0.00000000000E+00 -0.00000000000E+00 -0.68659783067E+02  0.68659783067E+02  0.00000000000E+00 0. -1.
         25    2    1    2    0    0 -0.81255419705E+02 -0.19781939199E+03  0.13132860955E+04  0.13364433496E+04  0.12500201227E+03 0.  0.
          2    1    1    2  501    0  0.71297793081E+02  0.98050194010E+02  0.92074526198E+01  0.12158121988E+03  0.00000000000E+00 0. -1.
          1    1    1    2  502    0  0.99576266240E+01  0.99769197984E+02  0.28095043088E+04  0.28112928535E+04  0.00000000000E+00 0. -1.
         22    1    3    3    0    0 -0.58182068440E+02 -0.13942243274E+03  0.54367226072E+03  0.56427235881E+03  0.00000000000E+00 0. -1.
         22    1    3    3    0    0 -0.23073351265E+02 -0.58396959250E+02  0.76961383478E+03  0.77217099083E+03  0.00000000000E+00 0. -1.
</event>
<event>
 7    1  0.5957303E-006  0.5953929E+02  0.7818608E-02  0.1488918E+00
          2   -1    0    0  502    0  0.00000000000E+00  0.00000000000E+00  0.27348451138E+03  0.27348451138E+03  0.00000000000E+00 0. -1.
          1   -1    0    0  501    0 -0.00000000000E+00 -0.00000000000E+00 -0.41132859774E+03  0.41132859774E+03  0.00000000000E+00 0. -1.
         25    2    1    2    0    0  0.34575714155E+02 -0.99482952212E+01  0.10370313306E+03  0.16635143186E+03  0.12499604188E+03 0.  0.
          2    1    1    2  501    0  0.24345548402E+02 -0.18687285351E+02 -0.37158707606E+03  0.37285235074E+03  0.00000000000E+00 0. -1.
          1    1    1    2  502    0 -0.58921262557E+02  0.28635580572E+02  0.13003985664E+03  0.14560932652E+03  0.00000000000E+00 0. -1.
         22    1    3    3    0    0  0.10355523623E+02 -0.28634189209E+02 -0.21623091414E+02  0.37345839708E+02  0.00000000000E+00 0.  1.
         22    1    3    3    0    0  0.24220190532E+02  0.18685893988E+02  0.12532622448E+03  0.12900559215E+03  0.00000000000E+00 0.  1.
</event>
<event>
 7    1  0.5957303E-006  0.1630669E+03  0.7818608E-02  0.1271472E+00
          2   -1    0    0  502    0  0.00000000000E+00  0.00000000000E+00  0.15298321935E+04  0.15298321935E+04  0.00000000000E+00 0. -1.
          1   -1    0    0  501    0 -0.00000000000E+00 -0.00000000000E+00 -0.20065632438E+04  0.20065632438E+04  0.00000000000E+00 0. -1.
         25    2    1    2    0    0  0.44323911368E+02  0.19061259010E+03 -0.15364490260E+03  0.27843833854E+03  0.12499353443E+03 0.  0.
          2    1    1    2  501    0 -0.60201936548E+02 -0.28793245063E+02 -0.17853922987E+04  0.17866390191E+04  0.00000000000E+00 0. -1.
          1    1    1    2  502    0  0.15878025180E+02 -0.16181934504E+03  0.14623061510E+04  0.14713180796E+04  0.00000000000E+00 0. -1.
         22    1    3    3    0    0  0.74167709642E+02  0.97339279665E+02 -0.12825030163E+03  0.17726794518E+03  0.00000000000E+00 0.  1.
         22    1    3    3    0    0 -0.29843798274E+02  0.93273310435E+02 -0.25394600977E+02  0.10117039337E+03  0.00000000000E+00 0.  1.
</event>
<event>
 7    1  0.5957303E-006  0.4577458E+02  0.7818608E-02  0.1504607E+00
          2   -1    0    0  502    0  0.00000000000E+00  0.00000000000E+00  0.12725096364E+03  0.12725096364E+03  0.00000000000E+00 0. -1.
          1   -1    0    0  501    0 -0.00000000000E+00 -0.00000000000E+00 -0.17450689533E+04  0.17450689533E+04  0.00000000000E+00 0. -1.
         25    2    1    2    0    0 -0.16181037618E+02 -0.34639927381E+02 -0.52174561260E+03  0.53787378511E+03  0.12501189501E+03 0.  0.
          2    1    1    2  501    0  0.35083262057E+02 -0.72406931733E+01 -0.12105559219E+04  0.12110858364E+04  0.00000000000E+00 0. -1.
          1    1    1    2  502    0 -0.18902224438E+02  0.41880620554E+02  0.11448354484E+03  0.12336029550E+03  0.00000000000E+00 0. -1.
         22    1    3    3    0    0 -0.16546103472E+02  0.23782433092E+02 -0.41644448458E+03  0.41745105869E+03  0.00000000000E+00 0. -1.
         22    1    3    3    0    0  0.36506585351E+00 -0.58422360473E+02 -0.10530112802E+03  0.12042272642E+03  0.00000000000E+00 0. -1.
</event>
<event>
 7    1  0.5957303E-006  0.2373883E+03  0.7818608E-02  0.1215124E+00
          2   -1    0    0  502    0  0.00000000000E+00  0.00000000000E+00  0.70294060144E+03  0.70294060144E+03  0.00000000000E+00 0. -1.
          1   -1    0    0  501    0 -0.00000000000E+00 -0.00000000000E+00 -0.18307450282E+04  0.18307450282E+04  0.00000000000E+00 0. -1.
         25    2    1    2    0    0 -0.15106575689E+03 -0.25896875082E+03  0.73569338381E+02  0.33304737317E+03  0.12498971326E+03 0.  0.
          2    1    1    2  501    0  0.62412232018E+02  0.51644840175E+02 -0.16745368464E+04  0.16764951912E+04  0.00000000000E+00 0. -1.
          1    1    1    2  502    0  0.88653524869E+02  0.20732391064E+03  0.47316308126E+03  0.52414306526E+03  0.00000000000E+00 0. -1.
         22    1    3    3    0    0 -0.13169958719E+03 -0.10360313065E+03  0.48838854520E+02  0.17453831572E+03  0.00000000000E+00 0. -1.
         22    1    3    3    0    0 -0.19366169701E+02 -0.15536562017E+03  0.24730483861E+02  0.15850905745E+03  0.00000000000E+00 0. -1.
</event>
<event>
 7    1  0.5957303E-006  0.1069170E+03  0.7818608E-02  0.1279587E+00
          2   -1    0    0  502    0  0.00000000000E+00  0.00000000000E+00  0.49828236703E+03  0.49828236703E+03  0.00000000000E+00 0. -1.
          1   -1    0    0  501    0 -0.00000000000E+00 -0.00000000000E+00 -0.17966775795E+04  0.17966775795E+04  0.00000000000E+00 0. -1.
         25    2    1    2    0    0 -0.18733046944E+03  0.62888720573E+02 -0.21748642717E+03  0.31933195812E+03  0.12499943007E+03 0.  0.
          2    1    1    2  501    0  0.96392430769E+02 -0.38452696767E+02 -0.15215260614E+04  0.15250612008E+04  0.00000000000E+00 0. -1.
          1    1    1    2  502    0  0.90938038673E+02 -0.24436023806E+02  0.44061727609E+03  0.45056678764E+03  0.00000000000E+00 0. -1.
         22    1    3    3    0    0 -0.87190931975E+02  0.61986495211E+02 -0.37500149947E+02  0.11336156956E+03  0.00000000000E+00 0. -1.
         22    1    3    3    0    0 -0.10013953747E+03  0.90222536144E+00 -0.17998627722E+03  0.20597038856E+03  0.00000000000E+00 0. -1.
</event>
<event>
 7    1  0.5957303E-006  0.7787301E+02  0.7818608E-02  0.1336117E+00
          2   -1    0    0  502    0  0.00000000000E+00  0.00000000000E+00  0.79811576093E+03  0.79811576093E+03  0.00000000000E+00 0. -1.
          1   -1    0    0  501    0 -0.00000000000E+00 -0.00000000000E+00 -0.15207792257E+03  0.15207792257E+03  0.00000000000E+00 0. -1.
         25    2    1    2    0    0  0.26999251531E+02  0.19008857958E+02  0.23082655261E+03  0.26456746187E+03  0.12499899290E+03 0.  0.
          2    1    1    2  501    0 -0.63300472830E+02  0.49885460003E+02 -0.12012449944E+03  0.14465615903E+03  0.00000000000E+00 0. -1.
          1    1    1    2  502    0  0.36301221299E+02 -0.68894317961E+02  0.53533578519E+03  0.54097006260E+03  0.00000000000E+00 0. -1.
         22    1    3    3    0    0 -0.14623186620E+02  0.35950135300E+02  0.11205070486E+02  0.40395586635E+02  0.00000000000E+00 0.  1.
         22    1    3    3    0    0  0.41622438151E+02 -0.16941277342E+02  0.21962148213E+03  0.22417187524E+03  0.00000000000E+00 0.  1.
</event>
<event>
 7    1  0.5957303E-006  0.1086069E+03  0.7818608E-02  0.1307548E+00
          2   -1    0    0  502    0  0.00000000000E+00  0.00000000000E+00  0.22907438172E+03  0.22907438172E+03  0.00000000000E+00 0. -1.
          1   -1    0    0  501    0 -0.00000000000E+00 -0.00000000000E+00 -0.16468243113E+04  0.16468243113E+04  0.00000000000E+00 0. -1.
         25    2    1    2    0    0  0.47712606885E+02 -0.11116109872E+02 -0.35577633218E+03  0.38026376405E+03  0.12499468370E+03 0.  0.
          2    1    1    2  501    0  0.36483114189E+02 -0.61429353002E+02 -0.12634872009E+04  0.12655056262E+04  0.00000000000E+00 0. -1.
          1    1    1    2  502    0 -0.84195721073E+02  0.72545462874E+02  0.20151360347E+03  0.23012930282E+03  0.00000000000E+00 0. -1.
         22    1    3    3    0    0  0.12540116753E+02  0.50587533445E+02 -0.22988850823E+03  0.23572246241E+03  0.00000000000E+00 0. -1.
         22    1    3    3    0    0  0.35172490132E+02 -0.61703643316E+02 -0.12588782395E+03  0.14454130164E+03  0.00000000000E+00 0. -1.
</event>
<event>
 7    1  0.5957303E-006  0.1248539E+03  0.7818608E-02  0.1266715E+00
          2   -1    0    0  502    0  0.00000000000E+00  0.00000000000E+00  0.10454880921E+04  0.10454880921E+04  0.00000000000E+00 0. -1.
          1   -1    0    0  501    0 -0.00000000000E+00 -0.00000000000E+00 -0.43718359178E+03  0.43718359178E+03  0.00000000000E+00 0. -1.
         25    2    1    2    0    0 -0.29945421402E+02  0.60459410146E+02  0.65731286251E+03  0.67247549810E+03  0.12494409866E+03 0.  0.
          2    1    1    2  501    0 -0.39618353790E+02 -0.11953920607E+03 -0.41464192869E+03  0.43334416434E+03  0.00000000000E+00 0. -1.
          1    1    1    2  502    0  0.69563775192E+02  0.59079795920E+02  0.36563356649E+03  0.37685202142E+03  0.00000000000E+00 0. -1.
         22    1    3    3    0    0  0.23766328206E+02  0.56727877041E+02  0.53887925246E+03  0.54237785641E+03  0.00000000000E+00 0. -1.
         22    1    3    3    0    0 -0.53711749608E+02  0.37315331043E+01  0.11843361005E+03  0.13009764169E+03  0.00000000000E+00 0. -1.
</event>
<event>
 7    1  0.5957303E-006  0.3609192E+02  0.7818608E-02  0.1619104E+00
          2   -1    0    0  502    0  0.00000000000E+00  0.00000000000E+00  0.72169219680E+03  0.72169219680E+03  0.00000000000E+00 0. -1.
          1   -1    0    0  501    0 -0.00000000000E+00 -0.00000000000E+00 -0.12772482345E+03  0.12772482345E+03  0.00000000000E+00 0. -1.
         25    2    1    2    0    0  0.17875628306E+02  0.50754722936E+02  0.11941911136E+03  0.18106060780E+03  0.12500575807E+03 0.  0.
          2    1    1    2  501    0  0.31606778036E+01 -0.21776835755E+02 -0.95085364596E+02  0.97598396606E+02  0.00000000000E+00 0. -1.
          1    1    1    2  502    0 -0.21036306110E+02 -0.28977887180E+02  0.56963362658E+03  0.57075801585E+03  0.00000000000E+00 0. -1.
         22    1    3    3    0    0 -0.19198975144E+02  0.64059342118E+02  0.12452057778E+03  0.14134204700E+03  0.00000000000E+00 0. -1.
         22    1    3    3    0    0  0.37074603450E+02 -0.13304619182E+02 -0.51014664180E+01  0.39718560802E+02  0.00000000000E+00 0. -1.
</event>
<event>
 7    1  0.5957303E-006  0.2243367E+02  0.7818608E-02  0.1711680E+00
          2   -1    0    0  502    0  0.00000000000E+00  0.00000000000E+00  0.60263672304E+03  0.60263672304E+03  0.00000000000E+00 0. -1.
          1   -1    0    0  501    0 -0.00000000000E+00 -0.00000000000E+00 -0.33845588589E+03  0.33845588589E+03  0.00000000000E+00 0. -1.
         25    2    1    2    0    0 -0.11345770691E+02  0.15417575541E+01 -0.12547449813E+02  0.12612093297E+03  0.12497178765E+03 0.  0.
          2    1    1    2  501    0  0.54920189081E+01 -0.21907395092E+02 -0.26844164591E+03  0.26939007683E+03  0.00000000000E+00 0. -1.
          1    1    1    2  502    0  0.58537517827E+01  0.20365637538E+02  0.54516993288E+03  0.54558159914E+03  0.00000000000E+00 0. -1.
         22    1    3    3    0    0 -0.27905658586E+02  0.18552256217E+01  0.52237078826E+02  0.59252679665E+02  0.00000000000E+00 0. -1.
         22    1    3    3    0    0  0.16559887895E+02 -0.31346806759E+00 -0.64784528639E+02  0.66868253307E+02  0.00000000000E+00 0. -1.
</event>
<event>
 7    1  0.5957303E-006  0.6901586E+02  0.7818608E-02  0.1500045E+00
          2   -1    0    0  502    0  0.00000000000E+00  0.00000000000E+00  0.84490452658E+03  0.84490452658E+03  0.00000000000E+00 0. -1.
          1   -1    0    0  501    0 -0.00000000000E+00 -0.00000000000E+00 -0.22608655516E+03  0.22608655516E+03  0.00000000000E+00 0. -1.
         25    2    1    2    0    0 -0.69978334509E+02  0.56115780212E+02  0.13435234097E+03  0.20425979899E+03  0.12500226346E+03 0.  0.
          2    1    1    2  501    0  0.11223236295E+02 -0.21793274686E+02 -0.18862434417E+03  0.19021054405E+03  0.00000000000E+00 0. -1.
          1    1    1    2  502    0  0.58755098214E+02 -0.34322505527E+02  0.67308997463E+03  0.67652073870E+03  0.00000000000E+00 0. -1.
         22    1    3    3    0    0  0.32418102336E+02  0.28420862918E+02  0.63298104496E+02  0.76585434913E+02  0.00000000000E+00 0.  1.
         22    1    3    3    0    0 -0.10239643684E+03  0.27694917294E+02  0.71054236473E+02  0.12767436408E+03  0.00000000000E+00 0.  1.
</event>
<event>
 7    1  0.5957303E-006  0.7034546E+02  0.7818608E-02  0.1406338E+00
          2   -1    0    0  502    0  0.00000000000E+00  0.00000000000E+00  0.16450432463E+03  0.16450432463E+03  0.00000000000E+00 0. -1.
          1   -1    0    0  501    0 -0.00000000000E+00 -0.00000000000E+00 -0.84553737797E+03  0.84553737797E+03  0.00000000000E+00 0. -1.
         25    2    1    2    0    0 -0.47721638395E+00  0.28190072641E+02 -0.68142023073E+02  0.14513087659E+03  0.12499891239E+03 0.  0.
          2    1    1    2  501    0 -0.18015672206E+02  0.44331797461E+02 -0.72693142027E+03  0.72850474431E+03  0.00000000000E+00 0. -1.
          1    1    1    2  502    0  0.18492888590E+02 -0.72521870102E+02  0.11404039000E+03  0.13640608169E+03  0.00000000000E+00 0. -1.
         22    1    3    3    0    0 -0.46769431026E+02  0.35188510842E+02  0.45077821779E+01  0.58702053405E+02  0.00000000000E+00 0.  1.
         22    1    3    3    0    0  0.46292214642E+02 -0.69984382010E+01 -0.72649805251E+02  0.86428823183E+02  0.00000000000E+00 0.  1.
</event>
<event>
 7    1  0.5957303E-006  0.2089561E+02  0.7818608E-02  0.1733188E+00
          2   -1    0    0  502    0  0.00000000000E+00  0.00000000000E+00  0.31628490624E+03  0.31628490624E+03  0.00000000000E+00 0. -1.
          1   -1    0    0  501    0 -0.00000000000E+00 -0.00000000000E+00 -0.87324967048E+03  0.87324967048E+03  0.00000000000E+00 0. -1.
         25    2    1    2    0    0 -0.11567875507E+01 -0.10543128901E+02 -0.59325149966E+02  0.13877262917E+03  0.12500349381E+03 0.  0.
          2    1    1    2  501    0  0.20520488434E+02  0.42625507722E+01 -0.77368407753E+03  0.77396790089E+03  0.00000000000E+00 0. -1.
          1    1    1    2  502    0 -0.19363700883E+02  0.62805781291E+01  0.27604446325E+03  0.27679404666E+03  0.00000000000E+00 0. -1.
         22    1    3    3    0    0  0.32976628477E+01 -0.38908151527E+01  0.39397310830E+02  0.39726076114E+02  0.00000000000E+00 0. -1.
         22    1    3    3    0    0 -0.44544503984E+01 -0.66523137485E+01 -0.98722460796E+02  0.99046553055E+02  0.00000000000E+00 0. -1.
</event>
<event>
 7    1  0.5957303E-006  0.1679804E+03  0.7818608E-02  0.1285867E+00
          2   -1    0    0  502    0  0.00000000000E+00  0.00000000000E+00  0.53432697765E+02  0.53432697765E+02  0.00000000000E+00 0. -1.
          1   -1    0    0  501    0 -0.00000000000E+00 -0.00000000000E+00 -0.10555839720E+04  0.10555839720E+04  0.00000000000E+00 0. -1.
         25    2    1    2    0    0 -0.53453355956E+02 -0.16255209455E+03 -0.41916259792E+03  0.46968495812E+03  0.12500492666E+03 0.  0.
          2    1    1    2  501    0 -0.25837531330E+01  0.16954455036E+03 -0.54624690804E+03  0.57195953955E+03  0.00000000000E+00 0. -1.
          1    1    1    2  502    0  0.56037109089E+02 -0.69924558155E+01 -0.36741768226E+02  0.67372172043E+02  0.00000000000E+00 0. -1.
         22    1    3    3    0    0 -0.84085924537E+02 -0.58429548488E+02 -0.22612284325E+03  0.24822569384E+03  0.00000000000E+00 0.  1.
         22    1    3    3    0    0  0.30632568581E+02 -0.10412254606E+03 -0.19303975467E+03  0.22145926429E+03  0.00000000000E+00 0.  1.
</event>
<event>
 7    1  0.5957303E-006  0.1420653E+03  0.7818608E-02  0.1293221E+00
          2   -1    0    0  502    0  0.00000000000E+00  0.00000000000E+00  0.30931938979E+03  0.30931938979E+03  0.00000000000E+00 0. -1.
          1   -1    0    0  501    0 -0.00000000000E+00 -0.00000000000E+00 -0.68953328500E+03  0.68953328500E+03  0.00000000000E+00 0. -1.
         25    2    1    2    0    0  0.53218556964E+02  0.96265044323E+02 -0.42221899276E+02  0.17177825378E+03  0.12500362447E+03 0.  0.
          2    1    1    2  501    0 -0.11542319410E+03 -0.92375424687E+02 -0.56895578051E+03  0.58784897125E+03  0.00000000000E+00 0. -1.
          1    1    1    2  502    0  0.62204637139E+02 -0.38896196355E+01  0.23096378458E+03  0.23922544975E+03  0.00000000000E+00 0. -1.
         22    1    3    3    0    0  0.11568622162E+02  0.82036885603E+02 -0.78958701820E+02  0.11444806775E+03  0.00000000000E+00 0. -1.
         22    1    3    3    0    0  0.41649934802E+02  0.14228158720E+02  0.36736802544E+02  0.57330186035E+02  0.00000000000E+00 0. -1.
</event>
<event>
 7    1  0.5957303E-006  0.5651094E+02  0.7818608E-02  0.1550448E+00
          2   -1    0    0  502    0  0.00000000000E+00  0.00000000000E+00  0.15184914404E+04  0.15184914404E+04  0.00000000000E+00 0. -1.
          1   -1    0    0  501    0 -0.00000000000E+00 -0.00000000000E+00 -0.22923759439E+02  0.22923759439E+02  0.00000000000E+00 0. -1.
         25    2    1    2    0    0  0.11244048577E+02  0.40866143518E+02  0.25821273235E+03  0.28999260366E+03  0.12500169885E+03 0.  0.
          2    1    1    2  501    0  0.20301334116E+02  0.68357509802E+01  0.11650176936E+02  0.24384386008E+02  0.00000000000E+00 0. -1.
          1    1    1    2  502    0 -0.31545382693E+02 -0.47701894498E+02  0.12257047717E+04  0.12270382102E+04  0.00000000000E+00 0. -1.
         22    1    3    3    0    0  0.14732379636E+02  0.61560815250E+02  0.49839549538E+02  0.80565238671E+02  0.00000000000E+00 0. -1.
         22    1    3    3    0    0 -0.34883310583E+01 -0.20694671732E+02  0.20837318281E+03  0.20942736499E+03  0.00000000000E+00 0. -1.
</event>
<event>
 7    1  0.5957303E-006  0.5103394E+02  0.7818608E-02  0.1470980E+00
          2   -1    0    0  502    0  0.00000000000E+00  0.00000000000E+00  0.69099623412E+03  0.69099623412E+03  0.00000000000E+00 0. -1.
          1   -1    0    0  501    0 -0.00000000000E+00 -0.00000000000E+00 -0.19082693011E+04  0.19082693011E+04  0.00000000000E+00 0. -1.
         25    2    1    2    0    0  0.18444771930E+02 -0.22867276518E+02 -0.80351747423E+01  0.12865577759E+03  0.12499849250E+03 0.  0.
          2    1    1    2  501    0 -0.30068168547E+02 -0.27344964479E+02 -0.18386459074E+04  0.18390950532E+04  0.00000000000E+00 0. -1.
          1    1    1    2  502    0  0.11623396617E+02  0.50212240996E+02  0.62940801512E+03  0.63151470450E+03  0.00000000000E+00 0. -1.
         22    1    3    3    0    0  0.11362353974E+02  0.51082088928E+02  0.71951773289E+01  0.52822849922E+02  0.00000000000E+00 0. -1.
         22    1    3    3    0    0  0.70824179551E+01 -0.73949365446E+02 -0.15230352071E+02  0.75832927664E+02  0.00000000000E+00 0. -1.
</event>
<event>
 7    1  0.5957303E-006  0.1196967E+03  0.7818608E-02  0.1282447E+00
          2   -1    0    0  502    0  0.00000000000E+00  0.00000000000E+00  0.47770905860E+03  0.47770905860E+03  0.00000000000E+00 0. -1.
          1   -1    0    0  501    0 -0.00000000000E+00 -0.00000000000E+00 -0.51898626540E+03  0.51898626540E+03  0.00000000000E+00 0. -1.
         25    2    1    2    0    0  0.10984377895E+03  0.41507700417E+02 -0.61336265713E+01  0.17161658713E+03  0.12500434647E+03 0.  0.
          2    1    1    2  501    0  0.60434940613E+01 -0.81631953223E+02 -0.41651093121E+03  0.42447809769E+03  0.00000000000E+00 0. -1.
          1    1    1    2  502    0 -0.11588727301E+03  0.40124252806E+02  0.38136735098E+03  0.40060063917E+03  0.00000000000E+00 0. -1.
         22    1    3    3    0    0  0.43624296545E+02  0.46956077133E+02 -0.58686292832E+02  0.86902436071E+02  0.00000000000E+00 0. -1.
         22    1    3    3    0    0  0.66219482408E+02 -0.54483767158E+01  0.52552666260E+02  0.84714151063E+02  0.00000000000E+00 0. -1.
</event>
<event>
 7    1  0.5957303E-006  0.5614968E+02  0.7818608E-02  0.1431626E+00
          2   -1    0    0  502    0  0.00000000000E+00  0.00000000000E+00  0.21297462108E+04  0.21297462108E+04  0.00000000000E+00 0. -1.
          1   -1    0    0  501    0 -0.00000000000E+00 -0.00000000000E+00 -0.13292102654E+03  0.13292102654E+03  0.00000000000E+00 0. -1.
         25    2    1    2    0    0  0.51510284072E+02  0.18863530129E+02  0.11943374989E+04  0.12021132850E+04  0.12500058620E+03 0.  0.
          2    1    1    2  501    0 -0.47408157611E+02  0.30306013119E+02 -0.12220993412E+03  0.13454090767E+03  0.00000000000E+00 0. -1.
          1    1    1    2  502    0 -0.41021264609E+01 -0.49169543248E+02  0.92469761947E+03  0.92601304466E+03  0.00000000000E+00 0. -1.
         22    1    3    3    0    0 -0.17230294556E+02  0.40683067163E+02  0.18500259938E+03  0.19020503879E+03  0.00000000000E+00 0.  1.
         22    1    3    3    0    0  0.68740578629E+02 -0.21819537035E+02  0.10093348996E+04  0.10119082463E+04  0.00000000000E+00 0.  1.
</event>
<event>
 7    1  0.5957303E-006  0.7553198E+02  0.7818608E-02  0.1342516E+00
          2   -1    0    0  502    0  0.00000000000E+00  0.00000000000E+00  0.27673851656E+03  0.27673851656E+03  0.00000000000E+00 0. -1.
          1   -1    0    0  501    0 -0.00000000000E+00 -0.00000000000E+00 -0.53541736973E+03  0.53541736973E+03  0.00000000000E+00 0. -1.
         25    2    1    2    0    0 -0.45767326399E+02  0.18140271555E+02 -0.10007465990E+03  0.16752240311E+03  0.12500040149E+03 0.  0.
          2    1    1    2  501    0 -0.80591824656E+01 -0.74914709971E+02 -0.39163676172E+03  0.39881890292E+03  0.00000000000E+00 0. -1.
          1    1    1    2  502    0  0.53826508864E+02  0.56774438416E+02  0.23303256844E+03  0.24581458026E+03  0.00000000000E+00 0. -1.
         22    1    3    3    0    0 -0.21241107550E+02  0.52219079823E+02 -0.11068615890E+03  0.12421530791E+03  0.00000000000E+00 0.  1.
         22    1    3    3    0    0 -0.24526218849E+02 -0.34078808267E+02  0.10611499000E+02  0.43307095203E+02  0.00000000000E+00 0.  1.
</event>
<event>
 7    1  0.5957303E-006  0.6104150E+02  0.7818608E-02  0.1442723E+00
          2   -1    0    0  502    0  0.00000000000E+00  0.00000000000E+00  0.16449906322E+04  0.16449906322E+04  0.00000000000E+00 0. -1.
          1   -1    0    0  501    0 -0.00000000000E+00 -0.00000000000E+00 -0.36887156483E+02  0.36887156483E+02  0.00000000000E+00 0. -1.
         25    2    1    2    0    0 -0.25295467960E+02 -0.59420543048E+01  0.24056267835E+03  0.27234394898E+03  0.12500262246E+03 0.  0.
          2    1    1    2  501    0 -0.21679218950E+02 -0.35692431065E+02  0.12265460558E+01  0.41778494286E+02  0.00000000000E+00 0. -1.
          1    1    1    2  502    0  0.46974686910E+02  0.41634485370E+02  0.13663142513E+04  0.13677553454E+04  0.00000000000E+00 0. -1.
         22    1    3    3    0    0 -0.65352694476E+02  0.26854247044E+02  0.99121283636E+02  0.12172573323E+03  0.00000000000E+00 0.  1.
         22    1    3    3    0    0  0.40057226516E+02 -0.32796301349E+02  0.14144139472E+03  0.15061821576E+03  0.00000000000E+00 0.  1.
</event>
<event>
 7    1  0.5957303E-006  0.2116679E+03  0.7818608E-02  0.1277309E+00
          2   -1    0    0  502    0  0.00000000000E+00  0.00000000000E+00  0.15386584913E+04  0.15386584913E+04  0.00000000000E+00 0. -1.
          1   -1    0    0  501    0 -0.00000000000E+00 -0.00000000000E+00 -0.66011315162E+03  0.66011315162E+03  0.00000000000E+00 0. -1.
         25    2    1    2    0    0 -0.85311673780E+02  0.15387210829E+03  0.11680595886E+03  0.24540299174E+03  0.12499715573E+03 0.  0.
          2    1    1    2  501    0  0.76509770736E+02 -0.20167684216E+03 -0.57583613732E+03  0.61491019728E+03  0.00000000000E+00 0. -1.
          1    1    1    2  502    0  0.88019030447E+01  0.47804733870E+02  0.13375755182E+04  0.13384584539E+04  0.00000000000E+00 0. -1.
         22    1    3    3    0    0 -0.11398050122E+03  0.12280492836E+03  0.67967231780E+02  0.18080970573E+03  0.00000000000E+00 0. -1.
         22    1    3    3    0    0  0.28668827444E+02  0.31067179924E+02  0.48838727079E+02  0.64593286014E+02  0.00000000000E+00 0. -1.
</event>
<event>
 7    1  0.5957303E-006  0.2727751E+02  0.7818608E-02  0.1657678E+00
          2   -1    0    0  502    0  0.00000000000E+00  0.00000000000E+00  0.75545895376E+03  0.75545895376E+03  0.00000000000E+00 0. -1.
          1   -1    0    0  501    0 -0.00000000000E+00 -0.00000000000E+00 -0.65206498562E+03  0.65206498562E+03  0.00000000000E+00 0. -1.
         25    2    1    2    0    0 -0.19234712541E+02  0.10885474099E+02  0.29905677777E+03  0.32488315406E+03  0.12500255897E+03 0.  0.
          2    1    1    2  501    0 -0.59406628151E+01 -0.22572995883E+02 -0.63850405399E+03  0.63893055849E+03  0.00000000000E+00 0. -1.
          1    1    1    2  502    0  0.25175375356E+02  0.11687521785E+02  0.44284124436E+03  0.44371022683E+03  0.00000000000E+00 0. -1.
         22    1    3    3    0    0  0.48182068572E+02  0.11495982344E+02  0.67591811378E+02  0.83799297774E+02  0.00000000000E+00 0. -1.
         22    1    3    3    0    0 -0.67416781112E+02 -0.61050824558E+00  0.23146496639E+03  0.24108385629E+03  0.00000000000E+00 0. -1.
</event>
<event>
 7    1  0.5957303E-006  0.8594689E+02  0.7818608E-02  0.1321217E+00
          2   -1    0    0  502    0  0.00000000000E+00  0.00000000000E+00  0.12337755179E+04  0.12337755179E+04  0.00000000000E+00 0. -1.
          1   -1    0    0  501    0 -0.00000000000E+00 -0.00000000000E+00 -0.13742478521E+03  0.13742478521E+03  0.00000000000E+00 0. -1.
         25    2    1    2    0    0 -0.91102494262E+01 -0.15125965123E+03  0.15886104604E+03  0.25263799931E+03  0.12500659187E+03 0.  0.
          2    1    1    2  501    0  0.31088219498E+02  0.74526409745E+02 -0.70633915208E+02  0.10728379709E+03  0.00000000000E+00 0. -1.
          1    1    1    2  502    0 -0.21977970072E+02  0.76733241485E+02  0.10081236018E+04  0.10112785067E+04  0.00000000000E+00 0. -1.
         22    1    3    3    0    0 -0.34071497535E+02 -0.16276637534E+03  0.12013433364E+03  0.20514877042E+03  0.00000000000E+00 0. -1.
         22    1    3    3    0    0  0.24961248109E+02  0.11506724112E+02  0.38726712396E+02  0.47489228884E+02  0.00000000000E+00 0. -1.
</event>
<event>
 7    1  0.5957303E-006  0.7228116E+02  0.7818608E-02  0.1390230E+00
          2   -1    0    0  502    0  0.00000000000E+00  0.00000000000E+00  0.86262005130E+03  0.86262005130E+03  0.00000000000E+00 0. -1.
          1   -1    0    0  501    0 -0.00000000000E+00 -0.00000000000E+00 -0.10787926288E+04  0.10787926288E+04  0.00000000000E+00 0. -1.
         25    2    1    2    0    0  0.10297453089E+03 -0.67677196431E+02 -0.18684582811E+02  0.17651321671E+03  0.12499538035E+03 0.  0.
          2    1    1    2  501    0 -0.48247011394E+02  0.21751579603E+02 -0.97884916162E+03  0.98027883101E+03  0.00000000000E+00 0. -1.
          1    1    1    2  502    0 -0.54727519501E+02  0.45925616828E+02  0.78136116690E+03  0.78462063241E+03  0.00000000000E+00 0. -1.
         22    1    3    3    0    0  0.69439744655E+02 -0.10065152271E+03  0.78156054177E+01  0.12253036705E+03  0.00000000000E+00 0. -1.
         22    1    3    3    0    0  0.33534786240E+02  0.32974326274E+02 -0.26500188229E+02  0.53982849661E+02  0.00000000000E+00 0. -1.
</event>
<event>
 7    1  0.5957303E-006  0.5707358E+02  0.7818608E-02  0.1449206E+00
          2   -1    0    0  502    0  0.00000000000E+00  0.00000000000E+00  0.21371955097E+02  0.21371955097E+02  0.00000000000E+00 0. -1.
          1   -1    0    0  501    0 -0.00000000000E+00 -0.00000000000E+00 -0.91687595375E+03  0.91687595375E+03  0.00000000000E+00 0. -1.
         25    2    1    2    0    0  0.57933498181E+02 -0.71950781253E+00 -0.41260937995E+03  0.43500556684E+03  0.12500613926E+03 0.  0.
          2    1    1    2  501    0 -0.44160452353E+02 -0.39559863701E+02 -0.43557994012E+03  0.43959642015E+03  0.00000000000E+00 0. -1.
          1    1    1    2  502    0 -0.13773045828E+02  0.40279371513E+02 -0.47314678580E+02  0.63645921865E+02  0.00000000000E+00 0. -1.
         22    1    3    3    0    0 -0.31783551589E+02  0.19043368105E+02 -0.59100798692E+02  0.69754916862E+02  0.00000000000E+00 0. -1.
         22    1    3    3    0    0  0.89717049770E+02 -0.19762875918E+02 -0.35350858126E+03  0.36525064997E+03  0.00000000000E+00 0. -1.
</event>
<event>
 7    1  0.5957303E-006  0.6180318E+02  0.7818608E-02  0.1394607E+00
          2   -1    0    0  502    0  0.00000000000E+00  0.00000000000E+00  0.15117302558E+02  0.15117302558E+02  0.00000000000E+00 0. -1.
          1   -1    0    0  501    0 -0.00000000000E+00 -0.00000000000E+00 -0.14333040259E+04  0.14333040259E+04  0.00000000000E+00 0. -1.
         25    2    1    2    0    0  0.18879980295E+02  0.61019298492E+02 -0.10464414577E+04  0.10558157979E+04  0.12500986505E+03 0.  0.
          2    1    1    2  501    0  0.43463879798E+02 -0.41020390951E+02 -0.20258766091E+03  0.21121917923E+03  0.00000000000E+00 0. -1.
          1    1    1    2  502    0 -0.62343860094E+02 -0.19998907541E+02 -0.16915760481E+03  0.18138635136E+03  0.00000000000E+00 0. -1.
         22    1    3    3    0    0  0.48467656598E+02 -0.21058655276E+02 -0.36239823721E+03  0.36623088760E+03  0.00000000000E+00 0.  1.
         22    1    3    3    0    0 -0.29587676303E+02  0.82077953768E+02 -0.68404322045E+03  0.68958491031E+03  0.00000000000E+00 0.  1.
</event>
<event>
 7    1  0.5957303E-006  0.5369644E+02  0.7818608E-02  0.1435496E+00
          2   -1    0    0  502    0  0.00000000000E+00  0.00000000000E+00  0.78370283030E+03  0.78370283030E+03  0.00000000000E+00 0. -1.
          1   -1    0    0  501    0 -0.00000000000E+00 -0.00000000000E+00 -0.75450395027E+03  0.75450395027E+03  0.00000000000E+00 0. -1.
         25    2    1    2    0    0 -0.93355806876E+02 -0.31936988289E+02  0.26346930812E+03  0.30785812570E+03  0.12500108536E+03 0.  0.
          2    1    1    2  501    0  0.53535720727E+02  0.15161985988E+01 -0.73006566590E+03  0.73202749182E+03  0.00000000000E+00 0. -1.
          1    1    1    2  502    0  0.39820086149E+02  0.30420789690E+02  0.49579523781E+03  0.49832116305E+03  0.00000000000E+00 0. -1.
         22    1    3    3    0    0 -0.10311782180E+03  0.20999313840E+02  0.18126238457E+03  0.20959558300E+03  0.00000000000E+00 0.  1.
         22    1    3    3    0    0  0.97620149215E+01 -0.52936302129E+02  0.82206923544E+02  0.98262542696E+02  0.00000000000E+00 0.  1.
</event>
<event>
 7    1  0.5957303E-006  0.6506917E+02  0.7818608E-02  0.1455089E+00
          2   -1    0    0  502    0  0.00000000000E+00  0.00000000000E+00  0.57705264603E+03  0.57705264603E+03  0.00000000000E+00 0. -1.
          1   -1    0    0  501    0 -0.00000000000E+00 -0.00000000000E+00 -0.29661708898E+03  0.29661708898E+03  0.00000000000E+00 0. -1.
         25    2    1    2    0    0 -0.77809086042E+02  0.51427035458E+02  0.35559730956E+02  0.15996628640E+03  0.12500289786E+03 0.  0.
          2    1    1    2  501    0  0.42211370474E+02 -0.48033416110E+02 -0.22936723933E+03  0.23811413091E+03  0.00000000000E+00 0. -1.
          1    1    1    2  502    0  0.35597715568E+02 -0.33936193478E+01  0.47424306542E+03  0.47558931769E+03  0.00000000000E+00 0. -1.
         22    1    3    3    0    0  0.55086013674E+01  0.20611080541E+02 -0.38694111024E+02  0.44185920360E+02  0.00000000000E+00 0. -1.
         22    1    3    3    0    0 -0.83317687409E+02  0.30815954917E+02  0.74253841980E+02  0.11578036604E+03  0.00000000000E+00 0. -1.
</event>
<event>
 7    1  0.9003365E-006  0.1521009E+03  0.7818608E-02  0.1324665E+00
          2   -1    0    0  502    0  0.00000000000E+00  0.00000000000E+00  0.16987942747E+04  0.16987942747E+04  0.00000000000E+00 0. -1.
          1   -1    0    0  501    0 -0.00000000000E+00 -0.00000000000E+00 -0.15612180454E+04  0.15612180454E+04  0.00000000000E+00 0. -1.
         25    2    1    2    0    0 -0.74351186030E+02 -0.81453914160E+02 -0.78901233646E+02  0.18442826190E+03  0.12500216046E+03 0.  0.
          2    1    1    2  501    0 -0.21565362798E+02 -0.38055241784E+02 -0.14256506196E+04  0.14263214769E+04  0.00000000000E+00 0. -1.
          1    1    1    2  502    0  0.95916548828E+02  0.11950915594E+03  0.16421280825E+04  0.16492625813E+04  0.00000000000E+00 0. -1.
         22    1    3    3    0    0  0.22847860695E+02  0.12724255212E+02  0.28596703022E+01  0.26307966916E+02  0.00000000000E+00 0.  1.
         22    1    3    3    0    0 -0.97199046725E+02 -0.94178169372E+02 -0.81760903948E+02  0.15812029498E+03  0.00000000000E+00 0.  1.
</event>
<event>
 7    1  0.5957303E-006  0.1299159E+03  0.7818608E-02  0.1281083E+00
          2   -1    0    0  502    0  0.00000000000E+00  0.00000000000E+00  0.20849203340E+04  0.20849203340E+04  0.00000000000E+00 0. -1.
          1   -1    0    0  501    0 -0.00000000000E+00 -0.00000000000E+00 -0.55346864541E+03  0.55346864541E+03  0.00000000000E+00 0. -1.
         25    2    1    2    0    0 -0.15977006843E+03 -0.11927565553E+03 -0.53948672545E+02  0.24142843658E+03  0.12499629576E+03 0.  0.
          2    1    1    2  501    0  0.99251482133E+02  0.72646060218E+02 -0.39570635312E+03  0.41438125521E+03  0.00000000000E+00 0. -1.
          1    1    1    2  502    0  0.60518586301E+02  0.46629595312E+02  0.19811067142E+04  0.19825792876E+04  0.00000000000E+00 0. -1.
         22    1    3    3    0    0 -0.26751989424E+02  0.71364177113E+01  0.28958223304E+02  0.40064648917E+02  0.00000000000E+00 0. -1.
         22    1    3    3    0    0 -0.13301807901E+03 -0.12641207324E+03 -0.82906895849E+02  0.20136378767E+03  0.00000000000E+00 0. -1.
</event>
<event>
 7    1  0.5957303E-006  0.5528665E+02  0.7818608E-02  0.1450399E+00
          2   -1    0    0  502    0  0.00000000000E+00  0.00000000000E+00  0.61659927033E+03  0.61659927033E+03  0.00000000000E+00 0. -1.
          1   -1    0    0  501    0 -0.00000000000E+00 -0.00000000000E+00 -0.12959867140E+04  0.12959867140E+04  0.00000000000E+00 0. -1.
         25    2    1    2    0    0  0.44887789193E+02 -0.41970346697E+02 -0.24327195576E+03  0.28032660036E+03  0.12500133916E+03 0.  0.
          2    1    1    2  501    0  0.10449632074E+02  0.42288233942E+02 -0.10324471076E+04  0.10333656272E+04  0.00000000000E+00 0. -1.
          1    1    1    2  502    0 -0.55337421267E+02 -0.31788724578E+00  0.59633161968E+03  0.59889375675E+03  0.00000000000E+00 0. -1.
         22    1    3    3    0    0  0.59840198317E+02  0.27829086001E+02 -0.14012441849E+03  0.15488757219E+03  0.00000000000E+00 0.  1.
         22    1    3    3    0    0 -0.14952409124E+02 -0.69799432698E+02 -0.10314753727E+03  0.12543902817E+03  0.00000000000E+00 0.  1.
</event>
<event>
 7    1  0.5957303E-006  0.9183983E+02  0.7818608E-02  0.1448984E+00
          2   -1    0    0  502    0  0.00000000000E+00  0.00000000000E+00  0.91971343763E+03  0.91971343763E+03  0.00000000000E+00 0. -1.
          1   -1    0    0  501    0 -0.00000000000E+00 -0.00000000000E+00 -0.84964871075E+02  0.84964871075E+02  0.00000000000E+00 0. -1.
         25    2    1    2    0    0 -0.82324691935E+02  0.20191685732E+02  0.16039852389E+03  0.22031197768E+03  0.12499848786E+03 0.  0.
          2    1    1    2  501    0 -0.10434977637E+02 -0.24356536734E+02 -0.48666095578E+02  0.55412259463E+02  0.00000000000E+00 0. -1.
          1    1    1    2  502    0  0.92759669572E+02  0.41648510022E+01  0.72301613825E+03  0.72895407157E+03  0.00000000000E+00 0. -1.
         22    1    3    3    0    0 -0.57653479704E+02 -0.23656928007E+02  0.15810906145E+03  0.16994719556E+03  0.00000000000E+00 0. -1.
         22    1    3    3    0    0 -0.24671212231E+02  0.43848613739E+02  0.22894624346E+01  0.50364782120E+02  0.00000000000E+00 0. -1.
</event>
<event>
 7    1  0.5957303E-006  0.1393219E+03  0.7818608E-02  0.1317089E+00
          2   -1    0    0  502    0  0.00000000000E+00  0.00000000000E+00  0.11437439676E+04  0.11437439676E+04  0.00000000000E+00 0. -1.
          1   -1    0    0  501    0 -0.00000000000E+00 -0.00000000000E+00 -0.90336323186E+02  0.90336323186E+02  0.00000000000E+00 0. -1.
         25    2    1    2    0    0  0.58909814072E+02  0.71764770953E+02  0.65048590849E+03  0.66886316559E+03  0.12500187434E+03 0.  0.
          2    1    1    2  501    0 -0.93074849921E+02 -0.10975396079E+03 -0.14541872776E+02  0.14463860363E+03  0.00000000000E+00 0. -1.
          1    1    1    2  502    0  0.34165035849E+02  0.37989189833E+02  0.41746360872E+03  0.42057852159E+03  0.00000000000E+00 0. -1.
         22    1    3    3    0    0 -0.21126799136E+02  0.13778789362E+02  0.38084803161E+03  0.38168235466E+03  0.00000000000E+00 0. -1.
         22    1    3    3    0    0  0.80036613208E+02  0.57985981591E+02  0.26963787688E+03  0.28718081092E+03  0.00000000000E+00 0. -1.
</event>
<event>
 7    1  0.5957303E-006  0.5916643E+02  0.7818608E-02  0.1402797E+00
          2   -1    0    0  502    0  0.00000000000E+00  0.00000000000E+00  0.67177970649E+02  0.67177970649E+02  0.00000000000E+00 0. -1.
          1   -1    0    0  501    0 -0.00000000000E+00 -0.00000000000E+00 -0.27828791212E+04  0.27828791212E+04  0.00000000000E+00 0. -1.
         25    2    1    2    0    0 -0.10652161559E+03  0.93116557010E+01 -0.10836566731E+04  0.10960706565E+04  0.12500214896E+03 0.  0.
          2    1    1    2  501    0  0.51087740041E+02 -0.28502476760E+02 -0.16782768725E+04  0.16792961648E+04  0.00000000000E+00 0. -1.
          1    1    1    2  502    0  0.55433875548E+02  0.19190821059E+02  0.46232395045E+02  0.74690270603E+02  0.00000000000E+00 0. -1.
         22    1    3    3    0    0 -0.11916124688E+02 -0.50912240455E+02 -0.33087608109E+03  0.33498213578E+03  0.00000000000E+00 0. -1.
         22    1    3    3    0    0 -0.94605490902E+02  0.60223896156E+02 -0.75278059202E+03  0.76108852068E+03  0.00000000000E+00 0. -1.
</event>
<event>
 7    1  0.5957303E-006  0.3076560E+03  0.7818608E-02  0.1156617E+00
          2   -1    0    0  502    0  0.00000000000E+00  0.00000000000E+00  0.57644164462E+03  0.57644164462E+03  0.00000000000E+00 0. -1.
          1   -1    0    0  501    0 -0.00000000000E+00 -0.00000000000E+00 -0.11330124415E+04  0.11330124415E+04  0.00000000000E+00 0. -1.
         25    2    1    2    0    0  0.80182695903E+02 -0.37988643595E+03  0.11986063324E+03  0.42512699562E+03  0.12499368808E+03 0.  0.
          2    1    1    2  501    0  0.87980339824E+01  0.11957271696E+03 -0.91340058173E+03  0.92123594304E+03  0.00000000000E+00 0. -1.
          1    1    1    2  502    0 -0.88980729886E+02  0.26031371899E+03  0.23696915158E+03  0.36309114749E+03  0.00000000000E+00 0. -1.
         22    1    3    3    0    0  0.12308833747E+01 -0.16363353409E+03  0.10501021992E+03  0.19443403725E+03  0.00000000000E+00 0.  1.
         22    1    3    3    0    0  0.78951812529E+02 -0.21625290187E+03  0.14850413320E+02  0.23069295837E+03  0.00000000000E+00 0.  1.
</event>
<event>
 7    1  0.5957303E-006  0.2392741E+03  0.7818608E-02  0.1226457E+00
          2   -1    0    0  502    0  0.00000000000E+00  0.00000000000E+00  0.47198446271E+04  0.47198446271E+04  0.00000000000E+00 0. -1.
          1   -1    0    0  501    0 -0.00000000000E+00 -0.00000000000E+00 -0.51176409574E+03  0.51176409574E+03  0.00000000000E+00 0. -1.
         25    2    1    2    0    0 -0.20531805884E+03 -0.13455279492E+02  0.61510965127E+03  0.66054599532E+03  0.12499831609E+03 0.  0.
          2    1    1    2  501    0 -0.27253052128E+02 -0.65957289288E+02 -0.48272121655E+03  0.48796809913E+03  0.00000000000E+00 0. -1.
          1    1    1    2  502    0  0.23257111097E+03  0.79412568780E+02  0.40756920966E+04  0.40830946283E+04  0.00000000000E+00 0. -1.
         22    1    3    3    0    0 -0.57044182930E+02 -0.11597314766E+02  0.51390825184E+02  0.77650199157E+02  0.00000000000E+00 0. -1.
         22    1    3    3    0    0 -0.14827387591E+03 -0.18579647263E+01  0.56371882608E+03  0.58289579617E+03  0.00000000000E+00 0. -1.
</event>
<event>
 7    1  0.5957303E-006  0.4745431E+02  0.7818608E-02  0.1573612E+00
          2   -1    0    0  502    0  0.00000000000E+00  0.00000000000E+00  0.40085108560E+02  0.40085108560E+02  0.00000000000E+00 0. -1.
          1   -1    0    0  501    0 -0.00000000000E+00 -0.00000000000E+00 -0.60908858177E+03  0.60908858177E+03  0.00000000000E+00 0. -1.
         25    2    1    2    0    0 -0.23397658343E+02 -0.61896535805E+02 -0.25421407767E+03  0.29090670732E+03  0.12499313389E+03 0.  0.
          2    1    1    2  501    0  0.22720878108E+02  0.39872245947E+02 -0.32890995073E+03  0.33209605537E+03  0.00000000000E+00 0. -1.
          1    1    1    2  502    0  0.67678023497E+00  0.22024289858E+02  0.14120555186E+02  0.26170927649E+02  0.00000000000E+00 0. -1.
         22    1    3    3    0    0 -0.45142612914E+02 -0.84785709202E+02 -0.12362514968E+03  0.15655557997E+03  0.00000000000E+00 0.  1.
         22    1    3    3    0    0  0.21744954571E+02  0.22889173397E+02 -0.13058892798E+03  0.13435112735E+03  0.00000000000E+00 0.  1.
</event>
<event>
 7    1  0.5957303E-006  0.6731397E+02  0.7818608E-02  0.1423885E+00
          2   -1    0    0  502    0  0.00000000000E+00  0.00000000000E+00  0.86055778556E+03  0.86055778556E+03  0.00000000000E+00 0. -1.
          1   -1    0    0  501    0 -0.00000000000E+00 -0.00000000000E+00 -0.35712352043E+03  0.35712352043E+03  0.00000000000E+00 0. -1.
         25    2    1    2    0    0  0.64443339250E+02  0.88204593700E+02 -0.13370881219E+03  0.21316340452E+03  0.12501038455E+03 0.  0.
          2    1    1    2  501    0 -0.32179733931E+02 -0.29496335406E+02 -0.17970326146E+03  0.18492926015E+03  0.00000000000E+00 0. -1.
          1    1    1    2  502    0 -0.32263605319E+02 -0.58708258293E+02  0.81684633877E+03  0.81958864132E+03  0.00000000000E+00 0. -1.
         22    1    3    3    0    0  0.44892616799E+02  0.20169265563E+02 -0.13359787538E+03  0.14237464178E+03  0.00000000000E+00 0. -1.
         22    1    3    3    0    0  0.19550722451E+02  0.68035328137E+02 -0.11093681034E+00  0.70788762738E+02  0.00000000000E+00 0. -1.
</event>
<event>
 7    1  0.5957303E-006  0.1151281E+03  0.7818608E-02  0.1328376E+00
          2   -1    0    0  502    0  0.00000000000E+00  0.00000000000E+00  0.94337386815E+03  0.94337386815E+03  0.00000000000E+00 0. -1.
          1   -1    0    0  501    0 -0.00000000000E+00 -0.00000000000E+00 -0.49595617420E+03  0.49595617420E+03  0.00000000000E+00 0. -1.
         25    2    1    2    0    0 -0.29970979306E+02  0.67927935878E+02  0.23611197669E+03  0.27728528061E+03  0.12500318890E+03 0.  0.
          2    1    1    2  501    0  0.10854210376E+01  0.55911769161E+02 -0.46780256617E+03  0.47113325608E+03  0.00000000000E+00 0. -1.
          1    1    1    2  502    0  0.28885558268E+02 -0.12383970504E+03  0.67910828344E+03  0.69091150566E+03  0.00000000000E+00 0. -1.
         22    1    3    3    0    0 -0.34809698081E+02 -0.11450688927E+02  0.10577730077E+02  0.38140814503E+02  0.00000000000E+00 0.  1.
         22    1    3    3    0    0  0.48387187748E+01  0.79378624805E+02  0.22553424661E+03  0.23914446611E+03  0.00000000000E+00 0.  1.
</event>
<event>
 7    1  0.5957303E-006  0.7582743E+02  0.7818608E-02  0.1420735E+00
          2   -1    0    0  502    0  0.00000000000E+00  0.00000000000E+00  0.15732216765E+04  0.15732216765E+04  0.00000000000E+00 0. -1.
          1   -1    0    0  501    0 -0.00000000000E+00 -0.00000000000E+00 -0.34417827914E+02  0.34417827914E+02  0.00000000000E+00 0. -1.
         25    2    1    2    0    0  0.42337277447E+02  0.81389545674E+01  0.23292526813E+03  0.26783919556E+03  0.12499986600E+03 0.  0.
          2    1    1    2  501    0  0.25819411061E+02  0.30155181384E+02  0.91786531820E+01  0.40745854097E+02  0.00000000000E+00 0. -1.
          1    1    1    2  502    0 -0.68156688508E+02 -0.38294135951E+02  0.12966999272E+04  0.12990544547E+04  0.00000000000E+00 0. -1.
         22    1    3    3    0    0 -0.12469057284E+02  0.47380325293E+02  0.16509772050E+03  0.17221390748E+03  0.00000000000E+00 0.  1.
         22    1    3    3    0    0  0.54806334731E+02 -0.39241370725E+02  0.67827547628E+02  0.95625288080E+02  0.00000000000E+00 0.  1.
</event>
<event>
 7    1  0.5957303E-006  0.1999788E+03  0.7818608E-02  0.1162223E+00
          2   -1    0    0  502    0  0.00000000000E+00  0.00000000000E+00  0.27116380215E+04  0.27116380215E+04  0.00000000000E+00 0. -1.
          1   -1    0    0  501    0 -0.00000000000E+00 -0.00000000000E+00 -0.81523911318E+03  0.81523911318E+03  0.00000000000E+00 0. -1.
         25    2    1    2    0    0 -0.88984286390E+02 -0.13249548837E+03  0.87495697937E+03  0.89813602435E+03  0.12500137931E+03 0.  0.
          2    1    1    2  501    0  0.20154228241E+03  0.13961885165E+01 -0.78682964578E+03  0.81223280679E+03  0.00000000000E+00 0. -1.
          1    1    1    2  502    0 -0.11255799602E+03  0.13109929985E+03  0.18082715747E+04  0.18165083035E+04  0.00000000000E+00 0. -1.
         22    1    3    3    0    0  0.28931396068E+02 -0.38237082570E+02  0.29409924138E+03  0.29798232153E+03  0.00000000000E+00 0.  1.
         22    1    3    3    0    0 -0.11791568246E+03 -0.94258405800E+02  0.58085773799E+03  0.60015370282E+03  0.00000000000E+00 0.  1.
</event>
<event>
 7    1  0.1263271E-005  0.5790556E+02  0.7818608E-02  0.1415009E+00
          2   -1    0    0  502    0  0.00000000000E+00  0.00000000000E+00  0.19474978813E+04  0.19474978813E+04  0.00000000000E+00 0. -1.
          1   -1    0    0  501    0 -0.00000000000E+00 -0.00000000000E+00 -0.11639981347E+04  0.11639981347E+04  0.00000000000E+00 0. -1.
         25    2    1    2    0    0 -0.52313248391E+02  0.60500387125E+02 -0.81455204433E+02  0.16928289339E+03  0.12499909945E+03 0.  0.
          2    1    1    2  501    0 -0.52322132774E+01 -0.54080514163E+02 -0.10374777355E+04  0.10388994801E+04  0.00000000000E+00 0. -1.
          1    1    1    2  502    0  0.57545461668E+02 -0.64198729623E+01  0.19024326865E+04  0.19033136425E+04  0.00000000000E+00 0. -1.
         22    1    3    3    0    0 -0.77277163191E+02  0.74710663460E+02 -0.89036590172E+02  0.13957420096E+03  0.00000000000E+00 0. -1.
         22    1    3    3    0    0  0.24963914800E+02 -0.14210276335E+02  0.75813857387E+01  0.29708692421E+02  0.00000000000E+00 0. -1.
</event>
<event>
 7    1  0.5957303E-006  0.1131967E+03  0.7818608E-02  0.1356704E+00
          2   -1    0    0  502    0  0.00000000000E+00  0.00000000000E+00  0.19707489452E+03  0.19707489452E+03  0.00000000000E+00 0. -1.
          1   -1    0    0  501    0 -0.00000000000E+00 -0.00000000000E+00 -0.93492056539E+03  0.93492056539E+03  0.00000000000E+00 0. -1.
         25    2    1    2    0    0  0.67876514287E+02 -0.34258501065E+02 -0.12750821720E+03  0.19407689652E+03  0.12500652072E+03 0.  0.
          2    1    1    2  501    0  0.28564755801E+02 -0.34175623977E+02 -0.75203829708E+03  0.75335616996E+03  0.00000000000E+00 0. -1.
          1    1    1    2  502    0 -0.96441270087E+02  0.68434125042E+02  0.14170084341E+03  0.18456239343E+03  0.00000000000E+00 0. -1.
         22    1    3    3    0    0 -0.17039101680E+02 -0.26594439181E+02  0.92558224460E+01  0.32912997897E+02  0.00000000000E+00 0.  1.
         22    1    3    3    0    0  0.84915615967E+02 -0.76640618834E+01 -0.13676403964E+03  0.16116389862E+03  0.00000000000E+00 0.  1.
</event>
<event>
 7    1  0.5957303E-006  0.8433534E+02  0.7818608E-02  0.1497639E+00
          2   -1    0    0  502    0  0.00000000000E+00  0.00000000000E+00  0.14547026864E+04  0.14547026864E+04  0.00000000000E+00 0. -1.
          1   -1    0    0  501    0 -0.00000000000E+00 -0.00000000000E+00 -0.99226040785E+03  0.99226040785E+03  0.00000000000E+00 0. -1.
         25    2    1    2    0    0 -0.67933885857E+02 -0.25584563294E+01  0.21557481532E+02  0.14392909502E+03  0.12501720217E+03 0.  0.
          2    1    1    2  501    0  0.83192685956E+02  0.16091628234E+02 -0.92907066722E+03  0.93292672177E+03  0.00000000000E+00 0. -1.
          1    1    1    2  502    0 -0.15258800099E+02 -0.13533171904E+02  0.13699554643E+04  0.13701072775E+04  0.00000000000E+00 0. -1.
         22    1    3    3    0    0 -0.72078804186E+02  0.75458622705E+01  0.66086585772E+02  0.98080226698E+02  0.00000000000E+00 0.  1.
         22    1    3    3    0    0  0.41449183286E+01 -0.10104318600E+02 -0.44529104239E+02  0.45848868325E+02  0.00000000000E+00 0.  1.
</event>
<event>
 7    1  0.5957303E-006  0.1382875E+03  0.7818608E-02  0.1294103E+00
          2   -1    0    0  502    0  0.00000000000E+00  0.00000000000E+00  0.20564960502E+03  0.20564960502E+03  0.00000000000E+00 0. -1.
          1   -1    0    0  501    0 -0.00000000000E+00 -0.00000000000E+00 -0.81685022737E+03  0.81685022737E+03  0.00000000000E+00 0. -1.
         25    2    1    2    0    0 -0.19260454666E+03 -0.17781523904E+02 -0.61191144426E+03  0.65381442853E+03  0.12499998944E+03 0.  0.
          2    1    1    2  501    0  0.56876614113E+02  0.28248393715E+02 -0.15162505601E+03  0.16438697817E+03  0.00000000000E+00 0. -1.
          1    1    1    2  502    0  0.13572793255E+03 -0.10466869812E+02  0.15233587792E+03  0.20429842569E+03  0.00000000000E+00 0. -1.
         22    1    3    3    0    0 -0.11180871080E+03  0.41069052895E+02 -0.43065031806E+03  0.44681937218E+03  0.00000000000E+00 0.  1.
         22    1    3    3    0    0 -0.80795835860E+02 -0.58850576799E+02 -0.18126112620E+03  0.20699505635E+03  0.00000000000E+00 0.  1.
</event>
<event>
 7    1  0.5957303E-006  0.1165612E+03  0.7818608E-02  0.1287444E+00
          2   -1    0    0  502    0  0.00000000000E+00  0.00000000000E+00  0.35278362936E+03  0.35278362936E+03  0.00000000000E+00 0. -1.
          1   -1    0    0  501    0 -0.00000000000E+00 -0.00000000000E+00 -0.89201778286E+03  0.89201778286E+03  0.00000000000E+00 0. -1.
         25    2    1    2    0    0  0.14200401378E+03  0.11443171227E+03 -0.80185878957E+02  0.23518668048E+03  0.12499297096E+03 0.  0.
          2    1    1    2  501    0 -0.38948757887E+02 -0.70088939237E+02 -0.72058397924E+03  0.72503154158E+03  0.00000000000E+00 0. -1.
          1    1    1    2  502    0 -0.10305525589E+03 -0.44342773034E+02  0.26153570470E+03  0.28458319016E+03  0.00000000000E+00 0. -1.
         22    1    3    3    0    0 -0.46005475178E+01  0.56783128538E+02 -0.47786837214E+02  0.74357720076E+02  0.00000000000E+00 0. -1.
         22    1    3    3    0    0  0.14660456130E+03  0.57648583733E+02 -0.32399041743E+02  0.16082896041E+03  0.00000000000E+00 0. -1.
</event>
<event>
 7    1  0.5957303E-006  0.4609777E+02  0.7818608E-02  0.1513143E+00
          2   -1    0    0  502    0  0.00000000000E+00  0.00000000000E+00  0.21522098979E+02  0.21522098979E+02  0.00000000000E+00 0. -1.
          1   -1    0    0  501    0 -0.00000000000E+00 -0.00000000000E+00 -0.84665953305E+03  0.84665953305E+03  0.00000000000E+00 0. -1.
         25    2    1    2    0    0 -0.15404669024E+02 -0.41095694079E+02 -0.62596728744E+03  0.63983287316E+03  0.12499960293E+03 0.  0.
          2    1    1    2  501    0  0.44641006702E+02  0.24600170304E+02 -0.18503220913E+03  0.19192422013E+03  0.00000000000E+00 0. -1.
          1    1    1    2  502    0 -0.29236337678E+02  0.16495523775E+02 -0.14137937505E+02  0.36424538739E+02  0.00000000000E+00 0. -1.
         22    1    3    3    0    0 -0.22474517709E+02 -0.24018884955E+01 -0.13966744606E+02  0.26569587304E+02  0.00000000000E+00 0. -1.
         22    1    3    3    0    0  0.70698486858E+01 -0.38693805583E+02 -0.61200054284E+03  0.61326328586E+03  0.00000000000E+00 0. -1.
</event>
<event>
 7    1  0.5957303E-006  0.5851579E+02  0.7818608E-02  0.1414902E+00
          2   -1    0    0  502    0  0.00000000000E+00  0.00000000000E+00  0.15723148442E+03  0.15723148442E+03  0.00000000000E+00 0. -1.
          1   -1    0    0  501    0 -0.00000000000E+00 -0.00000000000E+00 -0.76463716438E+03  0.76463716438E+03  0.00000000000E+00 0. -1.
         25    2    1    2    0    0  0.35195553176E+02  0.10482227417E+03 -0.10235616043E+03  0.19577475697E+03  0.12499814304E+03 0.  0.
          2    1    1    2  501    0 -0.21791059080E+02 -0.52707364777E+02 -0.60760619689E+03  0.61027715593E+03  0.00000000000E+00 0. -1.
          1    1    1    2  502    0 -0.13404494097E+02 -0.52114909397E+02  0.10255667736E+03  0.11581673590E+03  0.00000000000E+00 0. -1.
         22    1    3    3    0    0  0.21589376212E+02  0.98350600665E+02 -0.12991387650E+03  0.16436714126E+03  0.00000000000E+00 0. -1.
         22    1    3    3    0    0  0.13606176964E+02  0.64716735085E+01  0.27557716075E+02  0.31407615714E+02  0.00000000000E+00 0. -1.
</event>
<event>
 7    1  0.5957303E-006  0.7851941E+02  0.7818608E-02  0.1489237E+00
          2   -1    0    0  502    0  0.00000000000E+00  0.00000000000E+00  0.35216283228E+03  0.35216283228E+03  0.00000000000E+00 0. -1.
          1   -1    0    0  501    0 -0.00000000000E+00 -0.00000000000E+00 -0.10036033082E+03  0.10036033082E+03  0.00000000000E+00 0. -1.
         25    2    1    2    0    0  0.78557771472E+02  0.51567699753E+02  0.17560920228E+03  0.23514774774E+03  0.12500128089E+03 0.  0.
          2    1    1    2  501    0 -0.71172538684E+02 -0.29553145644E+02 -0.48158369843E+02  0.90874348780E+02  0.00000000000E+00 0. -1.
          1    1    1    2  502    0 -0.73852327881E+01 -0.22014554109E+02  0.12435166903E+03  0.12650106658E+03  0.00000000000E+00 0. -1.
         22    1    3    3    0    0 -0.17416478086E+02  0.51156583697E+02  0.33223519107E+02  0.63436046427E+02  0.00000000000E+00 0.  1.
         22    1    3    3    0    0  0.95974249558E+02  0.41111605611E+00  0.14238568317E+03  0.17171170131E+03  0.00000000000E+00 0.  1.
</event>
<event>
 7    1  0.5957303E-006  0.8686627E+02  0.7818608E-02  0.1363595E+00
          2   -1    0    0  502    0  0.00000000000E+00  0.00000000000E+00  0.19432587651E+04  0.19432587651E+04  0.00000000000E+00 0. -1.
          1   -1    0    0  501    0 -0.00000000000E+00 -0.00000000000E+00 -0.18352006451E+04  0.18352006451E+04  0.00000000000E+00 0. -1.
         25    2    1    2    0    0 -0.87977281349E+02  0.11069967891E+03  0.48680753011E+03  0.52211204053E+03  0.12499996223E+03 0.  0.
          2    1    1    2  501    0  0.56258628142E+02 -0.66040206908E+02 -0.18159911222E+04  0.18180621821E+04  0.00000000000E+00 0. -1.
          1    1    1    2  502    0  0.31718653207E+02 -0.44659472000E+02  0.14372417121E+04  0.14382851875E+04  0.00000000000E+00 0. -1.
         22    1    3    3    0    0 -0.68924903863E+02  0.69418033155E+02  0.13143790652E+03  0.16384574748E+03  0.00000000000E+00 0. -1.
         22    1    3    3    0    0 -0.19052377485E+02  0.41281645754E+02  0.35536962359E+03  0.35826629305E+03  0.00000000000E+00 0. -1.
</event>
<event>
 7    1  0.5957303E-006  0.5777688E+02  0.7818608E-02  0.1471865E+00
          2   -1    0    0  502    0  0.00000000000E+00  0.00000000000E+00  0.44880283950E+03  0.44880283950E+03  0.00000000000E+00 0. -1.
          1   -1    0    0  501    0 -0.00000000000E+00 -0.00000000000E+00 -0.14334405981E+04  0.14334405981E+04  0.00000000000E+00 0. -1.
         25    2    1    2    0    0  0.42677336082E+02 -0.15830809204E+02  0.73583906809E+02  0.15202358476E+03  0.12499843778E+03 0.  0.
          2    1    1    2  501    0  0.14010222554E+02  0.32806786018E+02 -0.13913849597E+04  0.13918421885E+04  0.00000000000E+00 0. -1.
          1    1    1    2  502    0 -0.56687558635E+02 -0.16975976813E+02  0.33316329428E+03  0.33837766438E+03  0.00000000000E+00 0. -1.
         22    1    3    3    0    0  0.47972356396E+02 -0.33738585027E+02  0.10221226390E+03  0.11784305661E+03  0.00000000000E+00 0. -1.
         22    1    3    3    0    0 -0.52950203143E+01  0.17907775823E+02 -0.28628357094E+02  0.34180528155E+02  0.00000000000E+00 0. -1.
</event>
<event>
 7    1  0.5957303E-006  0.7519012E+02  0.7818608E-02  0.1473806E+00
          2   -1    0    0  502    0  0.00000000000E+00  0.00000000000E+00  0.11506687306E+04  0.11506687306E+04  0.00000000000E+00 0. -1.
          1   -1    0    0  501    0 -0.00000000000E+00 -0.00000000000E+00 -0.23152614063E+03  0.23152614063E+03  0.00000000000E+00 0. -1.
         25    2    1    2    0    0 -0.14307823034E+02 -0.65152060415E+02  0.21729341580E+03  0.25940500476E+03  0.12500009266E+03 0.  0.
          2    1    1    2  501    0 -0.27007558268E+02  0.12082804037E+01 -0.20800588240E+03  0.20975537004E+03  0.00000000000E+00 0. -1.
          1    1    1    2  502    0  0.41315381301E+02  0.63943780011E+02  0.90985505654E+03  0.91303449642E+03  0.00000000000E+00 0. -1.
         22    1    3    3    0    0  0.52608200112E+01  0.62826478529E+01 -0.14176163457E+02  0.16374110712E+02  0.00000000000E+00 0. -1.
         22    1    3    3    0    0 -0.19568643045E+02 -0.71434708268E+02  0.23146957926E+03  0.24303089404E+03  0.00000000000E+00 0. -1.
</event>
<event>
 7    1  0.5957303E-006  0.4422661E+02  0.7818608E-02  0.1523704E+00
          2   -1    0    0  502    0  0.00000000000E+00  0.00000000000E+00  0.23573742253E+03  0.23573742253E+03  0.00000000000E+00 0. -1.
          1   -1    0    0  501    0 -0.00000000000E+00 -0.00000000000E+00 -0.31801465756E+03  0.31801465756E+03  0.00000000000E+00 0. -1.
         25    2    1    2    0    0  0.26365662832E+02 -0.35486085286E+02  0.11206511884E+02  0.13305870046E+03  0.12499848573E+03 0.  0.
          2    1    1    2  501    0  0.50311843269E+01  0.44255818032E+02 -0.25350362327E+03  0.25738682417E+03  0.00000000000E+00 0. -1.
          1    1    1    2  502    0 -0.31396847159E+02 -0.87697327461E+01  0.16001987636E+03  0.16330655545E+03  0.00000000000E+00 0. -1.
         22    1    3    3    0    0  0.17563069017E+02 -0.54999102063E+02  0.57853954847E+02  0.81733975264E+02  0.00000000000E+00 0. -1.
         22    1    3    3    0    0  0.88025938148E+01  0.19513016777E+02 -0.46647442964E+02  0.51324725198E+02  0.00000000000E+00 0. -1.
</event>
<event>
 7    1  0.5957303E-006  0.1092772E+03  0.7818608E-02  0.1343765E+00
          2   -1    0    0  502    0  0.00000000000E+00  0.00000000000E+00  0.15871547107E+04  0.15871547107E+04  0.00000000000E+00 0. -1.
          1   -1    0    0  501    0 -0.00000000000E+00 -0.00000000000E+00 -0.24756303070E+04  0.24756303070E+04  0.00000000000E+00 0. -1.
         25    2    1    2    0    0 -0.52272264452E+02  0.11516511547E+03 -0.17115013690E+03  0.24680382901E+03  0.12499746878E+03 0.  0.
          2    1    1    2  501    0  0.11168546463E+01 -0.10903513171E+03 -0.22649129952E+04  0.22675362805E+04  0.00000000000E+00 0. -1.
          1    1    1    2  502    0  0.51155409805E+02 -0.61299837627E+01  0.15475875358E+04  0.15484449082E+04  0.00000000000E+00 0. -1.
         22    1    3    3    0    0 -0.93081338131E+02  0.75675652025E+02 -0.10316010623E+03  0.15821803733E+03  0.00000000000E+00 0. -1.
         22    1    3    3    0    0  0.40809073680E+02  0.39489463444E+02 -0.67990030670E+02  0.88585791684E+02  0.00000000000E+00 0. -1.
</event>
<event>
 7    1  0.5957303E-006  0.2982977E+02  0.7818608E-02  0.1640874E+00
          2   -1    0    0  502    0  0.00000000000E+00  0.00000000000E+00  0.56326673786E+01  0.56326673786E+01  0.00000000000E+00 0. -1.
          1   -1    0    0  501    0 -0.00000000000E+00 -0.00000000000E+00 -0.25352926064E+04  0.25352926064E+04  0.00000000000E+00 0. -1.
         25    2    1    2    0    0  0.68185518464E+01 -0.39497072468E+01 -0.19938502899E+04  0.19977804973E+04  0.12500337599E+03 0.  0.
          2    1    1    2  501    0  0.23465189769E+02 -0.52488303849E+00 -0.46975853723E+03  0.47034452685E+03  0.00000000000E+00 0. -1.
          1    1    1    2  502    0 -0.30283741616E+02  0.44745902853E+01 -0.66051111852E+02  0.72800249597E+02  0.00000000000E+00 0. -1.
         22    1    3    3    0    0 -0.21431274239E+02  0.47105901145E+02 -0.14263044954E+04  0.14272430694E+04  0.00000000000E+00 0. -1.
         22    1    3    3    0    0  0.28249826085E+02 -0.51055608392E+02 -0.56754579450E+03  0.57053742794E+03  0.00000000000E+00 0. -1.
</event>
<event>
 7    1  0.5957303E-006  0.6397460E+02  0.7818608E-02  0.1408487E+00
          2   -1    0    0  502    0  0.00000000000E+00  0.00000000000E+00  0.11319073686E+04  0.11319073686E+04  0.00000000000E+00 0. -1.
          1   -1    0    0  501    0 -0.00000000000E+00 -0.00000000000E+00 -0.21675495955E+03  0.21675495955E+03  0.00000000000E+00 0. -1.
         25    2    1    2    0    0 -0.81919625731E+02 -0.57917076478E+02 -0.46630138370E+02  0.16692383522E+03  0.12499593646E+03 0.  0.
          2    1    1    2  501    0  0.18929353475E+02  0.48152646105E+02 -0.10288623630E+03  0.11516325529E+03  0.00000000000E+00 0. -1.
          1    1    1    2  502    0  0.62990272256E+02  0.97644303729E+01  0.10646687837E+04  0.10665752376E+04  0.00000000000E+00 0. -1.
         22    1    3    3    0    0 -0.10002603091E+02  0.29920339822E+02  0.17970404971E+02  0.36307220474E+02  0.00000000000E+00 0. -1.
         22    1    3    3    0    0 -0.71917022640E+02 -0.87837416301E+02 -0.64600543342E+02  0.13061661475E+03  0.00000000000E+00 0. -1.
</event>
<event>
 7    1  0.5957303E-006  0.9421076E+02  0.7818608E-02  0.1377694E+00
          2   -1    0    0  502    0  0.00000000000E+00  0.00000000000E+00  0.95079936582E+03  0.95079936582E+03  0.00000000000E+00 0. -1.
          1   -1    0    0  501    0 -0.00000000000E+00 -0.00000000000E+00 -0.90528349899E+02  0.90528349899E+02  0.00000000000E+00 0. -1.
         25    2    1    2    0    0  0.10126687721E+03 -0.30100740640E+02  0.40168776058E+03  0.43374970641E+03  0.12499886323E+03 0.  0.
          2    1    1    2  501    0 -0.31620157424E+02 -0.31945425077E+02 -0.63182989663E+02  0.77539891164E+02  0.00000000000E+00 0. -1.
          1    1    1    2  502    0 -0.69646719782E+02  0.62046165717E+02  0.52176624501E+03  0.53003811814E+03  0.00000000000E+00 0. -1.
         22    1    3    3    0    0 -0.69422152982E+00 -0.31359676210E+02  0.24371748757E+03  0.24572774565E+03  0.00000000000E+00 0.  1.
         22    1    3    3    0    0  0.10196109874E+03  0.12589355693E+01  0.15797027301E+03  0.18802196077E+03  0.00000000000E+00 0.  1.
</event>
<event>
 7    1  0.5957303E-006  0.1181457E+03  0.7818608E-02  0.1301257E+00
          2   -1    0    0  502    0  0.00000000000E+00  0.00000000000E+00  0.62751057759E+03  0.62751057759E+03  0.00000000000E+00 0. -1.
          1   -1    0    0  501    0 -0.00000000000E+00 -0.00000000000E+00 -0.13754256959E+04  0.13754256959E+04  0.00000000000E+00 0. -1.
         25    2    1    2    0    0  0.11330521822E+03  0.94123984561E+02 -0.13379407366E+03  0.23499600780E+03  0.12499949036E+03 0.  0.
          2    1    1    2  501    0 -0.68033625317E+02  0.14546673107E+02 -0.11839932511E+04  0.11860354963E+04  0.00000000000E+00 0. -1.
          1    1    1    2  502    0 -0.45271592901E+02 -0.10867065767E+03  0.56987220644E+03  0.58190476938E+03  0.00000000000E+00 0. -1.
         22    1    3    3    0    0 -0.22949203299E+02  0.29552180010E+02 -0.50146066090E+02  0.62566965882E+02  0.00000000000E+00 0. -1.
         22    1    3    3    0    0  0.13625442152E+03  0.64571804552E+02 -0.83648007572E+02  0.17242904192E+03  0.00000000000E+00 0. -1.
</event>
<event>
 7    1  0.5957303E-006  0.5825880E+02  0.7818608E-02  0.1424219E+00
          2   -1    0    0  502    0  0.00000000000E+00  0.00000000000E+00  0.77445242358E+03  0.77445242358E+03  0.00000000000E+00 0. -1.
          1   -1    0    0  501    0 -0.00000000000E+00 -0.00000000000E+00 -0.22475719197E+04  0.22475719197E+04  0.00000000000E+00 0. -1.
         25    2    1    2    0    0  0.27672470706E+01 -0.16702524783E+02  0.17403499169E+03  0.21494168426E+03  0.12500046924E+03 0.  0.
          2    1    1    2  501    0 -0.34905531366E+02 -0.36229658667E+02 -0.22251804579E+04  0.22257490996E+04  0.00000000000E+00 0. -1.
          1    1    1    2  502    0  0.32138284296E+02  0.52932183450E+02  0.57802597000E+03  0.58133355947E+03  0.00000000000E+00 0. -1.
         22    1    3    3    0    0 -0.26284353419E+02 -0.25718820142E+01  0.18013860037E+03  0.18206426656E+03  0.00000000000E+00 0. -1.
         22    1    3    3    0    0  0.29051600489E+02 -0.14130642769E+02 -0.61036086867E+01  0.32877417707E+02  0.00000000000E+00 0. -1.
</event>
<event>
 7    1  0.5957303E-006  0.5130610E+02  0.7818608E-02  0.1501009E+00
          2   -1    0    0  502    0  0.00000000000E+00  0.00000000000E+00  0.12028458254E+04  0.12028458254E+04  0.00000000000E+00 0. -1.
          1   -1    0    0  501    0 -0.00000000000E+00 -0.00000000000E+00 -0.12104382389E+03  0.12104382389E+03  0.00000000000E+00 0. -1.
         25    2    1    2    0    0 -0.11407533933E+02 -0.81775905271E+02  0.56359991798E+02  0.16005868277E+03  0.12499961096E+03 0.  0.
          2    1    1    2  501    0 -0.22361786906E+01  0.32681044187E+02 -0.64688784370E+02  0.72509930131E+02  0.00000000000E+00 0. -1.
          1    1    1    2  502    0  0.13643712623E+02  0.49094861084E+02  0.10901307941E+04  0.10913210364E+04  0.00000000000E+00 0. -1.
         22    1    3    3    0    0  0.37339996965E+02  0.41598877310E+01 -0.12538880421E+02  0.39608124943E+02  0.00000000000E+00 0. -1.
         22    1    3    3    0    0 -0.48747530898E+02 -0.85935793002E+02  0.68898872219E+02  0.12045055783E+03  0.00000000000E+00 0. -1.
</event>
<event>
 7    1  0.5957303E-006  0.1744548E+03  0.7818608E-02  0.1175722E+00
          2   -1    0    0  502    0  0.00000000000E+00  0.00000000000E+00  0.26567067102E+03  0.26567067102E+03  0.00000000000E+00 0. -1.
          1   -1    0    0  501    0 -0.00000000000E+00 -0.00000000000E+00 -0.43121161316E+03  0.43121161316E+03  0.00000000000E+00 0. -1.
         25    2    1    2    0    0 -0.11463016912E+03 -0.69297441088E+02 -0.15752590870E+02  0.18388827119E+03  0.12499816458E+03 0.  0.
          2    1    1    2  501    0  0.93264773089E+01  0.20838589639E+03 -0.23885575347E+03  0.31711785815E+03  0.00000000000E+00 0. -1.
          1    1    1    2  502    0  0.10530369181E+03 -0.13908845530E+03  0.89067402195E+02  0.19587615485E+03  0.00000000000E+00 0. -1.
         22    1    3    3    0    0 -0.92591578690E+02  0.13353248241E+02 -0.27593372517E+02  0.97534116543E+02  0.00000000000E+00 0.  1.
         22    1    3    3    0    0 -0.22038590429E+02 -0.82650689330E+02  0.11840781647E+02  0.86354154647E+02  0.00000000000E+00 0.  1.
</event>
<event>
 7    1  0.5957303E-006  0.4214774E+02  0.7818608E-02  0.1565295E+00
          2   -1    0    0  502    0  0.00000000000E+00  0.00000000000E+00  0.21197744198E+03  0.21197744198E+03  0.00000000000E+00 0. -1.
          1   -1    0    0  501    0 -0.00000000000E+00 -0.00000000000E+00 -0.19044232346E+03  0.19044232346E+03  0.00000000000E+00 0. -1.
         25    2    1    2    0    0 -0.29210359506E+02 -0.51392287655E+02 -0.46363885803E+02  0.14584076351E+03  0.12500202423E+03 0.  0.
          2    1    1    2  501    0  0.54072045465E+01  0.40601568249E+02 -0.88759922108E+02  0.97755045793E+02  0.00000000000E+00 0. -1.
          1    1    1    2  502    0  0.23803154959E+02  0.10790719405E+02  0.15665892643E+03  0.15882395614E+03  0.00000000000E+00 0. -1.
         22    1    3    3    0    0  0.12082229371E+02  0.10846033131E+01  0.37053505088E+02  0.38988701828E+02  0.00000000000E+00 0.  1.
         22    1    3    3    0    0 -0.41292588877E+02 -0.52476890968E+02 -0.83417390891E+02  0.10685206168E+03  0.00000000000E+00 0.  1.
</event>
<event>
 7    1  0.5957303E-006  0.2102384E+03  0.7818608E-02  0.1292805E+00
          2   -1    0    0  502    0  0.00000000000E+00  0.00000000000E+00  0.26347204937E+04  0.26347204937E+04  0.00000000000E+00 0. -1.
          1   -1    0    0  501    0 -0.00000000000E+00 -0.00000000000E+00 -0.52665082285E+02  0.52665082285E+02  0.00000000000E+00 0. -1.
         25    2    1    2    0    0 -0.21729283287E+03  0.56557662420E+02  0.49180496515E+03  0.55489821142E+03  0.12499982759E+03 0.  0.
          2    1    1    2  501    0  0.94676791300E+01 -0.41205964103E+02  0.12186840619E+02  0.44000994422E+02  0.00000000000E+00 0. -1.
          1    1    1    2  502    0  0.20782515374E+03 -0.15351698316E+02  0.20780636057E+04  0.20884863702E+04  0.00000000000E+00 0. -1.
         22    1    3    3    0    0 -0.44627140272E+02 -0.23245031342E+02  0.38678289754E+02  0.63465921795E+02  0.00000000000E+00 0.  1.
         22    1    3    3    0    0 -0.17266569259E+03  0.79802693761E+02  0.45312667539E+03  0.49143228962E+03  0.00000000000E+00 0.  1.
</event>
<event>
 7    1  0.5957303E-006  0.4208368E+02  0.7818608E-02  0.1501748E+00
          2   -1    0    0  502    0  0.00000000000E+00  0.00000000000E+00  0.27444436743E+03  0.27444436743E+03  0.00000000000E+00 0. -1.
          1   -1    0    0  501    0 -0.00000000000E+00 -0.00000000000E+00 -0.63888133093E+03  0.63888133093E+03  0.00000000000E+00 0. -1.
         25    2    1    2    0    0 -0.17431519080E+02 -0.68610428172E+02 -0.92045073044E+02  0.17061179350E+03  0.12499935959E+03 0.  0.
          2    1    1    2  501    0  0.28017763736E+02  0.28174324371E+02 -0.50490880516E+03  0.50646983046E+03  0.00000000000E+00 0. -1.
          1    1    1    2  502    0 -0.10586244656E+02  0.40436103801E+02  0.23251691470E+03  0.23624407440E+03  0.00000000000E+00 0. -1.
         22    1    3    3    0    0  0.16421872415E+02 -0.77559282157E+02 -0.10646725295E+03  0.13274184002E+03  0.00000000000E+00 0.  1.
         22    1    3    3    0    0 -0.33853391494E+02  0.89488539848E+01  0.14422179903E+02  0.37869953479E+02  0.00000000000E+00 0.  1.
</event>
<event>
 7    1  0.5957303E-006  0.1591987E+03  0.7818608E-02  0.1283576E+00
          2   -1    0    0  502    0  0.00000000000E+00  0.00000000000E+00  0.14050650929E+04  0.14050650929E+04  0.00000000000E+00 0. -1.
          1   -1    0    0  501    0 -0.00000000000E+00 -0.00000000000E+00 -0.95870316790E+03  0.95870316790E+03  0.00000000000E+00 0. -1.
         25    2    1    2    0    0 -0.12414257972E+03  0.11148039237E+03 -0.49221084886E+02  0.21421257869E+03  0.12500022276E+03 0.  0.
          2    1    1    2  501    0 -0.25025167480E+02 -0.55510261699E+02 -0.82105669064E+03  0.82331144618E+03  0.00000000000E+00 0. -1.
          1    1    1    2  502    0  0.14916774720E+03 -0.55970130668E+02  0.13166397006E+04  0.13262442360E+04  0.00000000000E+00 0. -1.
         22    1    3    3    0    0 -0.11985553848E+03  0.29050076684E+02 -0.12785426369E+02  0.12398679037E+03  0.00000000000E+00 0. -1.
         22    1    3    3    0    0 -0.42870412415E+01  0.82430315683E+02 -0.36435658517E+02  0.90225788319E+02  0.00000000000E+00 0. -1.
</event>
<event>
 7    1  0.5957303E-006  0.6963103E+02  0.7818608E-02  0.1392439E+00
          2   -1    0    0  502    0  0.00000000000E+00  0.00000000000E+00  0.21597848001E+04  0.21597848001E+04  0.00000000000E+00 0. -1.
          1   -1    0    0  501    0 -0.00000000000E+00 -0.00000000000E+00 -0.21960055882E+03  0.21960055882E+03  0.00000000000E+00 0. -1.
         25    2    1    2    0    0 -0.22192970873E+02 -0.84858244580E+02  0.32193795055E+03  0.35631785522E+03  0.12499968124E+03 0.  0.
          2    1    1    2  501    0 -0.27563656076E+02  0.63945552177E+02 -0.19600858170E+03  0.20800998264E+03  0.00000000000E+00 0. -1.
          1    1    1    2  502    0  0.49756626949E+02  0.20912692403E+02  0.18142548724E+04  0.18150575211E+04  0.00000000000E+00 0. -1.
         22    1    3    3    0    0 -0.66979039361E+02 -0.50095235621E+02  0.11793540778E+03  0.14458383296E+03  0.00000000000E+00 0. -1.
         22    1    3    3    0    0  0.44786068488E+02 -0.34763008959E+02  0.20400254277E+03  0.21173402225E+03  0.00000000000E+00 0. -1.
</event>
<event>
 7    1  0.5957303E-006  0.2485785E+03  0.7818608E-02  0.1211950E+00
          2   -1    0    0  502    0  0.00000000000E+00  0.00000000000E+00  0.50092012336E+03  0.50092012336E+03  0.00000000000E+00 0. -1.
          1   -1    0    0  501    0 -0.00000000000E+00 -0.00000000000E+00 -0.17901922472E+04  0.17901922472E+04  0.00000000000E+00 0. -1.
         25    2    1    2    0    0  0.79396316406E+02  0.27422795461E+03 -0.41069015283E+03  0.51555290666E+03  0.12499460699E+03 0.  0.
          2    1    1    2  501    0  0.48632956649E+02 -0.63535949168E+02 -0.12918573211E+04  0.12943327700E+04  0.00000000000E+00 0. -1.
          1    1    1    2  502    0 -0.12802927306E+03 -0.21069200545E+03  0.41327535013E+03  0.48122669392E+03  0.00000000000E+00 0. -1.
         22    1    3    3    0    0  0.62534228722E+02  0.35138251027E+02 -0.86239491138E+02  0.11217163759E+03  0.00000000000E+00 0. -1.
         22    1    3    3    0    0  0.16862087684E+02  0.23908970359E+03 -0.32445066169E+03  0.40338126907E+03  0.00000000000E+00 0. -1.
</event>
<event>
 7    1  0.5957303E-006  0.5459410E+02  0.7818608E-02  0.1442070E+00
          2   -1    0    0  502    0  0.00000000000E+00  0.00000000000E+00  0.30587387783E+04  0.30587387783E+04  0.00000000000E+00 0. -1.
          1   -1    0    0  501    0 -0.00000000000E+00 -0.00000000000E+00 -0.48636504484E+02  0.48636504484E+02  0.00000000000E+00 0. -1.
         25    2    1    2    0    0 -0.57742558283E+00  0.20318787206E+02  0.97680904077E+02  0.15993580361E+03  0.12499886288E+03 0.  0.
          2    1    1    2  501    0  0.54102500051E+02 -0.31069691413E+02  0.39162770197E+02  0.73662261748E+02  0.00000000000E+00 0. -1.
          1    1    1    2  502    0 -0.53525074469E+02  0.10750904206E+02  0.28732585995E+04  0.28737772174E+04  0.00000000000E+00 0. -1.
         22    1    3    3    0    0 -0.12643319882E+02 -0.44820946540E+02  0.77967998577E+02  0.90817286838E+02  0.00000000000E+00 0.  1.
         22    1    3    3    0    0  0.12065894299E+02  0.65139733747E+02  0.19712905499E+02  0.69118516774E+02  0.00000000000E+00 0.  1.
</event>
<event>
 7    1  0.5957303E-006  0.1980424E+03  0.7818608E-02  0.1281993E+00
          2   -1    0    0  502    0  0.00000000000E+00  0.00000000000E+00  0.18800213862E+03  0.18800213862E+03  0.00000000000E+00 0. -1.
          1   -1    0    0  501    0 -0.00000000000E+00 -0.00000000000E+00 -0.34628526089E+03  0.34628526089E+03  0.00000000000E+00 0. -1.
         25    2    1    2    0    0  0.21897665456E+03 -0.18747335807E+02 -0.64705180818E+02  0.26098761697E+03  0.12500215175E+03 0.  0.
          2    1    1    2  501    0 -0.18665785029E+03 -0.18992182901E+02 -0.11404411358E+03  0.21956301130E+03  0.00000000000E+00 0. -1.
          1    1    1    2  502    0 -0.32318804272E+02  0.37739518708E+02  0.20466172136E+02  0.53736771245E+02  0.00000000000E+00 0. -1.
         22    1    3    3    0    0  0.21204482988E+03 -0.18953773157E+02 -0.17866837304E+02  0.21363866520E+03  0.00000000000E+00 0.  1.
         22    1    3    3    0    0  0.69318246864E+01  0.20643735026E+00 -0.46838343515E+02  0.47348951763E+02  0.00000000000E+00 0.  1.
</event>
<event>
 7    1  0.5957303E-006  0.2229047E+03  0.7818608E-02  0.1245065E+00
          2   -1    0    0  502    0  0.00000000000E+00  0.00000000000E+00  0.23962726818E+04  0.23962726818E+04  0.00000000000E+00 0. -1.
          1   -1    0    0  501    0 -0.00000000000E+00 -0.00000000000E+00 -0.13392405815E+03  0.13392405815E+03  0.00000000000E+00 0. -1.
         25    2    1    2    0    0  0.17463125071E+03  0.40573433288E+01  0.96005312917E+03  0.98378795469E+03  0.12499677277E+03 0.  0.
          2    1    1    2  501    0 -0.22612519929E+03  0.32811655197E+02 -0.13687302168E+02  0.22890293295E+03  0.00000000000E+00 0. -1.
          1    1    1    2  502    0  0.51493948579E+02 -0.36868998526E+02  0.13159827967E+04  0.13175058523E+04  0.00000000000E+00 0. -1.
         22    1    3    3    0    0  0.19501871204E+02 -0.42696858388E+02  0.13368916091E+03  0.14169028351E+03  0.00000000000E+00 0. -1.
         22    1    3    3    0    0  0.15512937951E+03  0.46754201717E+02  0.82636396827E+03  0.84209767118E+03  0.00000000000E+00 0. -1.
</event>
<event>
 7    1  0.5957303E-006  0.8084017E+02  0.7818608E-02  0.1383733E+00
          2   -1    0    0  502    0  0.00000000000E+00  0.00000000000E+00  0.11352746476E+04  0.11352746476E+04  0.00000000000E+00 0. -1.
          1   -1    0    0  501    0 -0.00000000000E+00 -0.00000000000E+00 -0.47888486619E+03  0.47888486619E+03  0.00000000000E+00 0. -1.
         25    2    1    2    0    0  0.97707752327E+02  0.76764195791E+02  0.23662336672E+03  0.29504527308E+03  0.12498619470E+03 0.  0.
          2    1    1    2  501    0 -0.46804886910E+02 -0.17206998902E+02 -0.44651811400E+03  0.44929411790E+03  0.00000000000E+00 0. -1.
          1    1    1    2  502    0 -0.50902865417E+02 -0.59557196889E+02  0.86628452868E+03  0.86982012281E+03  0.00000000000E+00 0. -1.
         22    1    3    3    0    0  0.23917199967E+02 -0.51918193556E+01 -0.87798925561E+01  0.26001422188E+02  0.00000000000E+00 0.  1.
         22    1    3    3    0    0  0.73790552360E+02  0.81956015147E+02  0.24540325928E+03  0.26904385089E+03  0.00000000000E+00 0.  1.
</event>
<event>
 7    1  0.5957303E-006  0.8893929E+02  0.7818608E-02  0.1373375E+00
          2   -1    0    0  502    0  0.00000000000E+00  0.00000000000E+00  0.26350731246E+03  0.26350731246E+03  0.00000000000E+00 0. -1.
          1   -1    0    0  501    0 -0.00000000000E+00 -0.00000000000E+00 -0.27505754780E+03  0.27505754780E+03  0.00000000000E+00 0. -1.
         25    2    1    2    0    0  0.89449325400E+01 -0.58067582208E+02  0.26967186831E+02  0.14072854028E+03  0.12500174783E+03 0.  0.
          2    1    1    2  501    0  0.43241674331E+02 -0.23742414028E+02 -0.20188376449E+03  0.20782348035E+03  0.00000000000E+00 0. -1.
          1    1    1    2  502    0 -0.52186606871E+02  0.81809996237E+02  0.16336634232E+03  0.19001283963E+03  0.00000000000E+00 0. -1.
         22    1    3    3    0    0 -0.21038982984E+02  0.27329426789E+02 -0.18828279381E+02  0.39294280476E+02  0.00000000000E+00 0.  1.
         22    1    3    3    0    0  0.29983915524E+02 -0.85397008998E+02  0.45795466213E+02  0.10143425980E+03  0.00000000000E+00 0.  1.
</event>
<event>
 7    1  0.5957303E-006  0.1113964E+03  0.7818608E-02  0.1396332E+00
          2   -1    0    0  502    0  0.00000000000E+00  0.00000000000E+00  0.94455069492E+03  0.94455069492E+03  0.00000000000E+00 0. -1.
          1   -1    0    0  501    0 -0.00000000000E+00 -0.00000000000E+00 -0.95367778791E+03  0.95367778791E+03  0.00000000000E+00 0. -1.
         25    2    1    2    0    0  0.14037473206E+03 -0.15212584754E+02  0.11733881523E+03  0.22210265171E+03  0.12499880879E+03 0.  0.
          2    1    1    2  501    0 -0.11080411252E+03  0.12417050307E+01 -0.89754196957E+03  0.90435650068E+03  0.00000000000E+00 0. -1.
          1    1    1    2  502    0 -0.29570619546E+02  0.13970879723E+02  0.77107606135E+03  0.77176933044E+03  0.00000000000E+00 0. -1.
         22    1    3    3    0    0  0.92827264546E+02  0.24947681811E+02  0.82071796948E+01  0.96470957648E+02  0.00000000000E+00 0. -1.
         22    1    3    3    0    0  0.47547467518E+02 -0.40160266565E+02  0.10913163554E+03  0.12563169406E+03  0.00000000000E+00 0. -1.
</event>
<event>
 7    1  0.5957303E-006  0.5659716E+02  0.7818608E-02  0.1504660E+00
          2   -1    0    0  502    0  0.00000000000E+00  0.00000000000E+00  0.12729263310E+04  0.12729263310E+04  0.00000000000E+00 0. -1.
          1   -1    0    0  501    0 -0.00000000000E+00 -0.00000000000E+00 -0.20150043040E+03  0.20150043040E+03  0.00000000000E+00 0. -1.
         25    2    1    2    0    0 -0.61049877808E+02  0.57841540893E+01  0.26365673267E+03  0.29816206280E+03  0.12500079596E+03 0.  0.
          2    1    1    2  501    0  0.87237395785E+01 -0.27617089025E+02 -0.18229350421E+03  0.18457987137E+03  0.00000000000E+00 0. -1.
          1    1    1    2  502    0  0.52326138230E+02  0.21832934936E+02  0.99006267217E+03  0.99168482725E+03  0.00000000000E+00 0. -1.
         22    1    3    3    0    0 -0.35290373331E+02 -0.56300045324E+02  0.17287458635E+03  0.18520455761E+03  0.00000000000E+00 0. -1.
         22    1    3    3    0    0 -0.25759504477E+02  0.62084199413E+02  0.90782146318E+02  0.11295750519E+03  0.00000000000E+00 0. -1.
</event>
<event>
 7    1  0.5957303E-006  0.1046381E+03  0.7818608E-02  0.1301713E+00
          2   -1    0    0  502    0  0.00000000000E+00  0.00000000000E+00  0.66073817967E+03  0.66073817967E+03  0.00000000000E+00 0. -1.
          1   -1    0    0  501    0 -0.00000000000E+00 -0.00000000000E+00 -0.64979171984E+03  0.64979171984E+03  0.00000000000E+00 0. -1.
         25    2    1    2    0    0 -0.10376877906E+03  0.65821614693E+02 -0.93900642157E+02  0.19884969013E+03  0.12499369663E+03 0.  0.
          2    1    1    2  501    0  0.33363282028E+02 -0.99910085757E+02 -0.49534068156E+03  0.50641635502E+03  0.00000000000E+00 0. -1.
          1    1    1    2  502    0  0.70405497035E+02  0.34088471064E+02  0.60018778355E+03  0.60526385436E+03  0.00000000000E+00 0. -1.
         22    1    3    3    0    0 -0.93148580107E+02  0.94397431787E+02 -0.42812710926E+02  0.13935731527E+03  0.00000000000E+00 0. -1.
         22    1    3    3    0    0 -0.10620198957E+02 -0.28575817094E+02 -0.51087931231E+02  0.59492374856E+02  0.00000000000E+00 0. -1.
</event>
<event>
 7    1  0.5957303E-006  0.1771346E+03  0.7818608E-02  0.1273485E+00
          2   -1    0    0  502    0  0.00000000000E+00  0.00000000000E+00  0.53592107387E+03  0.53592107387E+03  0.00000000000E+00 0. -1.
          1   -1    0    0  501    0 -0.00000000000E+00 -0.00000000000E+00 -0.11111419750E+04  0.11111419750E+04  0.00000000000E+00 0. -1.
         25    2    1    2    0    0 -0.10001173111E+03  0.12177365457E+03  0.30956555514E+02  0.20350605720E+03  0.12500095071E+03 0.  0.
          2    1    1    2  501    0  0.61492839244E+02 -0.16810721504E+03 -0.10148252462E+04  0.10304909924E+04  0.00000000000E+00 0. -1.
          1    1    1    2  502    0  0.38518891867E+02  0.46333560465E+02  0.40864778957E+03  0.41306599930E+03  0.00000000000E+00 0. -1.
         22    1    3    3    0    0 -0.61552765895E+02  0.43704234869E+02  0.74613674191E+02  0.10614143164E+03  0.00000000000E+00 0.  1.
         22    1    3    3    0    0 -0.38458965216E+02  0.78069419701E+02 -0.43657118677E+02  0.97364625553E+02  0.00000000000E+00 0.  1.
</event>
<event>
 7    1  0.5957303E-006  0.1254469E+03  0.7818608E-02  0.1422882E+00
          2   -1    0    0  502    0  0.00000000000E+00  0.00000000000E+00  0.29514765338E+03  0.29514765338E+03  0.00000000000E+00 0. -1.
          1   -1    0    0  501    0 -0.00000000000E+00 -0.00000000000E+00 -0.21282480527E+03  0.21282480527E+03  0.00000000000E+00 0. -1.
         25    2    1    2    0    0  0.11006516804E+03 -0.86214222899E+02  0.26898157348E+01  0.18756251768E+03  0.12500091793E+03 0.  0.
          2    1    1    2  501    0 -0.48645190567E+01  0.23097614587E+02 -0.10007380509E+03  0.10281989015E+03  0.00000000000E+00 0. -1.
          1    1    1    2  502    0 -0.10520064898E+03  0.63116608311E+02  0.17970683746E+03  0.21759005083E+03  0.00000000000E+00 0. -1.
         22    1    3    3    0    0  0.68740615753E+02  0.20822078691E+02 -0.82895904992E+01  0.72301787846E+02  0.00000000000E+00 0.  1.
         22    1    3    3    0    0  0.41324552284E+02 -0.10703630159E+03  0.10979406234E+02  0.11526072983E+03  0.00000000000E+00 0.  1.
</event>
<event>
 7    1  0.5957303E-006  0.5594887E+02  0.7818608E-02  0.1456044E+00
          2   -1    0    0  502    0  0.00000000000E+00  0.00000000000E+00  0.38203524968E+04  0.38203524968E+04  0.00000000000E+00 0. -1.
          1   -1    0    0  501    0 -0.00000000000E+00 -0.00000000000E+00 -0.82659615338E+02  0.82659615338E+02  0.00000000000E+00 0. -1.
         25    2    1    2    0    0 -0.14568186250E+02 -0.45706134370E+01  0.17072024518E+02  0.12708209541E+03  0.12500112957E+03 0.  0.
          2    1    1    2  501    0 -0.41293786382E+02 -0.65750475177E+00 -0.11906431574E+02  0.42981068148E+02  0.00000000000E+00 0. -1.
          1    1    1    2  502    0  0.55861972632E+02  0.52281181888E+01  0.37325272885E+04  0.37329489486E+04  0.00000000000E+00 0. -1.
         22    1    3    3    0    0  0.10551702189E+02  0.16408711928E+02 -0.49332799671E+02  0.53050064746E+02  0.00000000000E+00 0. -1.
         22    1    3    3    0    0 -0.25119888438E+02 -0.20979325365E+02  0.66404824189E+02  0.74032030659E+02  0.00000000000E+00 0. -1.
</event>
<event>
 7    1  0.5957303E-006  0.5990888E+02  0.7818608E-02  0.1466887E+00
          2   -1    0    0  502    0  0.00000000000E+00  0.00000000000E+00  0.18920819814E+04  0.18920819814E+04  0.00000000000E+00 0. -1.
          1   -1    0    0  501    0 -0.00000000000E+00 -0.00000000000E+00 -0.73488595536E+03  0.73488595536E+03  0.00000000000E+00 0. -1.
         25    2    1    2    0    0 -0.40804305283E+02 -0.73080463138E+02  0.78789817049E+02  0.16981858492E+03  0.12499908436E+03 0.  0.
          2    1    1    2  501    0  0.79692182037E+01  0.59186978222E+02 -0.68789790553E+03  0.69048543450E+03  0.00000000000E+00 0. -1.
          1    1    1    2  502    0  0.32835087079E+02  0.13893484917E+02  0.17663041145E+04  0.17666639173E+04  0.00000000000E+00 0. -1.
         22    1    3    3    0    0  0.13503057537E+02  0.22535817892E+02  0.49471792486E+02  0.56014765042E+02  0.00000000000E+00 0. -1.
         22    1    3    3    0    0 -0.54307362820E+02 -0.95616281030E+02  0.29318024563E+02  0.11380381988E+03  0.00000000000E+00 0. -1.
</event>
<event>
 7    1  0.5957303E-006  0.1274568E+03  0.7818608E-02  0.1398871E+00
          2   -1    0    0  502    0  0.00000000000E+00  0.00000000000E+00  0.29031071701E+04  0.29031071701E+04  0.00000000000E+00 0. -1.
          1   -1    0    0  501    0 -0.00000000000E+00 -0.00000000000E+00 -0.21705364657E+02  0.21705364657E+02  0.00000000000E+00 0. -1.
         25    2    1    2    0    0 -0.47700680189E+02  0.11768626390E+03  0.13549909234E+04  0.13666569148E+04  0.12500123506E+03 0.  0.
          2    1    1    2  501    0  0.21044777023E+02 -0.12629919953E+03  0.24501723648E+03  0.27645581313E+03  0.00000000000E+00 0. -1.
          1    1    1    2  502    0  0.26655903166E+02  0.86129356300E+01  0.12813936456E+04  0.12816998068E+04  0.00000000000E+00 0. -1.
         22    1    3    3    0    0 -0.75100009281E+02  0.40987462388E+02  0.93036362190E+03  0.93428927663E+03  0.00000000000E+00 0.  1.
         22    1    3    3    0    0  0.27399329092E+02  0.76698801516E+02  0.42462730148E+03  0.43236763818E+03  0.00000000000E+00 0.  1.
</event>
<event>
 7    1  0.5957303E-006  0.1896992E+03  0.7818608E-02  0.1189015E+00
          2   -1    0    0  502    0  0.00000000000E+00  0.00000000000E+00  0.37736850228E+04  0.37736850228E+04  0.00000000000E+00 0. -1.
          1   -1    0    0  501    0 -0.00000000000E+00 -0.00000000000E+00 -0.45295710526E+03  0.45295710526E+03  0.00000000000E+00 0. -1.
         25    2    1    2    0    0  0.37092563778E+00  0.62998946002E+02  0.61101697440E+02  0.15273256608E+03  0.12499925811E+03 0.  0.
          2    1    1    2  501    0 -0.17895471996E+02  0.13327974656E+03 -0.39330899570E+03  0.41566297028E+03  0.00000000000E+00 0. -1.
          1    1    1    2  502    0  0.17524546358E+02 -0.19627869257E+03  0.36529352158E+04  0.36582465917E+04  0.00000000000E+00 0. -1.
         22    1    3    3    0    0  0.33082783307E+02  0.44220167702E+02 -0.23565554837E+02  0.60043560502E+02  0.00000000000E+00 0. -1.
         22    1    3    3    0    0 -0.32711857669E+02  0.18778778300E+02  0.84667252277E+02  0.92689005576E+02  0.00000000000E+00 0. -1.
</event>
<event>
 7    1  0.5957303E-006  0.1608529E+03  0.7818608E-02  0.1299408E+00
          2   -1    0    0  502    0  0.00000000000E+00  0.00000000000E+00  0.19476962104E+04  0.19476962104E+04  0.00000000000E+00 0. -1.
          1   -1    0    0  501    0 -0.00000000000E+00 -0.00000000000E+00 -0.21094256070E+03  0.21094256070E+03  0.00000000000E+00 0. -1.
         25    2    1    2    0    0 -0.11192272594E+03  0.16120222366E+02 -0.52778710742E+02  0.17662917683E+03  0.12500286256E+03 0.  0.
          2    1    1    2  501    0 -0.50382011203E+02 -0.12781399654E+02 -0.85447565884E+02  0.10001498760E+03  0.00000000000E+00 0. -1.
          1    1    1    2  502    0  0.16230473714E+03 -0.33388227121E+01  0.18749799263E+04  0.18819946067E+04  0.00000000000E+00 0. -1.
         22    1    3    3    0    0 -0.52809974192E+02  0.12589768425E+02  0.39391304849E+02  0.67075111188E+02  0.00000000000E+00 0. -1.
         22    1    3    3    0    0 -0.59112751744E+02  0.35304539405E+01 -0.92170015591E+02  0.10955406564E+03  0.00000000000E+00 0. -1.
</event>
<event>
 7    1  0.5957303E-006  0.7766840E+02  0.7818608E-02  0.1437262E+00
          2   -1    0    0  502    0  0.00000000000E+00  0.00000000000E+00  0.67072076712E+03  0.67072076712E+03  0.00000000000E+00 0. -1.
          1   -1    0    0  501    0 -0.00000000000E+00 -0.00000000000E+00 -0.44757078525E+03  0.44757078525E+03  0.00000000000E+00 0. -1.
         25    2    1    2    0    0 -0.20564541988E+02 -0.10620998854E+03 -0.21446533728E+02  0.16669672494E+03  0.12499752896E+03 0.  0.
          2    1    1    2  501    0  0.48668079960E+01  0.75839475826E+02 -0.34891716659E+03  0.35709732715E+03  0.00000000000E+00 0. -1.
          1    1    1    2  502    0  0.15697733992E+02  0.30370512710E+02  0.59351368219E+03  0.59449750028E+03  0.00000000000E+00 0. -1.
         22    1    3    3    0    0 -0.17998930504E+02 -0.13509459451E+03 -0.18777769432E+02  0.13757585395E+03  0.00000000000E+00 0. -1.
         22    1    3    3    0    0 -0.25656114836E+01  0.28884605975E+02 -0.26687642964E+01  0.29120870994E+02  0.00000000000E+00 0. -1.
</event>
<event>
 7    1  0.5957303E-006  0.1354821E+03  0.7818608E-02  0.1327263E+00
          2   -1    0    0  502    0  0.00000000000E+00  0.00000000000E+00  0.77709280167E+03  0.77709280167E+03  0.00000000000E+00 0. -1.
          1   -1    0    0  501    0 -0.00000000000E+00 -0.00000000000E+00 -0.12983265788E+04  0.12983265788E+04  0.00000000000E+00 0. -1.
         25    2    1    2    0    0 -0.45661244895E+02  0.94165666583E+02  0.26375795056E+02  0.16514940574E+03  0.12500608627E+03 0.  0.
          2    1    1    2  501    0  0.20912461617E+02 -0.13528190821E+03 -0.12242753930E+04  0.12319045270E+04  0.00000000000E+00 0. -1.
          1    1    1    2  502    0  0.24748783278E+02  0.41116241626E+02  0.67666582081E+03  0.67836544772E+03  0.00000000000E+00 0. -1.
         22    1    3    3    0    0 -0.60346262925E+02 -0.26048685511E+01  0.29499585095E+02  0.67221144813E+02  0.00000000000E+00 0. -1.
         22    1    3    3    0    0  0.14685018031E+02  0.96770535135E+02 -0.31237900388E+01  0.97928260931E+02  0.00000000000E+00 0. -1.
</event>
<event>
 7    1  0.5957303E-006  0.1553277E+03  0.7818608E-02  0.1364453E+00
          2   -1    0    0  502    0  0.00000000000E+00  0.00000000000E+00  0.16449890633E+04  0.16449890633E+04  0.00000000000E+00 0. -1.
          1   -1    0    0  501    0 -0.00000000000E+00 -0.00000000000E+00 -0.46887020476E+03  0.46887020476E+03  0.00000000000E+00 0. -1.
         25    2    1    2    0    0  0.41157901315E+02 -0.14138708892E+03 -0.94907824535E+02  0.21521358830E+03  0.12500044672E+03 0.  0.
          2    1    1    2  501    0  0.30251624384E+02  0.31489048026E+01 -0.30924277632E+03  0.31073488875E+03  0.00000000000E+00 0. -1.
          1    1    1    2  502    0 -0.71409525698E+02  0.13823818412E+03  0.15802694594E+04  0.15879107910E+04  0.00000000000E+00 0. -1.
         22    1    3    3    0    0 -0.11299201299E+01 -0.13555604306E+03 -0.10485675603E+03  0.17138161166E+03  0.00000000000E+00 0. -1.
         22    1    3    3    0    0  0.42287821445E+02 -0.58310458559E+01  0.99489314987E+01  0.43831976641E+02  0.00000000000E+00 0. -1.
</event>
<event>
 7    1  0.5957303E-006  0.9305047E+02  0.7818608E-02  0.1335449E+00
          2   -1    0    0  502    0  0.00000000000E+00  0.00000000000E+00  0.81470943340E+03  0.81470943340E+03  0.00000000000E+00 0. -1.
          1   -1    0    0  501    0 -0.00000000000E+00 -0.00000000000E+00 -0.65897037929E+03  0.65897037929E+03  0.00000000000E+00 0. -1.
         25    2    1    2    0    0 -0.15271349166E+03 -0.71278079062E+00 -0.16880569941E+03  0.25969747109E+03  0.12500197497E+03 0.  0.
          2    1    1    2  501    0  0.62386148393E+02 -0.18348871879E+02 -0.43954837275E+03  0.44433262833E+03  0.00000000000E+00 0. -1.
          1    1    1    2  502    0  0.90327343267E+02  0.19061652670E+02  0.76409312627E+03  0.76964971328E+03  0.00000000000E+00 0. -1.
         22    1    3    3    0    0 -0.16274738890E+03  0.11827837263E+02 -0.10532428248E+03  0.19421589741E+03  0.00000000000E+00 0. -1.
         22    1    3    3    0    0  0.10033897244E+02 -0.12540618054E+02 -0.63481416930E+02  0.65481573672E+02  0.00000000000E+00 0. -1.
</event>
<event>
 7    1  0.5957303E-006  0.1065569E+03  0.7818608E-02  0.1362299E+00
          2   -1    0    0  502    0  0.00000000000E+00  0.00000000000E+00  0.14606435683E+04  0.14606435683E+04  0.00000000000E+00 0. -1.
          1   -1    0    0  501    0 -0.00000000000E+00 -0.00000000000E+00 -0.10774301315E+04  0.10774301315E+04  0.00000000000E+00 0. -1.
         25    2    1    2    0    0 -0.99770723985E+02  0.90417868554E+02  0.55253970054E+03  0.58228441704E+03  0.12500173332E+03 0.  0.
          2    1    1    2  501    0  0.96280198690E+02 -0.45411210591E+02 -0.10593180677E+04  0.10646533817E+04  0.00000000000E+00 0. -1.
          1    1    1    2  502    0  0.34905252958E+01 -0.45006657963E+02  0.88999180399E+03  0.89113590108E+03  0.00000000000E+00 0. -1.
         22    1    3    3    0    0 -0.30063613310E+02 -0.23316362254E+02  0.53007871313E+02  0.65248049896E+02  0.00000000000E+00 0. -1.
         22    1    3    3    0    0 -0.69707110675E+02  0.11373423081E+03  0.49953182923E+03  0.51703636714E+03  0.00000000000E+00 0. -1.
</event>
<event>
 7    1  0.5957303E-006  0.8948645E+02  0.7818608E-02  0.1315579E+00
          2   -1    0    0  502    0  0.00000000000E+00  0.00000000000E+00  0.76539272352E+03  0.76539272352E+03  0.00000000000E+00 0. -1.
          1   -1    0    0  501    0 -0.00000000000E+00 -0.00000000000E+00 -0.10568231612E+04  0.10568231612E+04  0.00000000000E+00 0. -1.
         25    2    1    2    0    0  0.24576316932E+02 -0.38526250395E+02 -0.32016679908E+03  0.34672670102E+03  0.12499743454E+03 0.  0.
          2    1    1    2  501    0 -0.70667678849E+02 -0.38828026552E+02 -0.71841782875E+03  0.72292856711E+03  0.00000000000E+00 0. -1.
          1    1    1    2  502    0  0.46091361917E+02  0.77354276947E+02  0.74715419014E+03  0.75256061660E+03  0.00000000000E+00 0. -1.
         22    1    3    3    0    0  0.17472507468E+02 -0.42471367258E+02 -0.33044690623E+03  0.33362293595E+03  0.00000000000E+00 0.  1.
         22    1    3    3    0    0  0.71038094647E+01  0.39451168634E+01  0.10280107149E+02  0.13103765069E+02  0.00000000000E+00 0.  1.
</event>
<event>
 7    1  0.5957303E-006  0.1275642E+03  0.7818608E-02  0.1433224E+00
          2   -1    0    0  502    0  0.00000000000E+00  0.00000000000E+00  0.25397682479E+03  0.25397682479E+03  0.00000000000E+00 0. -1.
          1   -1    0    0  501    0 -0.00000000000E+00 -0.00000000000E+00 -0.32755928673E+03  0.32755928673E+03  0.00000000000E+00 0. -1.
         25    2    1    2    0    0  0.10046880057E+03 -0.50097704665E+02  0.24632922670E+02  0.16980637066E+03  0.12499465083E+03 0.  0.
          2    1    1    2  501    0  0.17886005738E+02 -0.11853810047E+02 -0.22591060974E+03  0.22692735756E+03  0.00000000000E+00 0. -1.
          1    1    1    2  502    0 -0.11835480630E+03  0.61951514712E+02  0.12769522514E+03  0.18480238330E+03  0.00000000000E+00 0. -1.
         22    1    3    3    0    0  0.57175835869E+02 -0.37035571407E+02  0.75536523429E+02  0.10171762939E+03  0.00000000000E+00 0.  1.
         22    1    3    3    0    0  0.43292964697E+02 -0.13062133258E+02 -0.50903600758E+02  0.68088741270E+02  0.00000000000E+00 0.  1.
</event>
<event>
 7    1  0.5957303E-006  0.1058442E+03  0.7818608E-02  0.1299565E+00
          2   -1    0    0  502    0  0.00000000000E+00  0.00000000000E+00  0.72791446260E+03  0.72791446260E+03  0.00000000000E+00 0. -1.
          1   -1    0    0  501    0 -0.00000000000E+00 -0.00000000000E+00 -0.42974929961E+03  0.42974929961E+03  0.00000000000E+00 0. -1.
         25    2    1    2    0    0  0.89284057035E+02  0.10837252810E+03  0.15372218470E+03  0.24284100502E+03  0.12499998384E+03 0.  0.
          2    1    1    2  501    0 -0.78737664747E+02 -0.46852066848E+01 -0.37592979192E+03  0.38411558087E+03  0.00000000000E+00 0. -1.
          1    1    1    2  502    0 -0.10546392289E+02 -0.10368732141E+03  0.52037277022E+03  0.53070717632E+03  0.00000000000E+00 0. -1.
         22    1    3    3    0    0  0.19839466305E+02 -0.85782303319E+01 -0.14860629725E+02  0.26230302604E+02  0.00000000000E+00 0. -1.
         22    1    3    3    0    0  0.69444590731E+02  0.11695075843E+03  0.16858281443E+03  0.21661070241E+03  0.00000000000E+00 0. -1.
</event>
<event>
 7    1  0.5957303E-006  0.6287490E+02  0.7818608E-02  0.1396128E+00
          2   -1    0    0  502    0  0.00000000000E+00  0.00000000000E+00  0.92073370256E+03  0.92073370256E+03  0.00000000000E+00 0. -1.
          1   -1    0    0  501    0 -0.00000000000E+00 -0.00000000000E+00 -0.79927400420E+03  0.79927400420E+03  0.00000000000E+00 0. -1.
         25    2    1    2    0    0 -0.42076410626E+02 -0.97850671425E+02  0.77688855121E+02  0.18167206736E+03  0.12499601441E+03 0.  0.
          2    1    1    2  501    0  0.45642451342E+02  0.35848609929E+02 -0.74493300831E+03  0.74719043293E+03  0.00000000000E+00 0. -1.
          1    1    1    2  502    0 -0.35660407165E+01  0.62002061496E+02  0.78870385155E+03  0.79114520647E+03  0.00000000000E+00 0. -1.
         22    1    3    3    0    0 -0.39642554144E+02  0.50627144676E+00 -0.18791166337E+02  0.43873640631E+02  0.00000000000E+00 0.  1.
         22    1    3    3    0    0 -0.24338564815E+01 -0.98356942871E+02  0.96480021458E+02  0.13779842673E+03  0.00000000000E+00 0.  1.
</event>
<event>
 7    1  0.5957303E-006  0.6330764E+02  0.7818608E-02  0.1427842E+00
          2   -1    0    0  502    0  0.00000000000E+00  0.00000000000E+00  0.53890240741E+03  0.53890240741E+03  0.00000000000E+00 0. -1.
          1   -1    0    0  501    0 -0.00000000000E+00 -0.00000000000E+00 -0.50089929528E+03  0.50089929528E+03  0.00000000000E+00 0. -1.
         25    2    1    2    0    0  0.56085190002E+02  0.63311096624E+01 -0.33919631436E+02  0.14129067637E+03  0.12500752916E+03 0.  0.
          2    1    1    2  501    0 -0.41667314715E+02 -0.48996546726E+02 -0.40973497971E+03  0.41475243255E+03  0.00000000000E+00 0. -1.
          1    1    1    2  502    0 -0.14417875287E+02  0.42665437064E+02  0.48165772328E+03  0.48375859377E+03  0.00000000000E+00 0. -1.
         22    1    3    3    0    0  0.74695325141E+02 -0.35995606750E+02 -0.44146193337E+02  0.93935944608E+02  0.00000000000E+00 0. -1.
         22    1    3    3    0    0 -0.18610135140E+02  0.42326716413E+02  0.10226561901E+02  0.47354731765E+02  0.00000000000E+00 0. -1.
</event>
<event>
 7    1  0.5957303E-006  0.1437582E+03  0.7818608E-02  0.1302827E+00
          2   -1    0    0  502    0  0.00000000000E+00  0.00000000000E+00  0.10153540151E+04  0.10153540151E+04  0.00000000000E+00 0. -1.
          1   -1    0    0  501    0 -0.00000000000E+00 -0.00000000000E+00 -0.65125622124E+03  0.65125622124E+03  0.00000000000E+00 0. -1.
         25    2    1    2    0    0  0.58227684828E+02  0.80821354733E+02  0.16232848570E+03  0.22780859882E+03  0.12499466295E+03 0.  0.
          2    1    1    2  501    0 -0.50880831966E+02 -0.13669767195E+03 -0.60892501756E+03  0.62615077225E+03  0.00000000000E+00 0. -1.
          1    1    1    2  502    0 -0.73468528619E+01  0.55876317220E+02  0.81069432576E+03  0.81265086531E+03  0.00000000000E+00 0. -1.
         22    1    3    3    0    0  0.42250409489E+02  0.92230613898E+02  0.17651230307E+03  0.20358825206E+03  0.00000000000E+00 0.  1.
         22    1    3    3    0    0  0.15977275339E+02 -0.11409259165E+02 -0.14183817369E+02  0.24220346759E+02  0.00000000000E+00 0.  1.
</event>
<event>
 7    1  0.5957303E-006  0.1159352E+03  0.7818608E-02  0.1352492E+00
          2   -1    0    0  502    0  0.00000000000E+00  0.00000000000E+00  0.57674457015E+03  0.57674457015E+03  0.00000000000E+00 0. -1.
          1   -1    0    0  501    0 -0.00000000000E+00 -0.00000000000E+00 -0.12439356463E+03  0.12439356463E+03  0.00000000000E+00 0. -1.
         25    2    1    2    0    0 -0.10541065858E+03  0.99551501788E+02  0.13363661872E+03  0.23346347171E+03  0.12499815323E+03 0.  0.
          2    1    1    2  501    0  0.94854094938E+02 -0.55736540975E+02 -0.31605731467E+02  0.11446739094E+03  0.00000000000E+00 0. -1.
          1    1    1    2  502    0  0.10556563645E+02 -0.43814960813E+02  0.35032011827E+03  0.35320727213E+03  0.00000000000E+00 0. -1.
         22    1    3    3    0    0 -0.15437281701E+02  0.20832908720E+02 -0.24196741066E+02  0.35465504794E+02  0.00000000000E+00 0.  1.
         22    1    3    3    0    0 -0.89973376882E+02  0.78718593068E+02  0.15783335979E+03  0.19799796692E+03  0.00000000000E+00 0.  1.
</event>
<event>
 7    1  0.5957303E-006  0.2013238E+03  0.7818608E-02  0.1254154E+00
          2   -1    0    0  502    0  0.00000000000E+00  0.00000000000E+00  0.11357923428E+04  0.11357923428E+04  0.00000000000E+00 0. -1.
          1   -1    0    0  501    0 -0.00000000000E+00 -0.00000000000E+00 -0.31036153660E+03  0.31036153660E+03  0.00000000000E+00 0. -1.
         25    2    1    2    0    0 -0.18137804447E+03 -0.16631321575E+03  0.46610108361E+03  0.54169077562E+03  0.12498238076E+03 0.  0.
          2    1    1    2  501    0  0.57313054874E+02  0.28551922080E+02 -0.25492355942E+03  0.26284219536E+03  0.00000000000E+00 0. -1.
          1    1    1    2  502    0  0.12406498959E+03  0.13776129367E+03  0.61425328203E+03  0.64162090845E+03  0.00000000000E+00 0. -1.
         22    1    3    3    0    0 -0.82973710969E+02 -0.13187411154E+03  0.18494155408E+03  0.24182389550E+03  0.00000000000E+00 0.  1.
         22    1    3    3    0    0 -0.98404333497E+02 -0.34439104204E+02  0.28115952953E+03  0.29986688012E+03  0.00000000000E+00 0.  1.
</event>
<event>
 7    1  0.5957303E-006  0.7227344E+02  0.7818608E-02  0.1480490E+00
          2   -1    0    0  502    0  0.00000000000E+00  0.00000000000E+00  0.10674786348E+04  0.10674786348E+04  0.00000000000E+00 0. -1.
          1   -1    0    0  501    0 -0.00000000000E+00 -0.00000000000E+00 -0.30423309156E+03  0.30423309156E+03  0.00000000000E+00 0. -1.
         25    2    1    2    0    0  0.41275225013E+02  0.27588784384E+02 -0.91004097888E+02  0.16239110285E+03  0.12499735688E+03 0.  0.
          2    1    1    2  501    0  0.26717612298E+02 -0.23823688266E+01 -0.17523961194E+03  0.17728064779E+03  0.00000000000E+00 0. -1.
          1    1    1    2  502    0 -0.67992837311E+02 -0.25206415557E+02  0.10294892531E+04  0.10320399758E+04  0.00000000000E+00 0. -1.
         22    1    3    3    0    0  0.10933063679E+02 -0.49975504603E+02 -0.36797061544E+02  0.63016717465E+02  0.00000000000E+00 0. -1.
         22    1    3    3    0    0  0.30342161334E+02  0.77564288987E+02 -0.54207036344E+02  0.99374385380E+02  0.00000000000E+00 0. -1.
</event>
<event>
 7    1  0.5957303E-006  0.8612728E+02  0.7818608E-02  0.1438379E+00
          2   -1    0    0  502    0  0.00000000000E+00  0.00000000000E+00  0.71221443451E+03  0.71221443451E+03  0.00000000000E+00 0. -1.
          1   -1    0    0  501    0 -0.00000000000E+00 -0.00000000000E+00 -0.55564038968E+03  0.55564038968E+03  0.00000000000E+00 0. -1.
         25    2    1    2    0    0 -0.68820603061E+01  0.11396863085E+03 -0.26999806382E+02  0.17143707076E+03  0.12500187245E+03 0.  0.
          2    1    1    2  501    0 -0.16322315141E+01 -0.84605281562E+02 -0.45212921617E+03  0.45997994082E+03  0.00000000000E+00 0. -1.
          1    1    1    2  502    0  0.85142918202E+01 -0.29363349291E+02  0.63570306738E+03  0.63643781261E+03  0.00000000000E+00 0. -1.
         22    1    3    3    0    0  0.21139720371E+02 -0.12604427225E+01  0.32476103080E+02  0.38770784935E+02  0.00000000000E+00 0. -1.
         22    1    3    3    0    0 -0.28021780677E+02  0.11522907358E+03 -0.59475909462E+02  0.13266628583E+03  0.00000000000E+00 0. -1.
</event>
<event>
 7    1  0.5957303E-006  0.4786982E+02  0.7818608E-02  0.1507292E+00
          2   -1    0    0  502    0  0.00000000000E+00  0.00000000000E+00  0.11695708440E+04  0.11695708440E+04  0.00000000000E+00 0. -1.
          1   -1    0    0  501    0 -0.00000000000E+00 -0.00000000000E+00 -0.13555659049E+03  0.13555659049E+03  0.00000000000E+00 0. -1.
         25    2    1    2    0    0 -0.71371793546E+01  0.50477255174E+02  0.50258703667E+03  0.52039979813E+03  0.12499331120E+03 0.  0.
          2    1    1    2  501    0 -0.28671977066E+02 -0.17582353315E+02 -0.12349994986E+03  0.12799788682E+03  0.00000000000E+00 0. -1.
          1    1    1    2  502    0  0.35809156421E+02 -0.32894901859E+02  0.65492716674E+03  0.65672974958E+03  0.00000000000E+00 0. -1.
         22    1    3    3    0    0 -0.31496752836E+02 -0.18960150040E+02  0.51071698292E+02  0.62927347753E+02  0.00000000000E+00 0. -1.
         22    1    3    3    0    0  0.24359573481E+02  0.69437405214E+02  0.45151533838E+03  0.45747245038E+03  0.00000000000E+00 0. -1.
</event>
<event>
 7    1  0.5957303E-006  0.8057170E+02  0.7818608E-02  0.1345004E+00
          2   -1    0    0  502    0  0.00000000000E+00  0.00000000000E+00  0.41879445970E+03  0.41879445970E+03  0.00000000000E+00 0. -1.
          1   -1    0    0  501    0 -0.00000000000E+00 -0.00000000000E+00 -0.25222408879E+04  0.25222408879E+04  0.00000000000E+00 0. -1.
         25    2    1    2    0    0 -0.25511296411E+02 -0.63218217252E+02 -0.11918212324E+03  0.18567756462E+03  0.12499764104E+03 0.  0.
          2    1    1    2  501    0 -0.53772141877E+02  0.43455600385E+02 -0.23649710054E+04  0.23659813374E+04  0.00000000000E+00 0. -1.
          1    1    1    2  502    0  0.79283438287E+02  0.19762616867E+02  0.38070670045E+03  0.38937644559E+03  0.00000000000E+00 0. -1.
         22    1    3    3    0    0  0.47280510580E+02 -0.10161591878E+02 -0.21869725076E+02  0.53075319171E+02  0.00000000000E+00 0.  1.
         22    1    3    3    0    0 -0.72791806991E+02 -0.53056625374E+02 -0.97312398166E+02  0.13260224545E+03  0.00000000000E+00 0.  1.
</event>
<event>
 7    1  0.5957303E-006  0.1504635E+03  0.7818608E-02  0.1326194E+00
          2   -1    0    0  502    0  0.00000000000E+00  0.00000000000E+00  0.20631323627E+03  0.20631323627E+03  0.00000000000E+00 0. -1.
          1   -1    0    0  501    0 -0.00000000000E+00 -0.00000000000E+00 -0.15440298549E+04  0.15440298549E+04  0.00000000000E+00 0. -1.
         25    2    1    2    0    0  0.11799347067E+03 -0.57657131961E+02 -0.19019565605E+03  0.26276692494E+03  0.12500106110E+03 0.  0.
          2    1    1    2  501    0  0.33212354895E+02  0.28280873801E+02 -0.12822156357E+04  0.12829574447E+04  0.00000000000E+00 0. -1.
          1    1    1    2  502    0 -0.15120582556E+03  0.29376258160E+02  0.13469467316E+03  0.20461872155E+03  0.00000000000E+00 0. -1.
         22    1    3    3    0    0  0.77295022017E+02 -0.68667435531E+02 -0.47145373053E+02  0.11363284442E+03  0.00000000000E+00 0.  1.
         22    1    3    3    0    0  0.40698448653E+02  0.11010303570E+02 -0.14305028300E+03  0.14913408052E+03  0.00000000000E+00 0.  1.
</event>
<event>
 7    1  0.5957303E-006  0.1231678E+03  0.7818608E-02  0.1350639E+00
          2   -1    0    0  502    0  0.00000000000E+00  0.00000000000E+00  0.34805997080E+03  0.34805997080E+03  0.00000000000E+00 0. -1.
          1   -1    0    0  501    0 -0.00000000000E+00 -0.00000000000E+00 -0.34690076159E+03  0.34690076159E+03  0.00000000000E+00 0. -1.
         25    2    1    2    0    0 -0.82027313694E+02 -0.80363921403E+02 -0.22810299491E+02  0.17126363891E+03  0.12499633672E+03 0.  0.
          2    1    1    2  501    0  0.11482044614E+03  0.52400711531E+02 -0.23200852562E+03  0.26411649964E+03  0.00000000000E+00 0. -1.
          1    1    1    2  502    0 -0.32793132450E+02  0.27963209872E+02  0.25597803433E+03  0.25958059385E+03  0.00000000000E+00 0. -1.
         22    1    3    3    0    0  0.25739986255E+02 -0.22214481713E+02 -0.34268807702E+02  0.48274022740E+02  0.00000000000E+00 0. -1.
         22    1    3    3    0    0 -0.10776729995E+03 -0.58149439690E+02  0.11458508211E+02  0.12298961617E+03  0.00000000000E+00 0. -1.
</event>
<event>
 7    1  0.5957303E-006  0.7614620E+02  0.7818608E-02  0.1410356E+00
          2   -1    0    0  502    0  0.00000000000E+00  0.00000000000E+00  0.18918728268E+04  0.18918728268E+04  0.00000000000E+00 0. -1.
          1   -1    0    0  501    0 -0.00000000000E+00 -0.00000000000E+00 -0.58071446637E+02  0.58071446637E+02  0.00000000000E+00 0. -1.
         25    2    1    2    0    0 -0.35798120535E+02 -0.82308303098E+02  0.10115702506E+04  0.10232088042E+04  0.12500289141E+03 0.  0.
          2    1    1    2  501    0  0.42098436210E+02  0.79330569656E+01 -0.41583135169E+02  0.59702335421E+02  0.00000000000E+00 0. -1.
          1    1    1    2  502    0 -0.63003156750E+01  0.74375246132E+02  0.86381426476E+03  0.86703313386E+03  0.00000000000E+00 0. -1.
         22    1    3    3    0    0 -0.54059181746E+02 -0.83937890280E+01  0.71257587368E+03  0.71467281086E+03  0.00000000000E+00 0. -1.
         22    1    3    3    0    0  0.18261061210E+02 -0.73914514070E+02  0.29899437689E+03  0.30853599330E+03  0.00000000000E+00 0. -1.
</event>
<event>
 7    1  0.5957303E-006  0.7716979E+02  0.7818608E-02  0.1487936E+00
          2   -1    0    0  502    0  0.00000000000E+00  0.00000000000E+00  0.21899922283E+03  0.21899922283E+03  0.00000000000E+00 0. -1.
          1   -1    0    0  501    0 -0.00000000000E+00 -0.00000000000E+00 -0.17193086778E+04  0.17193086778E+04  0.00000000000E+00 0. -1.
         25    2    1    2    0    0 -0.13802603261E+01 -0.58302979243E+02 -0.89610997966E+03  0.90666382131E+03  0.12500018687E+03 0.  0.
          2    1    1    2  501    0  0.16065394065E+02 -0.17616308158E+02 -0.81074644876E+03  0.81109693340E+03  0.00000000000E+00 0. -1.
          1    1    1    2  502    0 -0.14685133738E+02  0.75919287401E+02  0.20654697342E+03  0.22054714594E+03  0.00000000000E+00 0. -1.
         22    1    3    3    0    0 -0.20172406637E+02 -0.65407852616E+02 -0.87443555910E+03  0.87711040365E+03  0.00000000000E+00 0. -1.
         22    1    3    3    0    0  0.18792146311E+02  0.71048733729E+01 -0.21674420553E+02  0.29553417652E+02  0.00000000000E+00 0. -1.
</event>
<event>
 7    1  0.5957303E-006  0.6340067E+02  0.7818608E-02  0.1495681E+00
          2   -1    0    0  502    0  0.00000000000E+00  0.00000000000E+00  0.14360231422E+03  0.14360231422E+03  0.00000000000E+00 0. -1.
          1   -1    0    0  501    0 -0.00000000000E+00 -0.00000000000E+00 -0.23681855975E+04  0.23681855975E+04  0.00000000000E+00 0. -1.
         25    2    1    2    0    0 -0.35965490505E+02  0.25872035041E+02 -0.20092385892E+03  0.24074616429E+03  0.12500175931E+03 0.  0.
          2    1    1    2  501    0  0.35201388170E+02 -0.53360528986E+02 -0.21453401754E+04  0.21462923734E+04  0.00000000000E+00 0. -1.
          1    1    1    2  502    0  0.76410233537E+00  0.27488493944E+02  0.12168075105E+03  0.12474937406E+03  0.00000000000E+00 0. -1.
         22    1    3    3    0    0  0.15685157477E+02 -0.10342921862E+02 -0.16900978683E+03  0.17005089897E+03  0.00000000000E+00 0. -1.
         22    1    3    3    0    0 -0.51650647982E+02  0.36214956903E+02 -0.31914072094E+02  0.70695265316E+02  0.00000000000E+00 0. -1.
</event>
<event>
 7    1  0.5957303E-006  0.3382414E+03  0.7818608E-02  0.1213186E+00
          2   -1    0    0  502    0  0.00000000000E+00  0.00000000000E+00  0.16386519614E+04  0.16386519614E+04  0.00000000000E+00 0. -1.
          1   -1    0    0  501    0 -0.00000000000E+00 -0.00000000000E+00 -0.56765738927E+03  0.56765738927E+03  0.00000000000E+00 0. -1.
         25    2    1    2    0    0 -0.13370788272E+03 -0.35351540207E+03 -0.46637861112E+02  0.40081240285E+03  0.12499821915E+03 0.  0.
          2    1    1    2  501    0  0.12502460344E+03  0.29613414512E+03 -0.26808524196E+03  0.41856454739E+03  0.00000000000E+00 0. -1.
          1    1    1    2  502    0  0.86832792831E+01  0.57381256942E+02  0.13857176753E+04  0.13869324005E+04  0.00000000000E+00 0. -1.
         22    1    3    3    0    0 -0.97416398328E+02 -0.15110271241E+03  0.28192368468E+02  0.18198020222E+03  0.00000000000E+00 0. -1.
         22    1    3    3    0    0 -0.36291484392E+02 -0.20241268966E+03 -0.74830229581E+02  0.21883220063E+03  0.00000000000E+00 0. -1.
</event>
<event>
 7    1  0.5957303E-006  0.1018479E+03  0.7818608E-02  0.1282822E+00
          2   -1    0    0  502    0  0.00000000000E+00  0.00000000000E+00  0.14300320278E+04  0.14300320278E+04  0.00000000000E+00 0. -1.
          1   -1    0    0  501    0 -0.00000000000E+00 -0.00000000000E+00 -0.73131237613E+03  0.73131237613E+03  0.00000000000E+00 0. -1.
         25    2    1    2    0    0 -0.73391852657E+02  0.51644488246E+02  0.80876420871E+03  0.82327246189E+03  0.12499793607E+03 0.  0.
          2    1    1    2  501    0 -0.54657933947E+02 -0.78750330931E+02 -0.71384265919E+03  0.72025026654E+03  0.00000000000E+00 0. -1.
          1    1    1    2  502    0  0.12804978660E+03  0.27105842685E+02  0.60379810212E+03  0.61782167547E+03  0.00000000000E+00 0. -1.
         22    1    3    3    0    0 -0.50144602446E+02  0.61065214131E+02  0.78417815373E+03  0.78814898231E+03  0.00000000000E+00 0.  1.
         22    1    3    3    0    0 -0.23247250210E+02 -0.94207258850E+01  0.24586054980E+02  0.35123479583E+02  0.00000000000E+00 0.  1.
</event>
<event>
 7    1  0.5957303E-006  0.7072725E+02  0.7818608E-02  0.1372190E+00
          2   -1    0    0  502    0  0.00000000000E+00  0.00000000000E+00  0.25888325575E+03  0.25888325575E+03  0.00000000000E+00 0. -1.
          1   -1    0    0  501    0 -0.00000000000E+00 -0.00000000000E+00 -0.16495645217E+04  0.16495645217E+04  0.00000000000E+00 0. -1.
         25    2    1    2    0    0 -0.35012227355E+02 -0.51934944118E+02 -0.91823338444E+03  0.92881677932E+03  0.12499986699E+03 0.  0.
          2    1    1    2  501    0 -0.21613507679E+02  0.78721977318E+02 -0.71982833003E+03  0.72444262584E+03  0.00000000000E+00 0. -1.
          1    1    1    2  502    0  0.56625735034E+02 -0.26787033200E+02  0.24738044855E+03  0.25518837227E+03  0.00000000000E+00 0. -1.
         22    1    3    3    0    0  0.43352586034E+02  0.39678470680E+01 -0.27878350120E+03  0.28216206526E+03  0.00000000000E+00 0. -1.
         22    1    3    3    0    0 -0.78364813390E+02 -0.55902791186E+02 -0.63944988324E+03  0.64665471406E+03  0.00000000000E+00 0. -1.
</event>
<event>
 7    1  0.5957303E-006  0.5546898E+02  0.7818608E-02  0.1439442E+00
          2   -1    0    0  502    0  0.00000000000E+00  0.00000000000E+00  0.32758584589E+03  0.32758584589E+03  0.00000000000E+00 0. -1.
          1   -1    0    0  501    0 -0.00000000000E+00 -0.00000000000E+00 -0.20017095325E+03  0.20017095325E+03  0.00000000000E+00 0. -1.
         25    2    1    2    0    0 -0.49565082738E+02 -0.72007400668E+02  0.77574453495E+02  0.17112564855E+03  0.12499771429E+03 0.  0.
          2    1    1    2  501    0  0.20207899969E+01  0.47051355418E+02 -0.14608097543E+03  0.15348473873E+03  0.00000000000E+00 0. -1.
          1    1    1    2  502    0  0.47544292741E+02  0.24956045250E+02  0.19592141458E+03  0.20314641187E+03  0.00000000000E+00 0. -1.
         22    1    3    3    0    0  0.10505572965E+00 -0.61962160290E+02 -0.16630775178E+02  0.64155303970E+02  0.00000000000E+00 0.  1.
         22    1    3    3    0    0 -0.49670138467E+02 -0.10045240379E+02  0.94205228673E+02  0.10697034458E+03  0.00000000000E+00 0.  1.
</event>
<event>
 7    1  0.5957303E-006  0.1027036E+03  0.7818608E-02  0.1294334E+00
          2   -1    0    0  502    0  0.00000000000E+00  0.00000000000E+00  0.25384941526E+04  0.25384941526E+04  0.00000000000E+00 0. -1.
          1   -1    0    0  501    0 -0.00000000000E+00 -0.00000000000E+00 -0.64787888952E+03  0.64787888952E+03  0.00000000000E+00 0. -1.
         25    2    1    2    0    0  0.19333684182E+02 -0.43563256501E+01  0.52665845952E+01  0.12666975012E+03  0.12499887905E+03 0.  0.
          2    1    1    2  501    0  0.84727813635E+02  0.10076742591E+02 -0.58297216813E+03  0.58918324141E+03  0.00000000000E+00 0. -1.
          1    1    1    2  502    0 -0.10406149782E+03 -0.57204169414E+01  0.24683208466E+04  0.24705200506E+04  0.00000000000E+00 0. -1.
         22    1    3    3    0    0  0.41900560051E+02 -0.55726547880E+02 -0.38388379839E+01  0.69827227843E+02  0.00000000000E+00 0.  1.
         22    1    3    3    0    0 -0.22566875868E+02  0.51370222230E+02  0.91054225791E+01  0.56842522277E+02  0.00000000000E+00 0.  1.
</event>
<event>
 7    1  0.5957303E-006  0.7729368E+02  0.7818608E-02  0.1424288E+00
          2   -1    0    0  502    0  0.00000000000E+00  0.00000000000E+00  0.18456075116E+04  0.18456075116E+04  0.00000000000E+00 0. -1.
          1   -1    0    0  501    0 -0.00000000000E+00 -0.00000000000E+00 -0.15413714732E+03  0.15413714732E+03  0.00000000000E+00 0. -1.
         25    2    1    2    0    0  0.88183115380E+01 -0.11312144965E+03  0.15026079817E+02  0.16948210559E+03  0.12499670416E+03 0.  0.
          2    1    1    2  501    0  0.53098963141E+01  0.37525706273E+02 -0.71342606031E+02  0.80784534816E+02  0.00000000000E+00 0. -1.
          1    1    1    2  502    0 -0.14128207852E+02  0.75595743372E+02  0.17477868905E+04  0.17494780185E+04  0.00000000000E+00 0. -1.
         22    1    3    3    0    0 -0.40226732763E+02 -0.60980203192E+02 -0.36129368483E+02  0.81499119487E+02  0.00000000000E+00 0.  1.
         22    1    3    3    0    0  0.49045044301E+02 -0.52141246454E+02  0.51155448300E+02  0.87982986100E+02  0.00000000000E+00 0.  1.
</event>
<event>
 7    1  0.5957303E-006  0.6704398E+02  0.7818608E-02  0.1419703E+00
          2   -1    0    0  502    0  0.00000000000E+00  0.00000000000E+00  0.61496895868E+03  0.61496895868E+03  0.00000000000E+00 0. -1.
          1   -1    0    0  501    0 -0.00000000000E+00 -0.00000000000E+00 -0.14424623095E+04  0.14424623095E+04  0.00000000000E+00 0. -1.
         25    2    1    2    0    0 -0.94709970413E+02 -0.58585209527E+02  0.18765062823E+03  0.25147888765E+03  0.12500666936E+03 0.  0.
          2    1    1    2  501    0  0.53214256551E+02  0.40520780351E+02 -0.14084569307E+04  0.14100441895E+04  0.00000000000E+00 0. -1.
          1    1    1    2  502    0  0.41495713862E+02  0.18064429176E+02  0.39331295160E+03  0.39590819108E+03  0.00000000000E+00 0. -1.
         22    1    3    3    0    0 -0.29188384665E+01 -0.44239986442E+02  0.14042850653E+03  0.14726120149E+03  0.00000000000E+00 0.  1.
         22    1    3    3    0    0 -0.91791131947E+02 -0.14345223085E+02  0.47222121698E+02  0.10421768615E+03  0.00000000000E+00 0.  1.
</event>
<event>
 7    1  0.5957303E-006  0.3697246E+02  0.7818608E-02  0.1546917E+00
          2   -1    0    0  502    0  0.00000000000E+00  0.00000000000E+00  0.78133637302E+02  0.78133637302E+02  0.00000000000E+00 0. -1.
          1   -1    0    0  501    0 -0.00000000000E+00 -0.00000000000E+00 -0.52794167059E+03  0.52794167059E+03  0.00000000000E+00 0. -1.
         25    2    1    2    0    0 -0.14093001282E+02  0.23685991344E+02 -0.15431604732E+03  0.20049572284E+03  0.12500181417E+03 0.  0.
          2    1    1    2  501    0  0.37986191135E+02 -0.21315086172E+00 -0.34429730250E+03  0.34638653071E+03  0.00000000000E+00 0. -1.
          1    1    1    2  502    0 -0.23893189853E+02 -0.23472840482E+02  0.48805316526E+02  0.59193054346E+02  0.00000000000E+00 0. -1.
         22    1    3    3    0    0  0.54967087027E+02  0.31597968667E+01 -0.55225074758E+02  0.77981881579E+02  0.00000000000E+00 0. -1.
         22    1    3    3    0    0 -0.69060088310E+02  0.20526194477E+02 -0.99090972558E+02  0.12251384126E+03  0.00000000000E+00 0. -1.
</event>
<event>
 7    1  0.5957303E-006  0.6684646E+02  0.7818608E-02  0.1514257E+00
          2   -1    0    0  502    0  0.00000000000E+00  0.00000000000E+00  0.26932136128E+04  0.26932136128E+04  0.00000000000E+00 0. -1.
          1   -1    0    0  501    0 -0.00000000000E+00 -0.00000000000E+00 -0.27932806009E+02  0.27932806009E+02  0.00000000000E+00 0. -1.
         25    2    1    2    0    0 -0.96077836455E+01 -0.82249760138E+02  0.13597146646E+04  0.13679569572E+04  0.12499974018E+03 0.  0.
          2    1    1    2  501    0 -0.92451347553E+01  0.21033898271E+02 -0.17307893160E+02  0.28765614173E+02  0.00000000000E+00 0. -1.
          1    1    1    2  502    0  0.18852918401E+02  0.61215861867E+02  0.13228740354E+04  0.13244238475E+04  0.00000000000E+00 0. -1.
         22    1    3    3    0    0  0.32517407916E+02 -0.49963719222E+02  0.11529141660E+04  0.11544543426E+04  0.00000000000E+00 0. -1.
         22    1    3    3    0    0 -0.42125191562E+02 -0.32286040916E+02  0.20680049859E+03  0.21350261455E+03  0.00000000000E+00 0. -1.
</event>
<event>
 7    1  0.5957303E-006  0.1190671E+03  0.7818608E-02  0.1288529E+00
          2   -1    0    0  502    0  0.00000000000E+00  0.00000000000E+00  0.42088716937E+03  0.42088716937E+03  0.00000000000E+00 0. -1.
          1   -1    0    0  501    0 -0.00000000000E+00 -0.00000000000E+00 -0.16292030898E+03  0.16292030898E+03  0.00000000000E+00 0. -1.
         25    2    1    2    0    0  0.94506527506E+02 -0.15697575016E+03  0.98837180302E+02  0.24283091669E+03  0.12500078404E+03 0.  0.
          2    1    1    2  501    0 -0.26464605125E+02  0.73055045859E+02 -0.58996614041E+02  0.97560317333E+02  0.00000000000E+00 0. -1.
          1    1    1    2  502    0 -0.68041922380E+02  0.83920704303E+02  0.21812629413E+03  0.24341624433E+03  0.00000000000E+00 0. -1.
         22    1    3    3    0    0  0.90470991934E+01  0.17588780664E+02  0.31386422557E+02  0.37098823836E+02  0.00000000000E+00 0.  1.
         22    1    3    3    0    0  0.85459428312E+02 -0.17456453083E+03  0.67450757745E+02  0.20573209285E+03  0.00000000000E+00 0.  1.
</event>
<event>
 7    1  0.5957303E-006  0.1143148E+03  0.7818608E-02  0.1377074E+00
          2   -1    0    0  502    0  0.00000000000E+00  0.00000000000E+00  0.68469141616E+03  0.68469141616E+03  0.00000000000E+00 0. -1.
          1   -1    0    0  501    0 -0.00000000000E+00 -0.00000000000E+00 -0.28141305607E+03  0.28141305607E+03  0.00000000000E+00 0. -1.
         25    2    1    2    0    0 -0.12995777263E+03  0.44870957022E+02  0.31411684710E+03  0.36496180074E+03  0.12500118767E+03 0.  0.
          2    1    1    2  501    0  0.24019666911E+02 -0.28447607567E+02 -0.24623291795E+03  0.24903184667E+03  0.00000000000E+00 0. -1.
          1    1    1    2  502    0  0.10593810572E+03 -0.16423349454E+02  0.33539443094E+03  0.35211082482E+03  0.00000000000E+00 0. -1.
         22    1    3    3    0    0  0.19027389123E+02  0.26175485547E+02  0.32775985931E+02  0.46059340358E+02  0.00000000000E+00 0.  1.
         22    1    3    3    0    0 -0.14898516175E+03  0.18695471475E+02  0.28134086117E+03  0.31890246039E+03  0.00000000000E+00 0.  1.
</event>
<event>
 7    1  0.5957303E-006  0.8685220E+02  0.7818608E-02  0.1452054E+00
          2   -1    0    0  502    0  0.00000000000E+00  0.00000000000E+00  0.46417876444E+03  0.46417876444E+03  0.00000000000E+00 0. -1.
          1   -1    0    0  501    0 -0.00000000000E+00 -0.00000000000E+00 -0.21751700434E+03  0.21751700434E+03  0.00000000000E+00 0. -1.
         25    2    1    2    0    0  0.10909726248E+03  0.72081426947E+01  0.58315906215E+02  0.17600961013E+03  0.12499787173E+03 0.  0.
          2    1    1    2  501    0 -0.83197863802E+02 -0.16130698690E+02 -0.14675519999E+03  0.16946732046E+03  0.00000000000E+00 0. -1.
          1    1    1    2  502    0 -0.25899398673E+02  0.89225559954E+01  0.33510105387E+03  0.33621883820E+03  0.00000000000E+00 0. -1.
         22    1    3    3    0    0  0.16235104739E+02 -0.38912319014E+02  0.58762521861E+02  0.72324139624E+02  0.00000000000E+00 0. -1.
         22    1    3    3    0    0  0.92862157737E+02  0.46120461708E+02 -0.44661564572E+00  0.10368547050E+03  0.00000000000E+00 0. -1.
</event>
<event>
 7    1  0.5957303E-006  0.1006426E+03  0.7818608E-02  0.1412327E+00
          2   -1    0    0  502    0  0.00000000000E+00  0.00000000000E+00  0.13493875499E+04  0.13493875499E+04  0.00000000000E+00 0. -1.
          1   -1    0    0  501    0 -0.00000000000E+00 -0.00000000000E+00 -0.11623889205E+04  0.11623889205E+04  0.00000000000E+00 0. -1.
         25    2    1    2    0    0 -0.20444669458E+02 -0.68353209152E+02  0.15131800669E+03  0.20883340714E+03  0.12499642827E+03 0.  0.
          2    1    1    2  501    0 -0.14084313589E+02 -0.28643165690E+02 -0.11311392504E+04  0.11315895027E+04  0.00000000000E+00 0. -1.
          1    1    1    2  502    0  0.34528983047E+02  0.96996374842E+02  0.11668198731E+04  0.11713535605E+04  0.00000000000E+00 0. -1.
         22    1    3    3    0    0  0.19359597259E+02  0.88280568129E+01  0.11112236962E+03  0.11314110492E+03  0.00000000000E+00 0.  1.
         22    1    3    3    0    0 -0.39804266717E+02 -0.77181265965E+02  0.40195637065E+02  0.95692302219E+02  0.00000000000E+00 0.  1.
</event>
<event>
 7    1  0.5957303E-006  0.4677289E+02  0.7818608E-02  0.1520562E+00
          2   -1    0    0  502    0  0.00000000000E+00  0.00000000000E+00  0.99465677290E+03  0.99465677290E+03  0.00000000000E+00 0. -1.
          1   -1    0    0  501    0 -0.00000000000E+00 -0.00000000000E+00 -0.22291084559E+03  0.22291084559E+03  0.00000000000E+00 0. -1.
         25    2    1    2    0    0  0.52231927698E+01 -0.16431421928E+02  0.20195124748E+02  0.12778170546E+03  0.12499219102E+03 0.  0.
          2    1    1    2  501    0 -0.23632523040E+02  0.41963051571E+02 -0.16541335852E+03  0.17228166768E+03  0.00000000000E+00 0. -1.
          1    1    1    2  502    0  0.18409330270E+02 -0.25531629643E+02  0.91696416107E+03  0.91750424535E+03  0.00000000000E+00 0. -1.
         22    1    3    3    0    0  0.25945714362E+02  0.31187677290E+02 -0.33844796465E+02  0.52832958996E+02  0.00000000000E+00 0.  1.
         22    1    3    3    0    0 -0.20722521593E+02 -0.47619099218E+02  0.54039921212E+02  0.74948746462E+02  0.00000000000E+00 0.  1.
</event>
<event>
 7    1  0.5957303E-006  0.5769230E+02  0.7818608E-02  0.1414727E+00
          2   -1    0    0  502    0  0.00000000000E+00  0.00000000000E+00  0.14203164806E+02  0.14203164806E+02  0.00000000000E+00 0. -1.
          1   -1    0    0  501    0 -0.00000000000E+00 -0.00000000000E+00 -0.12293301670E+04  0.12293301670E+04  0.00000000000E+00 0. -1.
         25    2    1    2    0    0 -0.22235532002E+02  0.23812167536E+02 -0.65317451592E+03  0.66582527408E+03  0.12499963659E+03 0.  0.
          2    1    1    2  501    0 -0.40878495510E+02 -0.40710564535E+02 -0.38053932955E+03  0.38488775350E+03  0.00000000000E+00 0. -1.
          1    1    1    2  502    0  0.63114027513E+02  0.16898396998E+02 -0.18141315670E+03  0.19282030420E+03  0.00000000000E+00 0. -1.
         22    1    3    3    0    0  0.96586869374E+01 -0.38453328366E+01  0.85834634295E+00  0.10431374618E+02  0.00000000000E+00 0.  1.
         22    1    3    3    0    0 -0.31894218940E+02  0.27657500373E+02 -0.65403286226E+03  0.65539389946E+03  0.00000000000E+00 0.  1.
</event>
<event>
 7    1  0.5957303E-006  0.5592448E+02  0.7818608E-02  0.1440789E+00
          2   -1    0    0  502    0  0.00000000000E+00  0.00000000000E+00  0.55383158419E+02  0.55383158419E+02  0.00000000000E+00 0. -1.
          1   -1    0    0  501    0 -0.00000000000E+00 -0.00000000000E+00 -0.46367515141E+03  0.46367515141E+03  0.00000000000E+00 0. -1.
         25    2    1    2    0    0  0.50094534128E+02  0.29820652182E+02 -0.82266151103E+02  0.16059772214E+03  0.12500070037E+03 0.  0.
          2    1    1    2  501    0 -0.11796970538E+02 -0.55738628848E+02 -0.30007016651E+03  0.30543095470E+03  0.00000000000E+00 0. -1.
          1    1    1    2  502    0 -0.38297563590E+02  0.25917976667E+02 -0.25955675385E+02  0.53029632999E+02  0.00000000000E+00 0. -1.
         22    1    3    3    0    0  0.49337463276E+02 -0.53634373642E+01  0.19191687811E+02  0.53209704227E+02  0.00000000000E+00 0. -1.
         22    1    3    3    0    0  0.75707085224E+00  0.35184089546E+02 -0.10145783891E+03  0.10738801791E+03  0.00000000000E+00 0. -1.
</event>
<event>
 7    1  0.5957303E-006  0.8498665E+02  0.7818608E-02  0.1448289E+00
          2   -1    0    0  502    0  0.00000000000E+00  0.00000000000E+00  0.28146400297E+02  0.28146400297E+02  0.00000000000E+00 0. -1.
          1   -1    0    0  501    0 -0.00000000000E+00 -0.00000000000E+00 -0.14872086368E+04  0.14872086368E+04  0.00000000000E+00 0. -1.
         25    2    1    2    0    0 -0.33080555621E+02 -0.59584173677E+02 -0.90444991590E+03  0.91558686011E+03  0.12500020453E+03 0.  0.
          2    1    1    2  501    0 -0.28750651208E+02 -0.13358049081E+01 -0.49175921737E+03  0.49260076349E+03  0.00000000000E+00 0. -1.
          1    1    1    2  502    0  0.61831206829E+02  0.60919978585E+02 -0.62853103231E+02  0.10716741349E+03  0.00000000000E+00 0. -1.
         22    1    3    3    0    0 -0.81534786792E+01 -0.94722593074E+02 -0.50952449428E+03  0.51831849198E+03  0.00000000000E+00 0. -1.
         22    1    3    3    0    0 -0.24927076942E+02  0.35138419397E+02 -0.39492542162E+03  0.39726836814E+03  0.00000000000E+00 0. -1.
</event>
<event>
 7    1  0.5957303E-006  0.1738428E+03  0.7818608E-02  0.1361731E+00
          2   -1    0    0  502    0  0.00000000000E+00  0.00000000000E+00  0.39727919960E+03  0.39727919960E+03  0.00000000000E+00 0. -1.
          1   -1    0    0  501    0 -0.00000000000E+00 -0.00000000000E+00 -0.63004757812E+03  0.63004757812E+03  0.00000000000E+00 0. -1.
         25    2    1    2    0    0 -0.16769973121E+03  0.28302960804E+02 -0.46341637761E+03  0.50921908226E+03  0.12500030905E+03 0.  0.
          2    1    1    2  501    0  0.17655640950E+03 -0.54656060105E+02 -0.83444862617E+02  0.20278682339E+03  0.00000000000E+00 0. -1.
          1    1    1    2  502    0 -0.88566782867E+01  0.26353099301E+02  0.31409286170E+03  0.31532087207E+03  0.00000000000E+00 0. -1.
         22    1    3    3    0    0 -0.92072449811E+01 -0.37286728158E+02 -0.65913049479E+02  0.76286326092E+02  0.00000000000E+00 0.  1.
         22    1    3    3    0    0 -0.15849248623E+03  0.65589688962E+02 -0.39750332813E+03  0.43293275617E+03  0.00000000000E+00 0.  1.
</event>
<event>
 7    1  0.5957303E-006  0.5968765E+02  0.7818608E-02  0.1460525E+00
          2   -1    0    0  502    0  0.00000000000E+00  0.00000000000E+00  0.99197859278E+03  0.99197859278E+03  0.00000000000E+00 0. -1.
          1   -1    0    0  501    0 -0.00000000000E+00 -0.00000000000E+00 -0.69686431526E+03  0.69686431526E+03  0.00000000000E+00 0. -1.
         25    2    1    2    0    0  0.46503972618E+02 -0.46405521583E+02 -0.16944148021E+03  0.22057128293E+03  0.12500073494E+03 0.  0.
          2    1    1    2  501    0  0.12191928448E+02  0.35430352856E+02 -0.50023420236E+03  0.50163553525E+03  0.00000000000E+00 0. -1.
          1    1    1    2  502    0 -0.58695901066E+02  0.10975168727E+02  0.96478996009E+03  0.96663608986E+03  0.00000000000E+00 0. -1.
         22    1    3    3    0    0  0.33704316776E+02  0.14475755935E+02 -0.15142248998E+03  0.15580211472E+03  0.00000000000E+00 0.  1.
         22    1    3    3    0    0  0.12799655842E+02 -0.60881277517E+02 -0.18018990229E+02  0.64769168210E+02  0.00000000000E+00 0.  1.
</event>
<event>
 7    1  0.5957303E-006  0.7541142E+02  0.7818608E-02  0.1351268E+00
          2   -1    0    0  502    0  0.00000000000E+00  0.00000000000E+00  0.11345199448E+04  0.11345199448E+04  0.00000000000E+00 0. -1.
          1   -1    0    0  501    0 -0.00000000000E+00 -0.00000000000E+00 -0.15688382504E+04  0.15688382504E+04  0.00000000000E+00 0. -1.
         25    2    1    2    0    0 -0.72459519446E+02  0.12330030382E+03  0.15774816807E+03  0.24690590907E+03  0.12499878609E+03 0.  0.
          2    1    1    2  501    0  0.31896898708E+02 -0.62324600790E+02 -0.15220150457E+04  0.15236244837E+04  0.00000000000E+00 0. -1.
          1    1    1    2  502    0  0.40562620738E+02 -0.60975703030E+02  0.92994857200E+03  0.93282780250E+03  0.00000000000E+00 0. -1.
         22    1    3    3    0    0 -0.93048468028E+02  0.11336260735E+03  0.82521844978E+02  0.16828236106E+03  0.00000000000E+00 0. -1.
         22    1    3    3    0    0  0.20588948582E+02  0.99376964735E+01  0.75226323091E+02  0.78623548004E+02  0.00000000000E+00 0. -1.
</event>
<event>
 7    1  0.5957303E-006  0.9083259E+02  0.7818608E-02  0.1342413E+00
          2   -1    0    0  502    0  0.00000000000E+00  0.00000000000E+00  0.34747101467E+04  0.34747101467E+04  0.00000000000E+00 0. -1.
          1   -1    0    0  501    0 -0.00000000000E+00 -0.00000000000E+00 -0.28048363924E+03  0.28048363924E+03  0.00000000000E+00 0. -1.
         25    2    1    2    0    0  0.13035774292E+03 -0.54332153321E+02  0.10761495349E+03  0.21714293286E+03  0.12499980421E+03 0.  0.
          2    1    1    2  501    0 -0.67701479216E+02  0.56934808713E+02 -0.21674382069E+03  0.23410029162E+03  0.00000000000E+00 0. -1.
          1    1    1    2  502    0 -0.62656263707E+02 -0.26026553912E+01  0.33033553747E+04  0.33039505615E+04  0.00000000000E+00 0. -1.
         22    1    3    3    0    0  0.15294131678E+02  0.38070016433E+02  0.23451825121E+02  0.47257007063E+02  0.00000000000E+00 0. -1.
         22    1    3    3    0    0  0.11506361125E+03 -0.92402169755E+02  0.84163128369E+02  0.16988592580E+03  0.00000000000E+00 0. -1.
</event>
<event>
 7    1  0.5957303E-006  0.9471422E+02  0.7818608E-02  0.1342228E+00
          2   -1    0    0  502    0  0.00000000000E+00  0.00000000000E+00  0.22422419558E+04  0.22422419558E+04  0.00000000000E+00 0. -1.
          1   -1    0    0  501    0 -0.00000000000E+00 -0.00000000000E+00 -0.42335616010E+03  0.42335616010E+03  0.00000000000E+00 0. -1.
         25    2    1    2    0    0 -0.10442642201E+03 -0.73730417243E+02 -0.32865099669E+02  0.18178648470E+03  0.12500063680E+03 0.  0.
          2    1    1    2  501    0  0.44664486074E+02  0.81275357044E+02 -0.30879793347E+03  0.32242326792E+03  0.00000000000E+00 0. -1.
          1    1    1    2  502    0  0.59761935941E+02 -0.75449398009E+01  0.21605488289E+04  0.21613883633E+04  0.00000000000E+00 0. -1.
         22    1    3    3    0    0  0.15945875497E+01  0.19821609693E+02  0.22419708087E+02  0.29968020138E+02  0.00000000000E+00 0. -1.
         22    1    3    3    0    0 -0.10602100956E+03 -0.93552026936E+02 -0.55284807756E+02  0.15181846456E+03  0.00000000000E+00 0. -1.
</event>
<event>
 7    1  0.5957303E-006  0.6850150E+02  0.7818608E-02  0.1382832E+00
          2   -1    0    0  502    0  0.00000000000E+00  0.00000000000E+00  0.39822734875E+04  0.39822734875E+04  0.00000000000E+00 0. -1.
          1   -1    0    0  501    0 -0.00000000000E+00 -0.00000000000E+00 -0.35745509345E+03  0.35745509345E+03  0.00000000000E+00 0. -1.
         25    2    1    2    0    0 -0.11086581078E+03  0.22214752540E+02 -0.26742277752E+03  0.31609763257E+03  0.12497218952E+03 0.  0.
          2    1    1    2  501    0  0.44523468752E+02 -0.39140576327E+02 -0.51963362905E+02  0.78832195639E+02  0.00000000000E+00 0. -1.
          1    1    1    2  502    0  0.66342342029E+02  0.16925823787E+02  0.39442045344E+04  0.39447987527E+04  0.00000000000E+00 0. -1.
         22    1    3    3    0    0  0.14499712008E+02 -0.95676306640E+01 -0.11453321331E+03  0.11584316189E+03  0.00000000000E+00 0.  1.
         22    1    3    3    0    0 -0.12536552279E+03  0.31782383204E+02 -0.15288956420E+03  0.20025447068E+03  0.00000000000E+00 0.  1.
</event>
<event>
 7    1  0.5957303E-006  0.7188278E+02  0.7818608E-02  0.1456382E+00
          2   -1    0    0  502    0  0.00000000000E+00  0.00000000000E+00  0.38499496826E+03  0.38499496826E+03  0.00000000000E+00 0. -1.
          1   -1    0    0  501    0 -0.00000000000E+00 -0.00000000000E+00 -0.93832862942E+03  0.93832862942E+03  0.00000000000E+00 0. -1.
         25    2    1    2    0    0 -0.69482497846E+02  0.74529792475E+02  0.35199313892E+02  0.16506614824E+03  0.12500133649E+03 0.  0.
          2    1    1    2  501    0  0.23126245518E+02 -0.22211434324E+02 -0.86880686238E+03  0.86939837541E+03  0.00000000000E+00 0. -1.
          1    1    1    2  502    0  0.46356252328E+02 -0.52318358151E+02  0.28027388733E+03  0.28885907403E+03  0.00000000000E+00 0. -1.
         22    1    3    3    0    0  0.87640168270E+01  0.67910586198E+02  0.50476582242E+02  0.85067861520E+02  0.00000000000E+00 0. -1.
         22    1    3    3    0    0 -0.78246514673E+02  0.66192062770E+01 -0.15277268350E+02  0.79998286722E+02  0.00000000000E+00 0. -1.
</event>
<event>
 7    1  0.5957303E-006  0.7036311E+02  0.7818608E-02  0.1510376E+00
          2   -1    0    0  502    0  0.00000000000E+00  0.00000000000E+00  0.23052496514E+04  0.23052496514E+04  0.00000000000E+00 0. -1.
          1   -1    0    0  501    0 -0.00000000000E+00 -0.00000000000E+00 -0.54897638036E+02  0.54897638036E+02  0.00000000000E+00 0. -1.
         25    2    1    2    0    0 -0.37461589406E+02  0.70620447181E+02  0.18394209830E+03  0.23632591156E+03  0.12499849082E+03 0.  0.
          2    1    1    2  501    0 -0.10804907174E+02 -0.19630613381E+02 -0.23651685178E+02  0.32580810495E+02  0.00000000000E+00 0. -1.
          1    1    1    2  502    0  0.48266496579E+02 -0.50989833800E+02  0.20900616003E+04  0.20912405674E+04  0.00000000000E+00 0. -1.
         22    1    3    3    0    0 -0.55745764658E+02  0.82283796365E+02  0.18946049549E+03  0.21394740656E+03  0.00000000000E+00 0. -1.
         22    1    3    3    0    0  0.18284175253E+02 -0.11663349184E+02 -0.55183971869E+01  0.22378505007E+02  0.00000000000E+00 0. -1.
</event>
<event>
 7    1  0.5957303E-006  0.1258299E+03  0.7818608E-02  0.1278006E+00
          2   -1    0    0  502    0  0.00000000000E+00  0.00000000000E+00  0.20259454214E+04  0.20259454214E+04  0.00000000000E+00 0. -1.
          1   -1    0    0  501    0 -0.00000000000E+00 -0.00000000000E+00 -0.25618692392E+04  0.25618692392E+04  0.00000000000E+00 0. -1.
         25    2    1    2    0    0  0.18647979757E+03 -0.31535769364E+01 -0.25357810097E+03  0.33869017320E+03  0.12499808072E+03 0.  0.
          2    1    1    2  501    0 -0.11735337295E+03 -0.39497258869E+02 -0.22632104612E+04  0.22665951203E+04  0.00000000000E+00 0. -1.
          1    1    1    2  502    0 -0.69126424616E+02  0.42650835805E+02  0.19808647443E+04  0.19825293671E+04  0.00000000000E+00 0. -1.
         22    1    3    3    0    0  0.13159900983E+03  0.31200316140E+02 -0.23532265172E+03  0.27141943469E+03  0.00000000000E+00 0.  1.
         22    1    3    3    0    0  0.54880787739E+02 -0.34353893077E+02 -0.18255449250E+02  0.67270738510E+02  0.00000000000E+00 0.  1.
</event>
<event>
 7    1  0.5957303E-006  0.4753562E+02  0.7818608E-02  0.1539579E+00
          2   -1    0    0  502    0  0.00000000000E+00  0.00000000000E+00  0.97937691924E+03  0.97937691924E+03  0.00000000000E+00 0. -1.
          1   -1    0    0  501    0 -0.00000000000E+00 -0.00000000000E+00 -0.91461648811E+02  0.91461648811E+02  0.00000000000E+00 0. -1.
         25    2    1    2    0    0  0.16977761853E+00 -0.41178844186E+02  0.21553351988E+03  0.25253821036E+03  0.12500049387E+03 0.  0.
          2    1    1    2  501    0 -0.27281569639E+02  0.14489703391E+01 -0.69595486857E+02  0.74765736456E+02  0.00000000000E+00 0. -1.
          1    1    1    2  502    0  0.27111792020E+02  0.39729873847E+02  0.74197723741E+03  0.74353462124E+03  0.00000000000E+00 0. -1.
         22    1    3    3    0    0  0.11137984738E+02 -0.61149519454E+02  0.22060687604E+03  0.22919579444E+03  0.00000000000E+00 0. -1.
         22    1    3    3    0    0 -0.10968207120E+02  0.19970675268E+02 -0.50733561638E+01  0.23342415917E+02  0.00000000000E+00 0. -1.
</event>
<event>
 7    1  0.5957303E-006  0.8470130E+02  0.7818608E-02  0.1369650E+00
          2   -1    0    0  502    0  0.00000000000E+00  0.00000000000E+00  0.40429594339E+03  0.40429594339E+03  0.00000000000E+00 0. -1.
          1   -1    0    0  501    0 -0.00000000000E+00 -0.00000000000E+00 -0.12630803007E+04  0.12630803007E+04  0.00000000000E+00 0. -1.
         25    2    1    2    0    0  0.35225468098E+02  0.12057868820E+03  0.46495135994E+02  0.18320759500E+03  0.12499268597E+03 0.  0.
          2    1    1    2  501    0 -0.48564335393E+02 -0.68853354727E+02 -0.11907581170E+04  0.11937353863E+04  0.00000000000E+00 0. -1.
          1    1    1    2  502    0  0.13338867296E+02 -0.51725333471E+02  0.28547862377E+03  0.29043326279E+03  0.00000000000E+00 0. -1.
         22    1    3    3    0    0  0.45427879071E+02 -0.83361606152E+01  0.23642562502E+02  0.51885976259E+02  0.00000000000E+00 0. -1.
         22    1    3    3    0    0 -0.10202410973E+02  0.12891484881E+03  0.22852573492E+02  0.13132161874E+03  0.00000000000E+00 0. -1.
</event>
<event>
 7    1  0.5957303E-006  0.5291000E+02  0.7818608E-02  0.1435125E+00
          2   -1    0    0  502    0  0.00000000000E+00  0.00000000000E+00  0.16325513951E+04  0.16325513951E+04  0.00000000000E+00 0. -1.
          1   -1    0    0  501    0 -0.00000000000E+00 -0.00000000000E+00 -0.68736770920E+02  0.68736770920E+02  0.00000000000E+00 0. -1.
         25    2    1    2    0    0  0.68510839019E+02  0.11431904127E+02  0.10572249658E+04  0.10668520353E+04  0.12499685319E+03 0.  0.
          2    1    1    2  501    0 -0.39140939222E+02  0.32691290073E+02 -0.52294501480E+02  0.73044154145E+02  0.00000000000E+00 0. -1.
          1    1    1    2  502    0 -0.29369899797E+02 -0.44123194200E+02  0.55888415978E+03  0.56139197655E+03  0.00000000000E+00 0. -1.
         22    1    3    3    0    0  0.43683807979E+02 -0.55758723260E+02  0.57177396256E+03  0.57614475140E+03  0.00000000000E+00 0. -1.
         22    1    3    3    0    0  0.24827031041E+02  0.67190627387E+02  0.48545100329E+03  0.49070728390E+03  0.00000000000E+00 0. -1.
</event>
<event>
 7    1  0.5957303E-006  0.6201978E+02  0.7818608E-02  0.1391847E+00
          2   -1    0    0  502    0  0.00000000000E+00  0.00000000000E+00  0.30454450451E+04  0.30454450451E+04  0.00000000000E+00 0. -1.
          1   -1    0    0  501    0 -0.00000000000E+00 -0.00000000000E+00 -0.10557468196E+03  0.10557468196E+03  0.00000000000E+00 0. -1.
         25    2    1    2    0    0  0.44460016703E+01 -0.23396383508E+02  0.22679052000E+03  0.26004979604E+03  0.12499919507E+03 0.  0.
          2    1    1    2  501    0  0.57477219913E+02  0.26855912704E+02 -0.77243662305E+02  0.99957261979E+02  0.00000000000E+00 0. -1.
          1    1    1    2  502    0 -0.61923221584E+02 -0.34595291958E+01  0.27903235055E+04  0.27910126691E+04  0.00000000000E+00 0. -1.
         22    1    3    3    0    0  0.15140571102E+02  0.20288809428E+02  0.21080281928E+03  0.21231745405E+03  0.00000000000E+00 0. -1.
         22    1    3    3    0    0 -0.10694569432E+02 -0.43685192936E+02  0.15987700719E+02  0.47732341986E+02  0.00000000000E+00 0. -1.
</event>
<event>
 7    1  0.5957303E-006  0.5353960E+02  0.7818608E-02  0.1437216E+00
          2   -1    0    0  502    0  0.00000000000E+00  0.00000000000E+00  0.50082574402E+03  0.50082574402E+03  0.00000000000E+00 0. -1.
          1   -1    0    0  501    0 -0.00000000000E+00 -0.00000000000E+00 -0.12937820005E+03  0.12937820005E+03  0.00000000000E+00 0. -1.
         25    2    1    2    0    0 -0.25899807975E+02 -0.80532796715E+02  0.60245724288E+02  0.16251486906E+03  0.12500081588E+03 0.  0.
          2    1    1    2  501    0  0.40203659512E+02  0.33027544196E+02 -0.67794677225E+02  0.85459178406E+02  0.00000000000E+00 0. -1.
          1    1    1    2  502    0 -0.14303851537E+02  0.47505252520E+02  0.37899649692E+03  0.38222989661E+03  0.00000000000E+00 0. -1.
         22    1    3    3    0    0  0.24395110048E+02  0.22840443006E+02  0.26660201787E+02  0.42750129711E+02  0.00000000000E+00 0. -1.
         22    1    3    3    0    0 -0.50294918023E+02 -0.10337323972E+03  0.33585522501E+02  0.11976473935E+03  0.00000000000E+00 0. -1.
</event>
<event>
 7    1  0.5957303E-006  0.1096110E+03  0.7818608E-02  0.1417050E+00
          2   -1    0    0  502    0  0.00000000000E+00  0.00000000000E+00  0.11977480248E+04  0.11977480248E+04  0.00000000000E+00 0. -1.
          1   -1    0    0  501    0 -0.00000000000E+00 -0.00000000000E+00 -0.50781052772E+03  0.50781052772E+03  0.00000000000E+00 0. -1.
         25    2    1    2    0    0 -0.98381853830E+02 -0.63641738604E+02  0.10494391246E+03  0.20091662552E+03  0.12500002237E+03 0.  0.
          2    1    1    2  501    0  0.75074293107E+02  0.79611522763E+02 -0.45311906674E+03  0.46614486234E+03  0.00000000000E+00 0. -1.
          1    1    1    2  502    0  0.23307560722E+02 -0.15969784159E+02  0.10381126513E+04  0.10384970646E+04  0.00000000000E+00 0. -1.
         22    1    3    3    0    0  0.20555542319E+02 -0.46103254272E+02  0.23333504699E+02  0.55610186261E+02  0.00000000000E+00 0. -1.
         22    1    3    3    0    0 -0.11893739615E+03 -0.17538484332E+02  0.81610407760E+02  0.14530643926E+03  0.00000000000E+00 0. -1.
</event>
<event>
 7    1  0.5957303E-006  0.9166933E+02  0.7818608E-02  0.1403733E+00
          2   -1    0    0  502    0  0.00000000000E+00  0.00000000000E+00  0.30206093486E+03  0.30206093486E+03  0.00000000000E+00 0. -1.
          1   -1    0    0  501    0 -0.00000000000E+00 -0.00000000000E+00 -0.19240714711E+03  0.19240714711E+03  0.00000000000E+00 0. -1.
         25    2    1    2    0    0 -0.41575531208E+02  0.72876305725E+02  0.23227848441E+03  0.27679997015E+03  0.12500179368E+03 0.  0.
          2    1    1    2  501    0 -0.15252768321E+02  0.34236932363E+02 -0.81370218901E+02  0.89587538213E+02  0.00000000000E+00 0. -1.
          1    1    1    2  502    0  0.56828299530E+02 -0.10711323809E+03 -0.41254477763E+02  0.12808057361E+03  0.00000000000E+00 0. -1.
         22    1    3    3    0    0 -0.21914538088E+02  0.55736990495E+02  0.20321449426E+02  0.63244133292E+02  0.00000000000E+00 0.  1.
         22    1    3    3    0    0 -0.19660993120E+02  0.17139315229E+02  0.21195703498E+03  0.21355583686E+03  0.00000000000E+00 0.  1.
</event>
<event>
 7    1  0.5957303E-006  0.6019988E+02  0.7818608E-02  0.1435201E+00
          2   -1    0    0  502    0  0.00000000000E+00  0.00000000000E+00  0.49706090855E+03  0.49706090855E+03  0.00000000000E+00 0. -1.
          1   -1    0    0  501    0 -0.00000000000E+00 -0.00000000000E+00 -0.57089409418E+02  0.57089409418E+02  0.00000000000E+00 0. -1.
         25    2    1    2    0    0  0.38674001118E+02 -0.41419943212E+01  0.24770754964E+03  0.28017224295E+03  0.12499848435E+03 0.  0.
          2    1    1    2  501    0  0.21492561243E+02  0.39303667554E+02 -0.21103734286E+02  0.49518441745E+02  0.00000000000E+00 0. -1.
          1    1    1    2  502    0 -0.60166562360E+02 -0.35161673233E+02  0.21336768377E+03  0.22445963327E+03  0.00000000000E+00 0. -1.
         22    1    3    3    0    0  0.48936564284E+02  0.23272801900E+02  0.32931495935E+02  0.63410520080E+02  0.00000000000E+00 0. -1.
         22    1    3    3    0    0 -0.10262563166E+02 -0.27414796221E+02  0.21477605371E+03  0.21676172287E+03  0.00000000000E+00 0. -1.
</event>
<event>
 7    1  0.5957303E-006  0.6774143E+02  0.7818608E-02  0.1462091E+00
          2   -1    0    0  502    0  0.00000000000E+00  0.00000000000E+00  0.10922333387E+04  0.10922333387E+04  0.00000000000E+00 0. -1.
          1   -1    0    0  501    0 -0.00000000000E+00 -0.00000000000E+00 -0.15572797803E+02  0.15572797803E+02  0.00000000000E+00 0. -1.
         25    2    1    2    0    0 -0.59307977684E+02  0.24078791407E+02  0.63663702985E+03  0.65194265166E+03  0.12500115543E+03 0.  0.
          2    1    1    2  501    0  0.70081978378E+02  0.67338124994E+01  0.17188146816E+03  0.18574193662E+03  0.00000000000E+00 0. -1.
          1    1    1    2  502    0 -0.10774000694E+02 -0.30812603906E+02  0.26814204286E+03  0.27012154820E+03  0.00000000000E+00 0. -1.
         22    1    3    3    0    0  0.29791818555E+02  0.89363505928E+01  0.35037161900E+03  0.35174945944E+03  0.00000000000E+00 0.  1.
         22    1    3    3    0    0 -0.89099796239E+02  0.15142440814E+02  0.28626541085E+03  0.30019319222E+03  0.00000000000E+00 0.  1.
</event>
<event>
 7    1  0.5957303E-006  0.7881379E+02  0.7818608E-02  0.1480207E+00
          2   -1    0    0  502    0  0.00000000000E+00  0.00000000000E+00  0.26859113074E+04  0.26859113074E+04  0.00000000000E+00 0. -1.
          1   -1    0    0  501    0 -0.00000000000E+00 -0.00000000000E+00 -0.17481830121E+04  0.17481830121E+04  0.00000000000E+00 0. -1.
         25    2    1    2    0    0  0.49792079977E+02  0.43490241445E+02 -0.73993156156E+02  0.15959478229E+03  0.12499942018E+03 0.  0.
          2    1    1    2  501    0  0.22078499850E+02 -0.10954736987E+02 -0.16307072035E+04  0.16308934515E+04  0.00000000000E+00 0. -1.
          1    1    1    2  502    0 -0.71870579826E+02 -0.32535504458E+02  0.26424286551E+04  0.26436060857E+04  0.00000000000E+00 0. -1.
         22    1    3    3    0    0  0.54799072322E+02 -0.29084139225E+02 -0.10266073198E+02  0.62882571041E+02  0.00000000000E+00 0. -1.
         22    1    3    3    0    0 -0.50069923453E+01  0.72574380670E+02 -0.63727082958E+02  0.96712211247E+02  0.00000000000E+00 0. -1.
</event>
<event>
 7    1  0.5957303E-006  0.1153262E+03  0.7818608E-02  0.1303320E+00
          2   -1    0    0  502    0  0.00000000000E+00  0.00000000000E+00  0.20321353323E+04  0.20321353323E+04  0.00000000000E+00 0. -1.
          1   -1    0    0  501    0 -0.00000000000E+00 -0.00000000000E+00 -0.22089811205E+03  0.22089811205E+03  0.00000000000E+00 0. -1.
         25    2    1    2    0    0 -0.10837429852E+03 -0.14104334197E+03  0.12082235701E+03  0.24872281734E+03  0.12500713987E+03 0.  0.
          2    1    1    2  501    0  0.73516182629E+02  0.80415165619E+02 -0.13728871268E+03  0.17526955982E+03  0.00000000000E+00 0. -1.
          1    1    1    2  502    0  0.34858115892E+02  0.60628176349E+02  0.18277035759E+04  0.18290410671E+04  0.00000000000E+00 0. -1.
         22    1    3    3    0    0 -0.26182111174E+02 -0.65246502132E+01 -0.22906651781E+02  0.35394755286E+02  0.00000000000E+00 0.  1.
         22    1    3    3    0    0 -0.82192187347E+02 -0.13451869175E+03  0.14372900879E+03  0.21332806206E+03  0.00000000000E+00 0.  1.
</event>
<event>
 7    1  0.5957303E-006  0.9985034E+02  0.7818608E-02  0.1344561E+00
          2   -1    0    0  502    0  0.00000000000E+00  0.00000000000E+00  0.38692415139E+03  0.38692415139E+03  0.00000000000E+00 0. -1.
          1   -1    0    0  501    0 -0.00000000000E+00 -0.00000000000E+00 -0.19750604579E+04  0.19750604579E+04  0.00000000000E+00 0. -1.
         25    2    1    2    0    0 -0.56758647220E+02  0.25039201101E+01 -0.10524920566E+04  0.10614106624E+04  0.12500100613E+03 0.  0.
          2    1    1    2  501    0 -0.30228368487E+02  0.47141323913E+02 -0.91067715038E+03  0.91239735362E+03  0.00000000000E+00 0. -1.
          1    1    1    2  502    0  0.86987015706E+02 -0.49645244023E+02  0.37503290042E+03  0.38817659326E+03  0.00000000000E+00 0. -1.
         22    1    3    3    0    0 -0.51288378905E+02 -0.45291551029E+02 -0.31473873154E+03  0.32209050209E+03  0.00000000000E+00 0. -1.
         22    1    3    3    0    0 -0.54702683148E+01  0.47795471139E+02 -0.73775332504E+03  0.73932016035E+03  0.00000000000E+00 0. -1.
</event>
<event>
 7    1  0.5957303E-006  0.6193739E+02  0.7818608E-02  0.1394230E+00
          2   -1    0    0  502    0  0.00000000000E+00  0.00000000000E+00  0.12181510419E+03  0.12181510419E+03  0.00000000000E+00 0. -1.
          1   -1    0    0  501    0 -0.00000000000E+00 -0.00000000000E+00 -0.11217088619E+04  0.11217088619E+04  0.00000000000E+00 0. -1.
         25    2    1    2    0    0  0.34472324967E+02 -0.16983529799E+02 -0.24176671885E+03  0.27486840965E+03  0.12499885921E+03 0.  0.
          2    1    1    2  501    0  0.78736855417E+00  0.65300625123E+02 -0.85354492906E+03  0.85603956539E+03  0.00000000000E+00 0. -1.
          1    1    1    2  502    0 -0.35259693521E+02 -0.48317095323E+02  0.95417890165E+02  0.11261599110E+03  0.00000000000E+00 0. -1.
         22    1    3    3    0    0  0.29085778366E+02  0.27633466341E+02 -0.13667103860E+02  0.42383731468E+02  0.00000000000E+00 0.  1.
         22    1    3    3    0    0  0.53865466010E+01 -0.44616996141E+02 -0.22809961499E+03  0.23248467818E+03  0.00000000000E+00 0.  1.
</event>
<event>
 7    1  0.5957303E-006  0.7462786E+02  0.7818608E-02  0.1378817E+00
          2   -1    0    0  502    0  0.00000000000E+00  0.00000000000E+00  0.31573168584E+03  0.31573168584E+03  0.00000000000E+00 0. -1.
          1   -1    0    0  501    0 -0.00000000000E+00 -0.00000000000E+00 -0.12495922832E+04  0.12495922832E+04  0.00000000000E+00 0. -1.
         25    2    1    2    0    0 -0.32628912233E+02  0.88619520892E+02  0.11751973714E+01  0.15666784963E+03  0.12500147449E+03 0.  0.
          2    1    1    2  501    0  0.62384394011E+02 -0.40914131769E+02 -0.11673010221E+04  0.11696826300E+04  0.00000000000E+00 0. -1.
          1    1    1    2  502    0 -0.29755481778E+02 -0.47705389123E+02  0.23226522729E+03  0.23897348944E+03  0.00000000000E+00 0. -1.
         22    1    3    3    0    0 -0.63353305498E+02  0.97164950048E+02 -0.20926882524E+02  0.11786688783E+03  0.00000000000E+00 0.  1.
         22    1    3    3    0    0  0.30724393265E+02 -0.85454291563E+01  0.22102079895E+02  0.38800961801E+02  0.00000000000E+00 0.  1.
</event>
<event>
 7    1  0.5957303E-006  0.6341911E+02  0.7818608E-02  0.1399943E+00
          2   -1    0    0  502    0  0.00000000000E+00  0.00000000000E+00  0.13566291240E+04  0.13566291240E+04  0.00000000000E+00 0. -1.
          1   -1    0    0  501    0 -0.00000000000E+00 -0.00000000000E+00 -0.40563976070E+03  0.40563976070E+03  0.00000000000E+00 0. -1.
         25    2    1    2    0    0  0.93671498439E+02  0.54394170332E+02  0.57523485356E+03  0.59854430386E+03  0.12500828591E+03 0.  0.
          2    1    1    2  501    0 -0.62765111173E+02 -0.79077706521E+01 -0.39042359096E+03  0.39551557795E+03  0.00000000000E+00 0. -1.
          1    1    1    2  502    0 -0.30906387266E+02 -0.46486399680E+02  0.76617810070E+03  0.76820900289E+03  0.00000000000E+00 0. -1.
         22    1    3    3    0    0  0.86863383494E+02  0.30125050189E+02  0.17646887824E+03  0.19898248925E+03  0.00000000000E+00 0. -1.
         22    1    3    3    0    0  0.68081149450E+01  0.24269120143E+02  0.39876597531E+03  0.39956181460E+03  0.00000000000E+00 0. -1.
</event>
<event>
 7    1  0.5957303E-006  0.1463370E+03  0.7818608E-02  0.1315281E+00
          2   -1    0    0  502    0  0.00000000000E+00  0.00000000000E+00  0.10442933104E+04  0.10442933104E+04  0.00000000000E+00 0. -1.
          1   -1    0    0  501    0 -0.00000000000E+00 -0.00000000000E+00 -0.65712434916E+03  0.65712434916E+03  0.00000000000E+00 0. -1.
         25    2    1    2    0    0 -0.48839028672E+02 -0.92752540855E+02  0.60485463906E+03  0.62646809747E+03  0.12499943280E+03 0.  0.
          2    1    1    2  501    0  0.93958629278E+02  0.11296383319E+03 -0.63649398330E+03  0.65323322206E+03  0.00000000000E+00 0. -1.
          1    1    1    2  502    0 -0.45119600606E+02 -0.20211292336E+02  0.41880830551E+03  0.42171634004E+03  0.00000000000E+00 0. -1.
         22    1    3    3    0    0 -0.36155215671E+02 -0.39844505658E+02  0.67280980629E+02  0.86148213016E+02  0.00000000000E+00 0. -1.
         22    1    3    3    0    0 -0.12683813001E+02 -0.52908035197E+02  0.53757365843E+03  0.54031988446E+03  0.00000000000E+00 0. -1.
</event>
<event>
 7    1  0.5957303E-006  0.5820635E+02  0.7818608E-02  0.1543722E+00
          2   -1    0    0  502    0  0.00000000000E+00  0.00000000000E+00  0.20386491993E+04  0.20386491993E+04  0.00000000000E+00 0. -1.
          1   -1    0    0  501    0 -0.00000000000E+00 -0.00000000000E+00 -0.12578163103E+03  0.12578163103E+03  0.00000000000E+00 0. -1.
         25    2    1    2    0    0  0.36640879809E+02 -0.62515885061E+01  0.10856997984E+04  0.10935040387E+04  0.12500157607E+03 0.  0.
          2    1    1    2  501    0 -0.56181218787E+02  0.15732961445E+02 -0.11476513939E+03  0.12874351494E+03  0.00000000000E+00 0. -1.
          1    1    1    2  502    0  0.19540338978E+02 -0.94813729389E+01  0.94193290921E+03  0.94218327661E+03  0.00000000000E+00 0. -1.
         22    1    3    3    0    0  0.14780605522E+02  0.40554951141E+02  0.89169235377E+03  0.89273648079E+03  0.00000000000E+00 0.  1.
         22    1    3    3    0    0  0.21860274287E+02 -0.46806539647E+02  0.19400744465E+03  0.20076755795E+03  0.00000000000E+00 0.  1.
</event>
<event>
 7    1  0.5957303E-006  0.1199085E+03  0.7818608E-02  0.1270372E+00
          2   -1    0    0  502    0  0.00000000000E+00  0.00000000000E+00  0.10085918148E+04  0.10085918148E+04  0.00000000000E+00 0. -1.
          1   -1    0    0  501    0 -0.00000000000E+00 -0.00000000000E+00 -0.62810561129E+03  0.62810561129E+03  0.00000000000E+00 0. -1.
         25    2    1    2    0    0 -0.12236711823E+03  0.13159339173E+03  0.14526013158E+03  0.26270857384E+03  0.12499902627E+03 0.  0.
          2    1    1    2  501    0  0.12894253442E+02 -0.90809846421E+02 -0.56139959996E+03  0.56884286126E+03  0.00000000000E+00 0. -1.
          1    1    1    2  502    0  0.10947286479E+03 -0.40783545308E+02  0.79662567187E+03  0.80514599097E+03  0.00000000000E+00 0. -1.
         22    1    3    3    0    0 -0.52232840465E+02  0.94870080423E+02  0.13694948236E+02  0.10916113498E+03  0.00000000000E+00 0.  1.
         22    1    3    3    0    0 -0.70134277767E+02  0.36723311306E+02  0.13156518335E+03  0.15354743886E+03  0.00000000000E+00 0.  1.
</event>
<event>
 7    1  0.5957303E-006  0.5576016E+02  0.7818608E-02  0.1500256E+00
          2   -1    0    0  502    0  0.00000000000E+00  0.00000000000E+00  0.41995651236E+03  0.41995651236E+03  0.00000000000E+00 0. -1.
          1   -1    0    0  501    0 -0.00000000000E+00 -0.00000000000E+00 -0.11350327984E+03  0.11350327984E+03  0.00000000000E+00 0. -1.
         25    2    1    2    0    0 -0.79106260028E+02 -0.43760150985E+01  0.13115505872E+02  0.14857226668E+03  0.12499900818E+03 0.  0.
          2    1    1    2  501    0  0.50038995384E+02  0.12919934343E+02 -0.30251521190E+02  0.59883055172E+02  0.00000000000E+00 0. -1.
          1    1    1    2  502    0  0.29067264644E+02 -0.85439192446E+01  0.32358924784E+03  0.32500447035E+03  0.00000000000E+00 0. -1.
         22    1    3    3    0    0 -0.20212451152E+02  0.16365073426E+02  0.63319877883E+02  0.68452653308E+02  0.00000000000E+00 0.  1.
         22    1    3    3    0    0 -0.58893808876E+02 -0.20741088524E+02 -0.50204372011E+02  0.80119613367E+02  0.00000000000E+00 0.  1.
</event>
<event>
 7    1  0.5957303E-006  0.1096749E+03  0.7818608E-02  0.1341528E+00
          2   -1    0    0  502    0  0.00000000000E+00  0.00000000000E+00  0.65502450176E+03  0.65502450176E+03  0.00000000000E+00 0. -1.
          1   -1    0    0  501    0 -0.00000000000E+00 -0.00000000000E+00 -0.23489697635E+04  0.23489697635E+04  0.00000000000E+00 0. -1.
         25    2    1    2    0    0  0.97387859632E+02  0.40806295247E+02  0.15355284236E+03  0.22439494115E+03  0.12500026113E+03 0.  0.
          2    1    1    2  501    0 -0.25560351315E+02  0.45668804968E+02 -0.23064687105E+04  0.23070623927E+04  0.00000000000E+00 0. -1.
          1    1    1    2  502    0 -0.71827508317E+02 -0.86475100216E+02  0.45897060645E+03  0.47253693136E+03  0.00000000000E+00 0. -1.
         22    1    3    3    0    0 -0.22637933232E+02  0.33099198107E+02  0.20492078293E+02  0.45032856995E+02  0.00000000000E+00 0.  1.
         22    1    3    3    0    0  0.12002579286E+03  0.77070971403E+01  0.13306076407E+03  0.17936208416E+03  0.00000000000E+00 0.  1.
</event>
<event>
 7    1  0.5957303E-006  0.1852662E+03  0.7818608E-02  0.1276673E+00
          2   -1    0    0  502    0  0.00000000000E+00  0.00000000000E+00  0.23628155428E+04  0.23628155428E+04  0.00000000000E+00 0. -1.
          1   -1    0    0  501    0 -0.00000000000E+00 -0.00000000000E+00 -0.32948673043E+03  0.32948673043E+03  0.00000000000E+00 0. -1.
         25    2    1    2    0    0  0.15783403836E+03 -0.32313335340E+02  0.37388582540E+03  0.42587671027E+03  0.12499850641E+03 0.  0.
          2    1    1    2  501    0 -0.18682164742E+03 -0.15453180009E+02 -0.27410178055E+03  0.33207365872E+03  0.00000000000E+00 0. -1.
          1    1    1    2  502    0  0.28987609056E+02  0.47766515349E+02  0.19335447676E+04  0.19343519043E+04  0.00000000000E+00 0. -1.
         22    1    3    3    0    0  0.13012246433E+03  0.13830209282E+02  0.16731573224E+03  0.21240923866E+03  0.00000000000E+00 0.  1.
         22    1    3    3    0    0  0.27711574029E+02 -0.46143544622E+02  0.20657009316E+03  0.21346747161E+03  0.00000000000E+00 0.  1.
</event>
<event>
 7    1  0.5957303E-006  0.1598344E+03  0.7818608E-02  0.1260449E+00
          2   -1    0    0  502    0  0.00000000000E+00  0.00000000000E+00  0.15536390095E+03  0.15536390095E+03  0.00000000000E+00 0. -1.
          1   -1    0    0  501    0 -0.00000000000E+00 -0.00000000000E+00 -0.64209718363E+03  0.64209718363E+03  0.00000000000E+00 0. -1.
         25    2    1    2    0    0  0.38049149192E+01  0.20166845132E+03 -0.53928918488E+02  0.24334831355E+03  0.12500172729E+03 0.  0.
          2    1    1    2  501    0 -0.54685556675E+02 -0.14549216214E+03 -0.45026259997E+03  0.47633484891E+03  0.00000000000E+00 0. -1.
          1    1    1    2  502    0  0.50880641756E+02 -0.56176289186E+02  0.17458235776E+02  0.77777922115E+02  0.00000000000E+00 0. -1.
         22    1    3    3    0    0 -0.29239130832E+02  0.16408923521E+03  0.40980610520E+01  0.16672431733E+03  0.00000000000E+00 0.  1.
         22    1    3    3    0    0  0.33044045751E+02  0.37579216109E+02 -0.58026979540E+02  0.76623996225E+02  0.00000000000E+00 0.  1.
</event>
<event>
 7    1  0.5957303E-006  0.7607454E+02  0.7818608E-02  0.1442912E+00
          2   -1    0    0  502    0  0.00000000000E+00  0.00000000000E+00  0.97250962570E+03  0.97250962570E+03  0.00000000000E+00 0. -1.
          1   -1    0    0  501    0 -0.00000000000E+00 -0.00000000000E+00 -0.58501383004E+03  0.58501383004E+03  0.00000000000E+00 0. -1.
         25    2    1    2    0    0 -0.43712646601E+02 -0.53460876058E+02  0.17046635667E+03  0.22238129639E+03  0.12500320591E+03 0.  0.
          2    1    1    2  501    0 -0.26135624645E+02  0.20894356744E+02 -0.55663947332E+03  0.55764428471E+03  0.00000000000E+00 0. -1.
          1    1    1    2  502    0  0.69848271246E+02  0.32566519314E+02  0.77366891232E+03  0.77749787464E+03  0.00000000000E+00 0. -1.
         22    1    3    3    0    0 -0.45185206846E+02 -0.18254588622E+02  0.17950567126E+03  0.18600327669E+03  0.00000000000E+00 0. -1.
         22    1    3    3    0    0  0.14725602451E+01 -0.35206287436E+02 -0.90393145987E+01  0.36378019698E+02  0.00000000000E+00 0. -1.
</event>
<event>
 7    1  0.5957303E-006  0.1494599E+03  0.7818608E-02  0.1387944E+00
          2   -1    0    0  502    0  0.00000000000E+00  0.00000000000E+00  0.52822692865E+03  0.52822692865E+03  0.00000000000E+00 0. -1.
          1   -1    0    0  501    0 -0.00000000000E+00 -0.00000000000E+00 -0.52699928535E+03  0.52699928535E+03  0.00000000000E+00 0. -1.
         25    2    1    2    0    0  0.14279414317E+03  0.26563821578E+02  0.11359555620E+03  0.22276653927E+03  0.12500070676E+03 0.  0.
          2    1    1    2  501    0 -0.14040094722E+03 -0.52523384928E+02 -0.46002180050E+03  0.48382971062E+03  0.00000000000E+00 0. -1.
          1    1    1    2  502    0 -0.23931959441E+01  0.25959563350E+02  0.34765388759E+03  0.34862996411E+03  0.00000000000E+00 0. -1.
         22    1    3    3    0    0  0.10400306196E+03 -0.40468037408E+02  0.48854598910E+02  0.12182393354E+03  0.00000000000E+00 0. -1.
         22    1    3    3    0    0  0.38791081204E+02  0.67031858986E+02  0.64740957288E+02  0.10094260573E+03  0.00000000000E+00 0. -1.
</event>
<event>
 7    1  0.5957303E-006  0.2969061E+03  0.7818608E-02  0.1230633E+00
          2   -1    0    0  502    0  0.00000000000E+00  0.00000000000E+00  0.22400290449E+03  0.22400290449E+03  0.00000000000E+00 0. -1.
          1   -1    0    0  501    0 -0.00000000000E+00 -0.00000000000E+00 -0.94137705350E+03  0.94137705350E+03  0.00000000000E+00 0. -1.
         25    2    1    2    0    0  0.17138334132E+03  0.25113798051E+03 -0.74465350860E+03  0.81398789196E+03  0.12499962175E+03 0.  0.
          2    1    1    2  501    0 -0.18855609842E+03 -0.19880270685E+03 -0.25400818503E+02  0.27517470829E+03  0.00000000000E+00 0. -1.
          1    1    1    2  502    0  0.17172757100E+02 -0.52335273666E+02  0.52680178097E+02  0.76217357737E+02  0.00000000000E+00 0. -1.
         22    1    3    3    0    0  0.10836027496E+03  0.77367637147E+02 -0.21376431799E+03  0.25183900435E+03  0.00000000000E+00 0.  1.
         22    1    3    3    0    0  0.63023066367E+02  0.17377034336E+03 -0.53088919062E+03  0.56214888761E+03  0.00000000000E+00 0.  1.
</event>
<event>
 7    1  0.5957303E-006  0.6056523E+02  0.7818608E-02  0.1421987E+00
          2   -1    0    0  502    0  0.00000000000E+00  0.00000000000E+00  0.49964037289E+03  0.49964037289E+03  0.00000000000E+00 0. -1.
          1   -1    0    0  501    0 -0.00000000000E+00 -0.00000000000E+00 -0.13555211124E+04  0.13555211124E+04  0.00000000000E+00 0. -1.
         25    2    1    2    0    0  0.91893947638E+01 -0.52955091064E+02  0.83401710350E+02  0.15959054910E+03  0.12499844570E+03 0.  0.
          2    1    1    2  501    0  0.39553371787E+02  0.46065843027E+02 -0.13151211833E+04  0.13165220309E+04  0.00000000000E+00 0. -1.
          1    1    1    2  502    0 -0.48742766550E+02  0.68892480363E+01  0.37583873344E+03  0.37904890527E+03  0.00000000000E+00 0. -1.
         22    1    3    3    0    0 -0.50198684297E+02 -0.26718980673E+02  0.39761153528E+01  0.57005449974E+02  0.00000000000E+00 0.  1.
         22    1    3    3    0    0  0.59388079061E+02 -0.26236110390E+02  0.79425594998E+02  0.10258509913E+03  0.00000000000E+00 0.  1.
</event>
<event>
 7    1  0.5957303E-006  0.1205222E+03  0.7818608E-02  0.1384517E+00
          2   -1    0    0  502    0  0.00000000000E+00  0.00000000000E+00  0.30436842879E+04  0.30436842879E+04  0.00000000000E+00 0. -1.
          1   -1    0    0  501    0 -0.00000000000E+00 -0.00000000000E+00 -0.99164898047E+01  0.99164898047E+01  0.00000000000E+00 0. -1.
         25    2    1    2    0    0  0.52055916028E+02 -0.13531469971E+03  0.13950446996E+04  0.14081172106E+04  0.12499791372E+03 0.  0.
          2    1    1    2  501    0 -0.15990545051E+02  0.29137522665E+02  0.24289484873E+03  0.24515831680E+03  0.00000000000E+00 0. -1.
          1    1    1    2  502    0 -0.36065370976E+02  0.10617717705E+03  0.13958282498E+04  0.14003252503E+04  0.00000000000E+00 0. -1.
         22    1    3    3    0    0  0.57158745420E+02 -0.65452633414E+02  0.11494014354E+04  0.11526815818E+04  0.00000000000E+00 0. -1.
         22    1    3    3    0    0 -0.51028293924E+01 -0.69862066300E+02  0.24564326425E+03  0.25543562878E+03  0.00000000000E+00 0. -1.
</event>
<event>
 7    1  0.5957303E-006  0.1050092E+03  0.7818608E-02  0.1383834E+00
          2   -1    0    0  502    0  0.00000000000E+00  0.00000000000E+00  0.74462968412E+03  0.74462968412E+03  0.00000000000E+00 0. -1.
          1   -1    0    0  501    0 -0.00000000000E+00 -0.00000000000E+00 -0.17897317378E+03  0.17897317378E+03  0.00000000000E+00 0. -1.
         25    2    1    2    0    0  0.10840696026E+03 -0.36912088217E+02  0.16800754815E+03  0.23867569116E+03  0.12499991210E+03 0.  0.
          2    1    1    2  501    0 -0.10466758387E+03 -0.12640458769E+01 -0.12377038688E+03  0.16209876494E+03  0.00000000000E+00 0. -1.
          1    1    1    2  502    0 -0.37393763952E+01  0.38176134094E+02  0.52141934908E+03  0.52282840181E+03  0.00000000000E+00 0. -1.
         22    1    3    3    0    0 -0.26281202904E+02  0.54871256555E+01  0.39429196020E+02  0.47701904290E+02  0.00000000000E+00 0.  1.
         22    1    3    3    0    0  0.13468816317E+03 -0.42399213873E+02  0.12857835213E+03  0.19097378687E+03  0.00000000000E+00 0.  1.
</event>
<event>
 7    1  0.5957303E-006  0.6282942E+02  0.7818608E-02  0.1510574E+00
          2   -1    0    0  502    0  0.00000000000E+00  0.00000000000E+00  0.13531637789E+04  0.13531637789E+04  0.00000000000E+00 0. -1.
          1   -1    0    0  501    0 -0.00000000000E+00 -0.00000000000E+00 -0.14569498632E+03  0.14569498632E+03  0.00000000000E+00 0. -1.
         25    2    1    2    0    0  0.39574558774E+02 -0.18755407519E+02  0.41263961125E+03  0.43337510245E+03  0.12499847855E+03 0.  0.
          2    1    1    2  501    0 -0.62578715645E+02  0.88127833492E+01 -0.12776983051E+03  0.14254434534E+03  0.00000000000E+00 0. -1.
          1    1    1    2  502    0  0.23004156872E+02  0.99426241703E+01  0.92259901180E+03  0.92293931739E+03  0.00000000000E+00 0. -1.
         22    1    3    3    0    0  0.23571857774E+02  0.53291080571E+02  0.16602721265E+03  0.17595626470E+03  0.00000000000E+00 0. -1.
         22    1    3    3    0    0  0.16002701000E+02 -0.72046488091E+02  0.24661239861E+03  0.25741883776E+03  0.00000000000E+00 0. -1.
</event>
<event>
 7    1  0.5957303E-006  0.1371359E+03  0.7818608E-02  0.1286214E+00
          2   -1    0    0  502    0  0.00000000000E+00  0.00000000000E+00  0.13378324779E+04  0.13378324779E+04  0.00000000000E+00 0. -1.
          1   -1    0    0  501    0 -0.00000000000E+00 -0.00000000000E+00 -0.78211661429E+02  0.78211661429E+02  0.00000000000E+00 0. -1.
         25    2    1    2    0    0 -0.45663766021E+02 -0.10502361721E+03  0.14611782589E+03  0.22381139367E+03  0.12500392471E+03 0.  0.
          2    1    1    2  501    0  0.59058570018E+02 -0.35579345231E+02 -0.86152610139E+00  0.68953221295E+02  0.00000000000E+00 0. -1.
          1    1    1    2  502    0 -0.13394803997E+02  0.14060296244E+03  0.11143645167E+04  0.11232795244E+04  0.00000000000E+00 0. -1.
         22    1    3    3    0    0  0.35550291315E+02 -0.81669433361E+01  0.95075889961E+01  0.37695045093E+02  0.00000000000E+00 0. -1.
         22    1    3    3    0    0 -0.81214057337E+02 -0.96856673871E+02  0.13661023689E+03  0.18611634857E+03  0.00000000000E+00 0. -1.
</event>
<event>
 7    1  0.5957303E-006  0.5218178E+02  0.7818608E-02  0.1475019E+00
          2   -1    0    0  502    0  0.00000000000E+00  0.00000000000E+00  0.14098096639E+04  0.14098096639E+04  0.00000000000E+00 0. -1.
          1   -1    0    0  501    0 -0.00000000000E+00 -0.00000000000E+00 -0.16578878002E+03  0.16578878002E+03  0.00000000000E+00 0. -1.
         25    2    1    2    0    0 -0.20525068762E+02  0.68370371150E+01 -0.24664866189E+02  0.12923232663E+03  0.12499846038E+03 0.  0.
          2    1    1    2  501    0 -0.65175361398E+01  0.38066009175E+02 -0.84111354959E+02  0.92553872771E+02  0.00000000000E+00 0. -1.
          1    1    1    2  502    0  0.27042604902E+02 -0.44903046290E+02  0.13527971050E+04  0.13538122445E+04  0.00000000000E+00 0. -1.
         22    1    3    3    0    0 -0.55321368124E+02  0.11564449174E+02  0.30209100892E+02  0.64084163664E+02  0.00000000000E+00 0. -1.
         22    1    3    3    0    0  0.34796299363E+02 -0.47274120589E+01 -0.54873967081E+02  0.65148162962E+02  0.00000000000E+00 0. -1.
</event>
<event>
 7    1  0.5957303E-006  0.1556524E+03  0.7818608E-02  0.1207625E+00
          2   -1    0    0  502    0  0.00000000000E+00  0.00000000000E+00  0.10076515245E+04  0.10076515245E+04  0.00000000000E+00 0. -1.
          1   -1    0    0  501    0 -0.00000000000E+00 -0.00000000000E+00 -0.10577398523E+04  0.10577398523E+04  0.00000000000E+00 0. -1.
         25    2    1    2    0    0 -0.28947771793E+02 -0.23474225366E+03  0.20796214960E+03  0.33884337061E+03  0.12499869995E+03 0.  0.
          2    1    1    2  501    0  0.90661136469E+02  0.98431571056E+02 -0.98008164741E+03  0.98917554127E+03  0.00000000000E+00 0. -1.
          1    1    1    2  502    0 -0.61713364676E+02  0.13631068261E+03  0.72203117000E+03  0.73737246493E+03  0.00000000000E+00 0. -1.
         22    1    3    3    0    0  0.90931792345E+01 -0.20247511249E+03  0.11420082645E+03  0.23263853045E+03  0.00000000000E+00 0. -1.
         22    1    3    3    0    0 -0.38040951027E+02 -0.32267141175E+02  0.93761323151E+02  0.10620484016E+03  0.00000000000E+00 0. -1.
</event>
<event>
 7    1  0.5957303E-006  0.1212592E+03  0.7818608E-02  0.1360589E+00
          2   -1    0    0  502    0  0.00000000000E+00  0.00000000000E+00  0.21835433815E+04  0.21835433815E+04  0.00000000000E+00 0. -1.
          1   -1    0    0  501    0 -0.00000000000E+00 -0.00000000000E+00 -0.13315139294E+04  0.13315139294E+04  0.00000000000E+00 0. -1.
         25    2    1    2    0    0 -0.81793111087E+02 -0.64723403233E+02  0.14809236016E+04  0.14898470341E+04  0.12502095580E+03 0.  0.
          2    1    1    2  501    0  0.66035315202E+02  0.10175110936E+03 -0.13236968917E+04  0.13292431727E+04  0.00000000000E+00 0. -1.
          1    1    1    2  502    0  0.15757795885E+02 -0.37027706130E+02  0.69480274233E+03  0.69596710404E+03  0.00000000000E+00 0. -1.
         22    1    3    3    0    0 -0.52026056845E+02 -0.15239165319E+02  0.12701321539E+04  0.12712885711E+04  0.00000000000E+00 0.  1.
         22    1    3    3    0    0 -0.29767054242E+02 -0.49484237913E+02  0.21079144769E+03  0.21855846298E+03  0.00000000000E+00 0.  1.
</event>
<event>
 7    1  0.5957303E-006  0.1903728E+03  0.7818608E-02  0.1187716E+00
          2   -1    0    0  502    0  0.00000000000E+00  0.00000000000E+00  0.22305500048E+04  0.22305500048E+04  0.00000000000E+00 0. -1.
          1   -1    0    0  501    0 -0.00000000000E+00 -0.00000000000E+00 -0.17735904358E+03  0.17735904358E+03  0.00000000000E+00 0. -1.
         25    2    1    2    0    0 -0.73034069704E+02 -0.44722304866E+02  0.69214678938E+02  0.16658381754E+03  0.12500174637E+03 0.  0.
          2    1    1    2  501    0 -0.20745828386E+02 -0.13434967194E+03 -0.86419029452E+02  0.16108529541E+03  0.00000000000E+00 0. -1.
          1    1    1    2  502    0  0.93779898090E+02  0.17907197681E+03  0.20703953118E+04  0.20802399355E+04  0.00000000000E+00 0. -1.
         22    1    3    3    0    0 -0.68558576009E+02  0.19950194035E+02  0.72390022619E+02  0.10167892585E+03  0.00000000000E+00 0. -1.
         22    1    3    3    0    0 -0.44754936947E+01 -0.64672498901E+02 -0.31753436808E+01  0.64904891690E+02  0.00000000000E+00 0. -1.
</event>
<event>
 7    1  0.5957303E-006  0.3761956E+02  0.7818608E-02  0.1548729E+00
          2   -1    0    0  502    0  0.00000000000E+00  0.00000000000E+00  0.11884602982E+04  0.11884602982E+04  0.00000000000E+00 0. -1.
          1   -1    0    0  501    0 -0.00000000000E+00 -0.00000000000E+00 -0.18790190733E+03  0.18790190733E+03  0.00000000000E+00 0. -1.
         25    2    1    2    0    0  0.32064285249E+02  0.59212555332E+02  0.13941305394E+03  0.19898615679E+03  0.12500098355E+03 0.  0.
          2    1    1    2  501    0 -0.25251471813E+02 -0.27397879189E+02 -0.15565648633E+03  0.16005381079E+03  0.00000000000E+00 0. -1.
          1    1    1    2  502    0 -0.68128134356E+01 -0.31814676143E+02  0.10168018233E+04  0.10173222380E+04  0.00000000000E+00 0. -1.
         22    1    3    3    0    0  0.74485220742E+00 -0.38222043314E+02  0.51022727194E+02  0.63755769074E+02  0.00000000000E+00 0. -1.
         22    1    3    3    0    0  0.31319433041E+02  0.97434598646E+02  0.88390326741E+02  0.13523038771E+03  0.00000000000E+00 0. -1.
</event>
<event>
 7    1  0.5957303E-006  0.1328896E+03  0.7818608E-02  0.1261051E+00
          2   -1    0    0  502    0  0.00000000000E+00  0.00000000000E+00  0.26644380241E+03  0.26644380241E+03  0.00000000000E+00 0. -1.
          1   -1    0    0  501    0 -0.00000000000E+00 -0.00000000000E+00 -0.12535963206E+04  0.12535963206E+04  0.00000000000E+00 0. -1.
         25    2    1    2    0    0  0.16804677787E+03 -0.87537427877E+02 -0.13354871433E+03  0.26337755541E+03  0.12501982548E+03 0.  0.
          2    1    1    2  501    0 -0.13028470103E+03  0.51559885289E+01 -0.10406671703E+04  0.10488035311E+04  0.00000000000E+00 0. -1.
          1    1    1    2  502    0 -0.37762076838E+02  0.82381439348E+02  0.18706336642E+03  0.20785903650E+03  0.00000000000E+00 0. -1.
         22    1    3    3    0    0  0.97842104566E+02 -0.34637395713E+02 -0.35647821414E+00  0.10379284024E+03  0.00000000000E+00 0.  1.
         22    1    3    3    0    0  0.70204673305E+02 -0.52900032164E+02 -0.13319223611E+03  0.15958471517E+03  0.00000000000E+00 0.  1.
</event>
<event>
 7    1  0.5957303E-006  0.1623829E+03  0.7818608E-02  0.1334223E+00
          2   -1    0    0  502    0  0.00000000000E+00  0.00000000000E+00  0.36522802858E+04  0.36522802858E+04  0.00000000000E+00 0. -1.
          1   -1    0    0  501    0 -0.00000000000E+00 -0.00000000000E+00 -0.24399935413E+03  0.24399935413E+03  0.00000000000E+00 0. -1.
         25    2    1    2    0    0  0.12833660434E+03  0.82810466124E+01 -0.17497058285E+03  0.25055604528E+03  0.12499906886E+03 0.  0.
          2    1    1    2  501    0  0.31848743617E+02  0.20106647513E+02 -0.17336082263E+02  0.41462748250E+02  0.00000000000E+00 0. -1.
          1    1    1    2  502    0 -0.16018534796E+03 -0.28387694125E+02  0.36005875967E+04  0.36042608464E+04  0.00000000000E+00 0. -1.
         22    1    3    3    0    0 -0.23540457811E+01 -0.34258138842E+02 -0.68768277890E+02  0.76865061324E+02  0.00000000000E+00 0.  1.
         22    1    3    3    0    0  0.13069065012E+03  0.42539185454E+02 -0.10620230496E+03  0.17369098395E+03  0.00000000000E+00 0.  1.
</event>
<event>
 7    1  0.5957303E-006  0.4355086E+02  0.7818608E-02  0.1536879E+00
          2   -1    0    0  502    0  0.00000000000E+00  0.00000000000E+00  0.39273875794E+03  0.39273875794E+03  0.00000000000E+00 0. -1.
          1   -1    0    0  501    0 -0.00000000000E+00 -0.00000000000E+00 -0.42113615166E+03  0.42113615166E+03  0.00000000000E+00 0. -1.
         25    2    1    2    0    0 -0.43989814909E+02  0.51613956378E+02 -0.10455888038E+03  0.17651892799E+03  0.12500907232E+03 0.  0.
          2    1    1    2  501    0  0.36327856037E+02 -0.22247380987E+02 -0.27832830954E+03  0.28156936442E+03  0.00000000000E+00 0. -1.
          1    1    1    2  502    0  0.76619588724E+01 -0.29366575391E+02  0.35448979621E+03  0.35578661720E+03  0.00000000000E+00 0. -1.
         22    1    3    3    0    0  0.40484440431E+02  0.38956379569E+02 -0.49627482420E+02  0.74963167205E+02  0.00000000000E+00 0.  1.
         22    1    3    3    0    0 -0.84474255341E+02  0.12657576809E+02 -0.54931397957E+02  0.10155576078E+03  0.00000000000E+00 0.  1.
</event>
<event>
 7    1  0.5957303E-006  0.9052511E+02  0.7818608E-02  0.1320680E+00
          2   -1    0    0  502    0  0.00000000000E+00  0.00000000000E+00  0.23996211029E+03  0.23996211029E+03  0.00000000000E+00 0. -1.
          1   -1    0    0  501    0 -0.00000000000E+00 -0.00000000000E+00 -0.83132335980E+03  0.83132335980E+03  0.00000000000E+00 0. -1.
         25    2    1    2    0    0 -0.26519891641E+02 -0.15558201682E+03  0.77634823423E+01  0.20148071957E+03  0.12500056035E+03 0.  0.
          2    1    1    2  501    0  0.16024640326E+02  0.74440833222E+02 -0.71990535636E+03  0.72392123112E+03  0.00000000000E+00 0. -1.
          1    1    1    2  502    0  0.10495251315E+02  0.81141183601E+02  0.12078062451E+03  0.14588351941E+03  0.00000000000E+00 0. -1.
         22    1    3    3    0    0 -0.63455612477E+02 -0.42695055870E+02 -0.20918111099E+02  0.79290919547E+02  0.00000000000E+00 0.  1.
         22    1    3    3    0    0  0.36935720836E+02 -0.11288696095E+03  0.28681593441E+02  0.12218980002E+03  0.00000000000E+00 0.  1.
</event>
<event>
 7    1  0.5957303E-006  0.1005674E+03  0.7818608E-02  0.1407312E+00
          2   -1    0    0  502    0  0.00000000000E+00  0.00000000000E+00  0.31324773732E+04  0.31324773732E+04  0.00000000000E+00 0. -1.
          1   -1    0    0  501    0 -0.00000000000E+00 -0.00000000000E+00 -0.14987297457E+02  0.14987297457E+02  0.00000000000E+00 0. -1.
         25    2    1    2    0    0  0.43928007234E+02  0.83203779858E+02  0.19730261844E+04  0.19792194575E+04  0.12499919041E+03 0.  0.
          2    1    1    2  501    0 -0.15641171566E+02 -0.10061803808E+03  0.21196463046E+03  0.23515450326E+03  0.00000000000E+00 0. -1.
          1    1    1    2  502    0 -0.28286835668E+02  0.17414258221E+02  0.93249926088E+03  0.93309070996E+03  0.00000000000E+00 0. -1.
         22    1    3    3    0    0  0.36524859210E+02  0.95827173654E+02  0.19440926275E+04  0.19467955869E+04  0.00000000000E+00 0. -1.
         22    1    3    3    0    0  0.74031480237E+01 -0.12623393796E+02  0.28933556886E+02  0.32423870615E+02  0.00000000000E+00 0. -1.
</event>
<event>
 7    1  0.5957303E-006  0.9481166E+02  0.7818608E-02  0.1357543E+00
          2   -1    0    0  502    0  0.00000000000E+00  0.00000000000E+00  0.13796488641E+04  0.13796488641E+04  0.00000000000E+00 0. -1.
          1   -1    0    0  501    0 -0.00000000000E+00 -0.00000000000E+00 -0.13512363358E+04  0.13512363358E+04  0.00000000000E+00 0. -1.
         25    2    1    2    0    0  0.69085423250E+02  0.12730168373E+03  0.13625357435E+03  0.23487972691E+03  0.12499974083E+03 0.  0.
          2    1    1    2  501    0 -0.33643455803E+02 -0.88160747935E+02 -0.12996280950E+04  0.13030492642E+04  0.00000000000E+00 0. -1.
          1    1    1    2  502    0 -0.35441967447E+02 -0.39140935790E+02  0.11917870489E+04  0.11929562087E+04  0.00000000000E+00 0. -1.
         22    1    3    3    0    0 -0.27954897198E+02  0.77041156628E+02  0.55032162762E+02  0.98718564770E+02  0.00000000000E+00 0. -1.
         22    1    3    3    0    0  0.97040320448E+02  0.50260527097E+02  0.81221411584E+02  0.13616116214E+03  0.00000000000E+00 0. -1.
</event>
<event>
 7    1  0.5957303E-006  0.3730342E+02  0.7818608E-02  0.1595042E+00
          2   -1    0    0  502    0  0.00000000000E+00  0.00000000000E+00  0.25915832578E+04  0.25915832578E+04  0.00000000000E+00 0. -1.
          1   -1    0    0  501    0 -0.00000000000E+00 -0.00000000000E+00 -0.14009934510E+02  0.14009934510E+02  0.00000000000E+00 0. -1.
         25    2    1    2    0    0  0.30564487456E+02 -0.50156699435E+02  0.15460229032E+04  0.15521797827E+04  0.12500151335E+03 0.  0.
          2    1    1    2  501    0 -0.76518949733E+01  0.23353149025E+02  0.35751184435E+01  0.24833496289E+02  0.00000000000E+00 0. -1.
          1    1    1    2  502    0 -0.22912592483E+02  0.26803550410E+02  0.10279753016E+04  0.10285799133E+04  0.00000000000E+00 0. -1.
         22    1    3    3    0    0  0.27636215588E+02 -0.51438479554E+02  0.27400413071E+03  0.28015699391E+03  0.00000000000E+00 0.  1.
         22    1    3    3    0    0  0.29282718677E+01  0.12817801197E+01  0.12720187725E+04  0.12720227888E+04  0.00000000000E+00 0.  1.
</event>
<event>
 7    1  0.5957303E-006  0.9353092E+02  0.7818608E-02  0.1320393E+00
          2   -1    0    0  502    0  0.00000000000E+00  0.00000000000E+00  0.58756417019E+03  0.58756417019E+03  0.00000000000E+00 0. -1.
          1   -1    0    0  501    0 -0.00000000000E+00 -0.00000000000E+00 -0.97099651602E+03  0.97099651602E+03  0.00000000000E+00 0. -1.
         25    2    1    2    0    0 -0.66331763073E+02 -0.10086380882E+03 -0.27967480285E+03  0.32926702734E+03  0.12500147689E+03 0.  0.
          2    1    1    2  501    0  0.73492246739E+02  0.76372440387E+01 -0.66056787660E+03  0.66468741331E+03  0.00000000000E+00 0. -1.
          1    1    1    2  502    0 -0.71604836655E+01  0.93226564785E+02  0.55681033361E+03  0.56460624555E+03  0.00000000000E+00 0. -1.
         22    1    3    3    0    0 -0.35336888130E+02 -0.10332061251E+03 -0.10378121572E+03  0.15064655777E+03  0.00000000000E+00 0.  1.
         22    1    3    3    0    0 -0.30994874943E+02  0.24568036871E+01 -0.17589358712E+03  0.17862046957E+03  0.00000000000E+00 0.  1.
</event>
<event>
 7    1  0.5957303E-006  0.7593333E+02  0.7818608E-02  0.1344811E+00
          2   -1    0    0  502    0  0.00000000000E+00  0.00000000000E+00  0.34268392070E+04  0.34268392070E+04  0.00000000000E+00 0. -1.
          1   -1    0    0  501    0 -0.00000000000E+00 -0.00000000000E+00 -0.41087010503E+03  0.41087010503E+03  0.00000000000E+00 0. -1.
         25    2    1    2    0    0 -0.79316640653E+02  0.12358791026E+03  0.49012902618E+03  0.52670196947E+03  0.12499360501E+03 0.  0.
          2    1    1    2  501    0  0.29778445100E+02 -0.69315355219E+02 -0.38849193086E+03  0.39574910562E+03  0.00000000000E+00 0. -1.
          1    1    1    2  502    0  0.49538195553E+02 -0.54272555044E+02  0.29143320067E+04  0.29152582369E+04  0.00000000000E+00 0. -1.
         22    1    3    3    0    0 -0.98526219663E+02  0.13717096994E+03  0.44090381473E+03  0.47214347904E+03  0.00000000000E+00 0. -1.
         22    1    3    3    0    0  0.19209579009E+02 -0.13583059680E+02  0.49225211443E+02  0.54558490426E+02  0.00000000000E+00 0. -1.
</event>
<event>
 7    1  0.5957303E-006  0.6103890E+02  0.7818608E-02  0.1447540E+00
          2   -1    0    0  502    0  0.00000000000E+00  0.00000000000E+00  0.19188829500E+04  0.19188829500E+04  0.00000000000E+00 0. -1.
          1   -1    0    0  501    0 -0.00000000000E+00 -0.00000000000E+00 -0.19674555177E+03  0.19674555177E+03  0.00000000000E+00 0. -1.
         25    2    1    2    0    0  0.61337842546E+02 -0.22940538025E+01  0.44816917232E+02  0.14629467178E+03  0.12500392518E+03 0.  0.
          2    1    1    2  501    0 -0.14849317198E+02 -0.37460431484E+02 -0.14270272247E+03  0.14828301706E+03  0.00000000000E+00 0. -1.
          1    1    1    2  502    0 -0.46488525347E+02  0.39754485286E+02  0.18200232035E+04  0.18210508129E+04  0.00000000000E+00 0. -1.
         22    1    3    3    0    0  0.82024478645E+02  0.28707411443E+01  0.73758229409E+02  0.11034732737E+03  0.00000000000E+00 0. -1.
         22    1    3    3    0    0 -0.20686636099E+02 -0.51647949468E+01 -0.28941312178E+02  0.35947344415E+02  0.00000000000E+00 0. -1.
</event>
<event>
 7    1  0.5957303E-006  0.6613801E+02  0.7818608E-02  0.1486647E+00
          2   -1    0    0  502    0  0.00000000000E+00  0.00000000000E+00  0.21067737386E+03  0.21067737386E+03  0.00000000000E+00 0. -1.
          1   -1    0    0  501    0 -0.00000000000E+00 -0.00000000000E+00 -0.12511187145E+04  0.12511187145E+04  0.00000000000E+00 0. -1.
         25    2    1    2    0    0 -0.29052088669E+02 -0.41954252221E+02 -0.41320011890E+03  0.43470118550E+03  0.12500639696E+03 0.  0.
          2    1    1    2  501    0  0.15916877250E+02 -0.23121584499E+02 -0.82141043391E+03  0.82188992912E+03  0.00000000000E+00 0. -1.
          1    1    1    2  502    0  0.13135211419E+02  0.65075836720E+02  0.19416921216E+03  0.20520497376E+03  0.00000000000E+00 0. -1.
         22    1    3    3    0    0 -0.68619819054E+02 -0.34826951727E+02 -0.35935709541E+03  0.36750390223E+03  0.00000000000E+00 0.  1.
         22    1    3    3    0    0  0.39567730386E+02 -0.71273004940E+01 -0.53843023495E+02  0.67197283273E+02  0.00000000000E+00 0.  1.
</event>
<event>
 7    1  0.5957303E-006  0.8632873E+02  0.7818608E-02  0.1491638E+00
          2   -1    0    0  502    0  0.00000000000E+00  0.00000000000E+00  0.34659077843E+03  0.34659077843E+03  0.00000000000E+00 0. -1.
          1   -1    0    0  501    0 -0.00000000000E+00 -0.00000000000E+00 -0.11931807758E+04  0.11931807758E+04  0.00000000000E+00 0. -1.
         25    2    1    2    0    0  0.81280651430E+02  0.30864875008E+02 -0.37900682341E+03  0.40843725918E+03  0.12496254514E+03 0.  0.
          2    1    1    2  501    0 -0.10159838486E+02  0.18115018310E+02 -0.79370311583E+03  0.79397481842E+03  0.00000000000E+00 0. -1.
          1    1    1    2  502    0 -0.71120812944E+02 -0.48979893318E+02  0.32611994188E+03  0.33735947663E+03  0.00000000000E+00 0. -1.
         22    1    3    3    0    0 -0.22443780183E+02 -0.24112801566E+02 -0.11242809684E+03  0.11715471577E+03  0.00000000000E+00 0. -1.
         22    1    3    3    0    0  0.10372443161E+03  0.54977676573E+02 -0.26657872656E+03  0.29128254340E+03  0.00000000000E+00 0. -1.
</event>
<event>
 7    1  0.5957303E-006  0.4053697E+02  0.7818608E-02  0.1530574E+00
          2   -1    0    0  502    0  0.00000000000E+00  0.00000000000E+00  0.14995824958E+04  0.14995824958E+04  0.00000000000E+00 0. -1.
          1   -1    0    0  501    0 -0.00000000000E+00 -0.00000000000E+00 -0.15924836902E+02  0.15924836902E+02  0.00000000000E+00 0. -1.
         25    2    1    2    0    0  0.30944107838E+01  0.10224684096E+02  0.94025741648E+03  0.94858978090E+03  0.12499777450E+03 0.  0.
          2    1    1    2  501    0  0.14616699862E+02 -0.39228540578E+02  0.27922724252E+02  0.50321017879E+02  0.00000000000E+00 0. -1.
          1    1    1    2  502    0 -0.17711110646E+02  0.29003856482E+02  0.51547751820E+03  0.51659653396E+03  0.00000000000E+00 0. -1.
         22    1    3    3    0    0  0.31201196346E+01 -0.21423762186E+02  0.26212736714E+02  0.33997357232E+02  0.00000000000E+00 0. -1.
         22    1    3    3    0    0 -0.25708850725E-01  0.31648446282E+02  0.91404467977E+03  0.91459242367E+03  0.00000000000E+00 0. -1.
</event>
<event>
 7    1  0.5957303E-006  0.6889526E+02  0.7818608E-02  0.1457942E+00
          2   -1    0    0  502    0  0.00000000000E+00  0.00000000000E+00  0.54343362668E+03  0.54343362668E+03  0.00000000000E+00 0. -1.
          1   -1    0    0  501    0 -0.00000000000E+00 -0.00000000000E+00 -0.14897295117E+03  0.14897295117E+03  0.00000000000E+00 0. -1.
         25    2    1    2    0    0  0.11549347956E+02 -0.92391987736E+02  0.12494753374E+03  0.19976559469E+03  0.12499895919E+03 0.  0.
          2    1    1    2  501    0  0.95023476284E+01  0.66878763464E+02 -0.10053294300E+03  0.12111951223E+03  0.00000000000E+00 0. -1.
          1    1    1    2  502    0 -0.21051695584E+02  0.25513224271E+02  0.37004608478E+03  0.37152147093E+03  0.00000000000E+00 0. -1.
         22    1    3    3    0    0 -0.42772839565E+01 -0.87325494149E+02  0.15168888314E+02  0.88736307446E+02  0.00000000000E+00 0. -1.
         22    1    3    3    0    0  0.15826631912E+02 -0.50664935862E+01  0.10977864543E+03  0.11102928725E+03  0.00000000000E+00 0. -1.
</event>
<event>
 7    1  0.5957303E-006  0.1362613E+03  0.7818608E-02  0.1271416E+00
          2   -1    0    0  502    0  0.00000000000E+00  0.00000000000E+00  0.17593708631E+04  0.17593708631E+04  0.00000000000E+00 0. -1.
          1   -1    0    0  501    0 -0.00000000000E+00 -0.00000000000E+00 -0.56896910827E+03  0.56896910827E+03  0.00000000000E+00 0. -1.
         25    2    1    2    0    0  0.74736037083E+02  0.32108725714E+02  0.10100467901E+03  0.18012027760E+03  0.12499969487E+03 0.  0.
          2    1    1    2  501    0  0.65954021469E+02 -0.45108546833E+02 -0.52328989319E+03  0.52935529303E+03  0.00000000000E+00 0. -1.
          1    1    1    2  502    0 -0.14069005855E+03  0.12999821119E+02  0.16126869690E+04  0.16188644007E+04  0.00000000000E+00 0. -1.
         22    1    3    3    0    0  0.67547349861E+02 -0.34745247971E+02  0.28224275383E+02  0.81033859902E+02  0.00000000000E+00 0. -1.
         22    1    3    3    0    0  0.71886872228E+01  0.66853973685E+02  0.72780403623E+02  0.99086417702E+02  0.00000000000E+00 0. -1.
</event>
<event>
 7    1  0.5957303E-006  0.6873105E+02  0.7818608E-02  0.1468559E+00
          2   -1    0    0  502    0  0.00000000000E+00  0.00000000000E+00  0.97177858243E+03  0.97177858243E+03  0.00000000000E+00 0. -1.
          1   -1    0    0  501    0 -0.00000000000E+00 -0.00000000000E+00 -0.25520873436E+03  0.25520873436E+03  0.00000000000E+00 0. -1.
         25    2    1    2    0    0  0.84501856912E+02 -0.39848413052E+02 -0.14649097140E+02  0.15678853080E+03  0.12505833638E+03 0.  0.
          2    1    1    2  501    0 -0.17726242933E+02  0.25072785257E+02 -0.16678817971E+03  0.16959115879E+03  0.00000000000E+00 0. -1.
          1    1    1    2  502    0 -0.66775613978E+02  0.14775627796E+02  0.89800712491E+03  0.90060762721E+03  0.00000000000E+00 0. -1.
         22    1    3    3    0    0  0.10576147020E+02  0.43083741955E+02  0.22140463025E+01  0.44418078612E+02  0.00000000000E+00 0.  1.
         22    1    3    3    0    0  0.73925709892E+02 -0.82932155007E+02 -0.16863143443E+02  0.11237045218E+03  0.00000000000E+00 0.  1.
</event>
<event>
 7    1  0.5957303E-006  0.1564114E+03  0.7818608E-02  0.1328093E+00
          2   -1    0    0  502    0  0.00000000000E+00  0.00000000000E+00  0.16375791124E+04  0.16375791124E+04  0.00000000000E+00 0. -1.
          1   -1    0    0  501    0 -0.00000000000E+00 -0.00000000000E+00 -0.42719070593E+03  0.42719070593E+03  0.00000000000E+00 0. -1.
         25    2    1    2    0    0 -0.10612229102E+03  0.47275802496E+02 -0.18973374560E+03  0.25518543146E+03  0.12499507214E+03 0.  0.
          2    1    1    2  501    0 -0.39755250322E+02  0.11059928818E+02 -0.19876176049E+03  0.20300009701E+03  0.00000000000E+00 0. -1.
          1    1    1    2  502    0  0.14587754134E+03 -0.58335731314E+02  0.15988839125E+04  0.16065842898E+04  0.00000000000E+00 0. -1.
         22    1    3    3    0    0  0.12560154876E+02 -0.27530997410E+02 -0.37005734814E+02  0.47803114104E+02  0.00000000000E+00 0. -1.
         22    1    3    3    0    0 -0.11868244590E+03  0.74806799906E+02 -0.15272801078E+03  0.20738231736E+03  0.00000000000E+00 0. -1.
</event>
<event>
 7    1  0.5957303E-006  0.1130516E+03  0.7818608E-02  0.1400309E+00
          2   -1    0    0  502    0  0.00000000000E+00  0.00000000000E+00  0.36502996543E+03  0.36502996543E+03  0.00000000000E+00 0. -1.
          1   -1    0    0  501    0 -0.00000000000E+00 -0.00000000000E+00 -0.19710950349E+04  0.19710950349E+04  0.00000000000E+00 0. -1.
         25    2    1    2    0    0  0.43481454702E+02 -0.10435226453E+03  0.65736521524E+02  0.18090993730E+03  0.12500833227E+03 0.  0.
          2    1    1    2  501    0 -0.13292158739E+02  0.11232554176E+03 -0.19108204956E+04  0.19141652685E+04  0.00000000000E+00 0. -1.
          1    1    1    2  502    0 -0.30189295963E+02 -0.79732772285E+01  0.23901890454E+03  0.24104979458E+03  0.00000000000E+00 0. -1.
         22    1    3    3    0    0  0.17889494017E+02  0.22431852966E+02 -0.10757073430E+02  0.30642073240E+02  0.00000000000E+00 0.  1.
         22    1    3    3    0    0  0.25591960686E+02 -0.12678411749E+03  0.76493594953E+02  0.15026786406E+03  0.00000000000E+00 0.  1.
</event>
<event>
 7    1  0.5957303E-006  0.8007721E+02  0.7818608E-02  0.1331414E+00
          2   -1    0    0  502    0  0.00000000000E+00  0.00000000000E+00  0.13990134249E+04  0.13990134249E+04  0.00000000000E+00 0. -1.
          1   -1    0    0  501    0 -0.00000000000E+00 -0.00000000000E+00 -0.79958651087E+02  0.79958651087E+02  0.00000000000E+00 0. -1.
         25    2    1    2    0    0 -0.89687191773E+02  0.25754950206E+02  0.27392122257E+03  0.31522137435E+03  0.12499827536E+03 0.  0.
          2    1    1    2  501    0  0.26983739525E+02 -0.75560939134E+02 -0.29984778122E+02  0.85654332294E+02  0.00000000000E+00 0. -1.
          1    1    1    2  502    0  0.62703452248E+02  0.49805988928E+02  0.10751183294E+04  0.10780963693E+04  0.00000000000E+00 0. -1.
         22    1    3    3    0    0 -0.11034385244E+02  0.43513448658E+02  0.20627541749E+02  0.49403171462E+02  0.00000000000E+00 0.  1.
         22    1    3    3    0    0 -0.78652806529E+02 -0.17758498452E+02  0.25329368082E+03  0.26581820289E+03  0.00000000000E+00 0.  1.
</event>
<event>
 7    1  0.5957303E-006  0.1918232E+03  0.7818608E-02  0.1276818E+00
          2   -1    0    0  502    0  0.00000000000E+00  0.00000000000E+00  0.25999333281E+04  0.25999333281E+04  0.00000000000E+00 0. -1.
          1   -1    0    0  501    0 -0.00000000000E+00 -0.00000000000E+00 -0.22267494710E+03  0.22267494710E+03  0.00000000000E+00 0. -1.
         25    2    1    2    0    0 -0.16237363990E+03 -0.50867223438E+02  0.19541544268E+03  0.28767910398E+03  0.12497759108E+03 0.  0.
          2    1    1    2  501    0 -0.31678118834E+02  0.43595746428E+02 -0.16833075798E+03  0.17674653152E+03  0.00000000000E+00 0. -1.
          1    1    1    2  502    0  0.19405175874E+03  0.72714770094E+01  0.23501736963E+04  0.23581826397E+04  0.00000000000E+00 0. -1.
         22    1    3    3    0    0 -0.91118137520E+02 -0.87771355816E+02  0.90305927348E+02  0.15543965518E+03  0.00000000000E+00 0.  1.
         22    1    3    3    0    0 -0.71255502385E+02  0.36904132378E+02  0.10510951534E+03  0.13223944881E+03  0.00000000000E+00 0.  1.
</event>
<event>
 7    1  0.5957303E-006  0.8216467E+02  0.7818608E-02  0.1426511E+00
          2   -1    0    0  502    0  0.00000000000E+00  0.00000000000E+00  0.49609912213E+03  0.49609912213E+03  0.00000000000E+00 0. -1.
          1   -1    0    0  501    0 -0.00000000000E+00 -0.00000000000E+00 -0.17740965172E+04  0.17740965172E+04  0.00000000000E+00 0. -1.
         25    2    1    2    0    0  0.75490123839E+02  0.21589134823E+02  0.11095939912E+03  0.18466838069E+03  0.12500229211E+03 0.  0.
          2    1    1    2  501    0 -0.81203824744E+02  0.12995154813E+02 -0.17353838514E+04  0.17373313003E+04  0.00000000000E+00 0. -1.
          1    1    1    2  502    0  0.57137009057E+01 -0.34584289637E+02  0.34642705720E+03  0.34819595838E+03  0.00000000000E+00 0. -1.
         22    1    3    3    0    0  0.94524305459E+02 -0.23666034032E+02  0.84045383000E+02  0.12868003689E+03  0.00000000000E+00 0.  1.
         22    1    3    3    0    0 -0.19034181621E+02  0.45255168855E+02  0.26914016117E+02  0.55988343801E+02  0.00000000000E+00 0.  1.
</event>
<event>
 7    1  0.5957303E-006  0.1142468E+03  0.7818608E-02  0.1364435E+00
          2   -1    0    0  502    0  0.00000000000E+00  0.00000000000E+00  0.68682155970E+03  0.68682155970E+03  0.00000000000E+00 0. -1.
          1   -1    0    0  501    0 -0.00000000000E+00 -0.00000000000E+00 -0.15157059807E+03  0.15157059807E+03  0.00000000000E+00 0. -1.
         25    2    1    2    0    0  0.61233863801E+02  0.44868851245E+02 -0.23149908925E+02  0.14807365084E+03  0.12500835133E+03 0.  0.
          2    1    1    2  501    0  0.27801057782E+02  0.30620076277E+02 -0.53365272365E+02  0.67515481037E+02  0.00000000000E+00 0. -1.
          1    1    1    2  502    0 -0.89034921583E+02 -0.75488927522E+02  0.61176614292E+03  0.62280302590E+03  0.00000000000E+00 0. -1.
         22    1    3    3    0    0  0.25194610067E+02  0.70554970309E+02 -0.55515334975E+02  0.93245507286E+02  0.00000000000E+00 0. -1.
         22    1    3    3    0    0  0.36039253734E+02 -0.25686119063E+02  0.32365426050E+02  0.54828143554E+02  0.00000000000E+00 0. -1.
</event>
<event>
 7    1  0.5957303E-006  0.1080638E+03  0.7818608E-02  0.1276199E+00
          2   -1    0    0  502    0  0.00000000000E+00  0.00000000000E+00  0.11121875068E+04  0.11121875068E+04  0.00000000000E+00 0. -1.
          1   -1    0    0  501    0 -0.00000000000E+00 -0.00000000000E+00 -0.50556506257E+03  0.50556506257E+03  0.00000000000E+00 0. -1.
         25    2    1    2    0    0 -0.30820554767E+02  0.28276712861E+02 -0.60616981718E+02  0.14508928225E+03  0.12500800880E+03 0.  0.
          2    1    1    2  501    0  0.94969913721E+02  0.58686783463E+02 -0.39217298492E+03  0.40775369178E+03  0.00000000000E+00 0. -1.
          1    1    1    2  502    0 -0.64149358953E+02 -0.86963496324E+02  0.10594124109E+04  0.10649095953E+04  0.00000000000E+00 0. -1.
         22    1    3    3    0    0 -0.65811335331E+02 -0.19947137834E+02 -0.15867457417E+02  0.70574757320E+02  0.00000000000E+00 0. -1.
         22    1    3    3    0    0  0.34990780564E+02  0.48223850695E+02 -0.44749524301E+02  0.74514524930E+02  0.00000000000E+00 0. -1.
</event>
<event>
 7    1  0.5957303E-006  0.6489710E+02  0.7818608E-02  0.1516174E+00
          2   -1    0    0  502    0  0.00000000000E+00  0.00000000000E+00  0.19594066217E+03  0.19594066217E+03  0.00000000000E+00 0. -1.
          1   -1    0    0  501    0 -0.00000000000E+00 -0.00000000000E+00 -0.10076711588E+04  0.10076711588E+04  0.00000000000E+00 0. -1.
         25    2    1    2    0    0  0.38871157705E+01  0.44732760510E+02 -0.11293579180E+03  0.17434598836E+03  0.12500360418E+03 0.  0.
          2    1    1    2  501    0  0.14138404812E+02  0.18599231716E+02 -0.85730468468E+03  0.85762296394E+03  0.00000000000E+00 0. -1.
          1    1    1    2  502    0 -0.18025520582E+02 -0.63331992226E+02  0.15850997988E+03  0.17164286863E+03  0.00000000000E+00 0. -1.
         22    1    3    3    0    0  0.18109500270E+02  0.61523923834E+02 -0.13101271790E+03  0.14586802067E+03  0.00000000000E+00 0. -1.
         22    1    3    3    0    0 -0.14222384500E+02 -0.16791163323E+02  0.18076926101E+02  0.28477967692E+02  0.00000000000E+00 0. -1.
</event>
<event>
 7    1  0.5957303E-006  0.4551099E+02  0.7818608E-02  0.1499197E+00
          2   -1    0    0  502    0  0.00000000000E+00  0.00000000000E+00  0.13396760294E+03  0.13396760294E+03  0.00000000000E+00 0. -1.
          1   -1    0    0  501    0 -0.00000000000E+00 -0.00000000000E+00 -0.14466398700E+04  0.14466398700E+04  0.00000000000E+00 0. -1.
         25    2    1    2    0    0  0.60559551262E+02  0.33663092909E+02 -0.64525602002E+03  0.66089445242E+03  0.12500193114E+03 0.  0.
          2    1    1    2  501    0 -0.37029816504E+02  0.51851213540E+01 -0.78901939307E+03  0.78990486480E+03  0.00000000000E+00 0. -1.
          1    1    1    2  502    0 -0.23529734758E+02 -0.38848214263E+02  0.12160314603E+03  0.12980815573E+03  0.00000000000E+00 0. -1.
         22    1    3    3    0    0 -0.14659737668E+02 -0.29442249849E+02 -0.30461893545E+03  0.30638937615E+03  0.00000000000E+00 0. -1.
         22    1    3    3    0    0  0.75219288930E+02  0.63105342758E+02 -0.34063708457E+03  0.35450507627E+03  0.00000000000E+00 0. -1.
</event>
<event>
 7    1  0.5957303E-006  0.7173975E+02  0.7818608E-02  0.1396127E+00
          2   -1    0    0  502    0  0.00000000000E+00  0.00000000000E+00  0.59705771652E+03  0.59705771652E+03  0.00000000000E+00 0. -1.
          1   -1    0    0  501    0 -0.00000000000E+00 -0.00000000000E+00 -0.17274266968E+03  0.17274266968E+03  0.00000000000E+00 0. -1.
         25    2    1    2    0    0  0.73142504275E+01 -0.60827167794E+02  0.29827385742E+03  0.32915974481E+03  0.12500160392E+03 0.  0.
          2    1    1    2  501    0  0.43472705156E+02  0.57986227743E+02 -0.14647206832E+03  0.16342076215E+03  0.00000000000E+00 0. -1.
          1    1    1    2  502    0 -0.50786955584E+02  0.28409400512E+01  0.27251325774E+03  0.27721987924E+03  0.00000000000E+00 0. -1.
         22    1    3    3    0    0 -0.33644567335E+02 -0.19799651017E+02  0.18062867529E+02  0.43014535624E+02  0.00000000000E+00 0. -1.
         22    1    3    3    0    0  0.40958817763E+02 -0.41027516777E+02  0.28021098989E+03  0.28614520919E+03  0.00000000000E+00 0. -1.
</event>
<event>
 7    1  0.5957303E-006  0.8341929E+02  0.7818608E-02  0.1402142E+00
          2   -1    0    0  502    0  0.00000000000E+00  0.00000000000E+00  0.20517745378E+03  0.20517745378E+03  0.00000000000E+00 0. -1.
          1   -1    0    0  501    0 -0.00000000000E+00 -0.00000000000E+00 -0.38785904192E+03  0.38785904192E+03  0.00000000000E+00 0. -1.
         25    2    1    2    0    0 -0.54776528127E+02 -0.10687995282E+03 -0.10334475482E+03  0.20181511244E+03  0.12500163563E+03 0.  0.
          2    1    1    2  501    0  0.37812602508E+02  0.68778406829E+02 -0.22573888821E+03  0.23899436773E+03  0.00000000000E+00 0. -1.
          1    1    1    2  502    0  0.16963925619E+02  0.38101545992E+02  0.14640205490E+03  0.15222701553E+03  0.00000000000E+00 0. -1.
         22    1    3    3    0    0  0.25213291103E+02 -0.23861684365E+02 -0.75674440294E+02  0.83256897268E+02  0.00000000000E+00 0.  1.
         22    1    3    3    0    0 -0.79989819230E+02 -0.83018268456E+02 -0.27670314525E+02  0.11855821517E+03  0.00000000000E+00 0.  1.
</event>
<event>
 7    1  0.5957303E-006  0.2204675E+03  0.7818608E-02  0.1223464E+00
          2   -1    0    0  502    0  0.00000000000E+00  0.00000000000E+00  0.14420484999E+04  0.14420484999E+04  0.00000000000E+00 0. -1.
          1   -1    0    0  501    0 -0.00000000000E+00 -0.00000000000E+00 -0.10905677409E+04  0.10905677409E+04  0.00000000000E+00 0. -1.
         25    2    1    2    0    0  0.10462139514E+03 -0.12403513701E+03 -0.16046988719E+03  0.26020533569E+03  0.12500352193E+03 0.  0.
          2    1    1    2  501    0 -0.17191074348E+03  0.16712763871E+03 -0.86272172551E+03  0.89541818555E+03  0.00000000000E+00 0. -1.
          1    1    1    2  502    0  0.67289348336E+02 -0.43092501697E+02  0.13746723717E+04  0.13769927196E+04  0.00000000000E+00 0. -1.
         22    1    3    3    0    0 -0.11313747913E+02 -0.64897809114E+02 -0.91979645433E+02  0.11313700409E+03  0.00000000000E+00 0.  1.
         22    1    3    3    0    0  0.11593514305E+03 -0.59137327896E+02 -0.68490241754E+02  0.14706833161E+03  0.00000000000E+00 0.  1.
</event>
<event>
 7    1  0.5957303E-006  0.1490801E+03  0.7818608E-02  0.1282606E+00
          2   -1    0    0  502    0  0.00000000000E+00  0.00000000000E+00  0.11400445226E+04  0.11400445226E+04  0.00000000000E+00 0. -1.
          1   -1    0    0  501    0 -0.00000000000E+00 -0.00000000000E+00 -0.12023323250E+03  0.12023323250E+03  0.00000000000E+00 0. -1.
         25    2    1    2    0    0 -0.15271342500E+03 -0.24272148612E+02  0.15337384255E+03  0.25111604283E+03  0.12500081605E+03 0.  0.
          2    1    1    2  501    0  0.83981858513E+01  0.65083481522E+02 -0.48761314240E+02  0.81756069249E+02  0.00000000000E+00 0. -1.
          1    1    1    2  502    0  0.14431523915E+03 -0.40811332910E+02  0.91519876182E+03  0.92740564306E+03  0.00000000000E+00 0. -1.
         22    1    3    3    0    0 -0.64671269060E+01 -0.29034166171E+02  0.84133047074E+02  0.89236630067E+02  0.00000000000E+00 0.  1.
         22    1    3    3    0    0 -0.14624629810E+03  0.47620175592E+01  0.69240795480E+02  0.16187941277E+03  0.00000000000E+00 0.  1.
</event>
<event>
 7    1  0.5957303E-006  0.2864942E+03  0.7818608E-02  0.1244362E+00
          2   -1    0    0  502    0  0.00000000000E+00  0.00000000000E+00  0.60496585736E+03  0.60496585736E+03  0.00000000000E+00 0. -1.
          1   -1    0    0  501    0 -0.00000000000E+00 -0.00000000000E+00 -0.29720726823E+03  0.29720726823E+03  0.00000000000E+00 0. -1.
         25    2    1    2    0    0 -0.29690776072E+03 -0.62381829154E+02 -0.64589416641E+02  0.33441717995E+03  0.12496938234E+03 0.  0.
          2    1    1    2  501    0  0.26325171342E+03  0.25913390824E+02  0.87504087228E+02  0.27862148826E+03  0.00000000000E+00 0. -1.
          1    1    1    2  502    0  0.33656047301E+02  0.36468438330E+02  0.28484391853E+03  0.28913445737E+03  0.00000000000E+00 0. -1.
         22    1    3    3    0    0 -0.29779456375E+03 -0.36620892840E+02 -0.48234482086E+02  0.30389020592E+03  0.00000000000E+00 0.  1.
         22    1    3    3    0    0  0.88680303138E+00 -0.25760936314E+02 -0.16354934555E+02  0.30526974035E+02  0.00000000000E+00 0.  1.
</event>
<event>
 7    1  0.5957303E-006  0.9257670E+02  0.7818608E-02  0.1477808E+00
          2   -1    0    0  502    0  0.00000000000E+00  0.00000000000E+00  0.90204530778E+03  0.90204530778E+03  0.00000000000E+00 0. -1.
          1   -1    0    0  501    0 -0.00000000000E+00 -0.00000000000E+00 -0.10310421074E+04  0.10310421074E+04  0.00000000000E+00 0. -1.
         25    2    1    2    0    0  0.25797076217E+01  0.71746180796E+02 -0.25213438281E+03  0.29043213986E+03  0.12499964607E+03 0.  0.
          2    1    1    2  501    0  0.52443471490E+01  0.20687438430E+02 -0.75717143818E+03  0.75747215136E+03  0.00000000000E+00 0. -1.
          1    1    1    2  502    0 -0.78240547707E+01 -0.92433619226E+02  0.88030902138E+03  0.88518312395E+03  0.00000000000E+00 0. -1.
         22    1    3    3    0    0  0.41185479633E+02  0.41314314152E+02 -0.22860936220E+03  0.23593506898E+03  0.00000000000E+00 0. -1.
         22    1    3    3    0    0 -0.38605772011E+02  0.30431866644E+02 -0.23525020608E+02  0.54497070881E+02  0.00000000000E+00 0. -1.
</event>
<event>
 7    1  0.5957303E-006  0.1134136E+03  0.7818608E-02  0.1300045E+00
          2   -1    0    0  502    0  0.00000000000E+00  0.00000000000E+00  0.65641881899E+03  0.65641881899E+03  0.00000000000E+00 0. -1.
          1   -1    0    0  501    0 -0.00000000000E+00 -0.00000000000E+00 -0.50235309309E+03  0.50235309309E+03  0.00000000000E+00 0. -1.
         25    2    1    2    0    0  0.40328260455E+02 -0.14774774069E+03 -0.11248837606E+03  0.22745158565E+03  0.12499930238E+03 0.  0.
          2    1    1    2  501    0 -0.72338387753E+02  0.81820281983E+02 -0.32107387756E+03  0.33913984687E+03  0.00000000000E+00 0. -1.
          1    1    1    2  502    0  0.32010127297E+02  0.65927458703E+02  0.58762797951E+03  0.59218047956E+03  0.00000000000E+00 0. -1.
         22    1    3    3    0    0 -0.14726143862E+02 -0.12277329931E+03 -0.33739463412E+02  0.12817368579E+03  0.00000000000E+00 0.  1.
         22    1    3    3    0    0  0.55054404317E+02 -0.24974441373E+02 -0.78748912651E+02  0.99277899859E+02  0.00000000000E+00 0.  1.
</event>
<event>
 7    1  0.5957303E-006  0.1067591E+03  0.7818608E-02  0.1360308E+00
          2   -1    0    0  502    0  0.00000000000E+00  0.00000000000E+00  0.99588791543E+03  0.99588791543E+03  0.00000000000E+00 0. -1.
          1   -1    0    0  501    0 -0.00000000000E+00 -0.00000000000E+00 -0.36569008881E+03  0.36569008881E+03  0.00000000000E+00 0. -1.
         25    2    1    2    0    0  0.75321276441E+02 -0.61683596239E+01  0.32236721122E+03  0.35391677428E+03  0.12500048359E+03 0.  0.
          2    1    1    2  501    0  0.37775135315E+02 -0.25923564699E+02 -0.34312751582E+03  0.34617262192E+03  0.00000000000E+00 0. -1.
          1    1    1    2  502    0 -0.11309641176E+03  0.32091924323E+02  0.65095813122E+03  0.66148860803E+03  0.00000000000E+00 0. -1.
         22    1    3    3    0    0  0.66978556905E+01 -0.42780626806E+02  0.33460654895E+02  0.54723475098E+02  0.00000000000E+00 0.  1.
         22    1    3    3    0    0  0.68623420750E+02  0.36612267182E+02  0.28890655633E+03  0.29919329918E+03  0.00000000000E+00 0.  1.
</event>
<event>
 7    1  0.5957303E-006  0.1221520E+03  0.7818608E-02  0.1307332E+00
          2   -1    0    0  502    0  0.00000000000E+00  0.00000000000E+00  0.25058180579E+04  0.25058180579E+04  0.00000000000E+00 0. -1.
          1   -1    0    0  501    0 -0.00000000000E+00 -0.00000000000E+00 -0.20163160276E+02  0.20163160276E+02  0.00000000000E+00 0. -1.
         25    2    1    2    0    0 -0.78351752777E+02 -0.31441003951E+02  0.36944122059E+03  0.39904809504E+03  0.12500013116E+03 0.  0.
          2    1    1    2  501    0 -0.50701655474E+02  0.38478171093E+02  0.33211524719E+03  0.33815937801E+03  0.00000000000E+00 0. -1.
          1    1    1    2  502    0  0.12905340825E+03 -0.70371671418E+01  0.17840984298E+04  0.17887737451E+04  0.00000000000E+00 0. -1.
         22    1    3    3    0    0 -0.10240216696E+03 -0.40188881437E+02  0.20521855189E+03  0.23284330360E+03  0.00000000000E+00 0. -1.
         22    1    3    3    0    0  0.24050414185E+02  0.87478774863E+01  0.16422266870E+03  0.16620479144E+03  0.00000000000E+00 0. -1.
</event>
<event>
 7    1  0.5957303E-006  0.7828916E+02  0.7818608E-02  0.1337134E+00
          2   -1    0    0  502    0  0.00000000000E+00  0.00000000000E+00  0.13573332343E+04  0.13573332343E+04  0.00000000000E+00 0. -1.
          1   -1    0    0  501    0 -0.00000000000E+00 -0.00000000000E+00 -0.25800463265E+03  0.25800463265E+03  0.00000000000E+00 0. -1.
         25    2    1    2    0    0  0.61125180734E+02 -0.74242801021E+01  0.13243951245E+03  0.19223935390E+03  0.12499734827E+03 0.  0.
          2    1    1    2  501    0 -0.21885296193E+02  0.75169563368E+02 -0.22005918271E+03  0.23357113122E+03  0.00000000000E+00 0. -1.
          1    1    1    2  502    0 -0.39239884541E+02 -0.67745283266E+02  0.11869482719E+04  0.11895273818E+04  0.00000000000E+00 0. -1.
         22    1    3    3    0    0  0.52546140744E+02 -0.50547695110E+02  0.26569621329E+02  0.77602262631E+02  0.00000000000E+00 0.  1.
         22    1    3    3    0    0  0.85790399910E+01  0.43123415008E+02  0.10586989112E+03  0.11463709127E+03  0.00000000000E+00 0.  1.
</event>
<event>
 7    1  0.5957303E-006  0.1203316E+03  0.7818608E-02  0.1260686E+00
          2   -1    0    0  502    0  0.00000000000E+00  0.00000000000E+00  0.33359304318E+04  0.33359304318E+04  0.00000000000E+00 0. -1.
          1   -1    0    0  501    0 -0.00000000000E+00 -0.00000000000E+00 -0.61872604576E+03  0.61872604576E+03  0.00000000000E+00 0. -1.
         25    2    1    2    0    0  0.18714500522E+03 -0.58276323389E+02  0.16424096181E+04  0.16587806750E+04  0.12499836512E+03 0.  0.
          2    1    1    2  501    0 -0.11910590660E+03 -0.15608943324E+02 -0.60311553960E+03  0.61496195834E+03  0.00000000000E+00 0. -1.
          1    1    1    2  502    0 -0.68039098620E+02  0.73885266713E+02  0.16779103075E+04  0.16809138442E+04  0.00000000000E+00 0. -1.
         22    1    3    3    0    0  0.18247398980E+03 -0.83771781137E+02  0.15445780458E+04  0.15575736926E+04  0.00000000000E+00 0. -1.
         22    1    3    3    0    0  0.46710154167E+01  0.25495457748E+02  0.97831572296E+02  0.10120698241E+03  0.00000000000E+00 0. -1.
</event>
<event>
 7    1  0.5957303E-006  0.1151882E+03  0.7818608E-02  0.1317073E+00
          2   -1    0    0  502    0  0.00000000000E+00  0.00000000000E+00  0.31581556548E+03  0.31581556548E+03  0.00000000000E+00 0. -1.
          1   -1    0    0  501    0 -0.00000000000E+00 -0.00000000000E+00 -0.35457679697E+03  0.35457679697E+03  0.00000000000E+00 0. -1.
         25    2    1    2    0    0 -0.11444218447E+03  0.98039513715E+02  0.61533020356E+02  0.20523237052E+03  0.12500101392E+03 0.  0.
          2    1    1    2  501    0  0.61733303595E+02 -0.29902635619E+01 -0.26262757933E+03  0.26980212726E+03  0.00000000000E+00 0. -1.
          1    1    1    2  502    0  0.52708880872E+02 -0.95049250153E+02  0.16233332748E+03  0.19535786467E+03  0.00000000000E+00 0. -1.
         22    1    3    3    0    0 -0.12056849124E+03  0.96550148690E+02  0.11594180184E+02  0.15489711846E+03  0.00000000000E+00 0.  1.
         22    1    3    3    0    0  0.61263067715E+01  0.14893650253E+01  0.49938840172E+02  0.50335252066E+02  0.00000000000E+00 0.  1.
</event>
<event>
 7    1  0.5957303E-006  0.6310453E+02  0.7818608E-02  0.1426597E+00
          2   -1    0    0  502    0  0.00000000000E+00  0.00000000000E+00  0.15243120213E+03  0.15243120213E+03  0.00000000000E+00 0. -1.
          1   -1    0    0  501    0 -0.00000000000E+00 -0.00000000000E+00 -0.94580849900E+03  0.94580849900E+03  0.00000000000E+00 0. -1.
         25    2    1    2    0    0  0.62617847607E+02  0.51711469767E+01 -0.28371094176E+02  0.14274967266E+03  0.12499925783E+03 0.  0.
          2    1    1    2  501    0 -0.10721599427E+02 -0.44332670085E+02 -0.84846874776E+03  0.84969380030E+03  0.00000000000E+00 0. -1.
          1    1    1    2  502    0 -0.51896248181E+02  0.39161523108E+02  0.83462545069E+02  0.10579622818E+03  0.00000000000E+00 0. -1.
         22    1    3    3    0    0  0.10107957186E+03  0.17734689556E+01 -0.23885420214E+02  0.10387847870E+03  0.00000000000E+00 0. -1.
         22    1    3    3    0    0 -0.38461724251E+02  0.33976780211E+01 -0.44856739623E+01  0.38871193951E+02  0.00000000000E+00 0. -1.
</event>
<event>
 7    1  0.5957303E-006  0.1530023E+03  0.7818608E-02  0.1402736E+00
          2   -1    0    0  502    0  0.00000000000E+00  0.00000000000E+00  0.13895049042E+04  0.13895049042E+04  0.00000000000E+00 0. -1.
          1   -1    0    0  501    0 -0.00000000000E+00 -0.00000000000E+00 -0.12388487212E+04  0.12388487212E+04  0.00000000000E+00 0. -1.
         25    2    1    2    0    0  0.61394588526E+02 -0.16012319725E+03  0.24138901777E+03  0.32140619840E+03  0.12499821068E+03 0.  0.
          2    1    1    2  501    0 -0.43401134144E+02  0.14639360953E+03 -0.11938616401E+04  0.12035864585E+04  0.00000000000E+00 0. -1.
          1    1    1    2  502    0 -0.17993454382E+02  0.13729587722E+02  0.11031288053E+04  0.11033609686E+04  0.00000000000E+00 0. -1.
         22    1    3    3    0    0  0.88444634468E+02 -0.58121314210E+02  0.13523803761E+03  0.17172614055E+03  0.00000000000E+00 0. -1.
         22    1    3    3    0    0 -0.27050045942E+02 -0.10200188304E+03  0.10615098016E+03  0.14968005785E+03  0.00000000000E+00 0. -1.
</event>
<event>
 7    1  0.5957303E-006  0.3829478E+02  0.7818608E-02  0.1547350E+00
          2   -1    0    0  502    0  0.00000000000E+00  0.00000000000E+00  0.54436421740E+02  0.54436421740E+02  0.00000000000E+00 0. -1.
          1   -1    0    0  501    0 -0.00000000000E+00 -0.00000000000E+00 -0.12444858892E+04  0.12444858892E+04  0.00000000000E+00 0. -1.
         25    2    1    2    0    0 -0.44941637715E+01  0.75249457429E+01 -0.32386650881E+03  0.34726308315E+03  0.12500124427E+03 0.  0.
          2    1    1    2  501    0  0.67149340275E+01  0.31540530264E+02 -0.89961529740E+03  0.90019307857E+03  0.00000000000E+00 0. -1.
          1    1    1    2  502    0 -0.22207702560E+01 -0.39065476007E+02  0.33432338785E+02  0.51466149193E+02  0.00000000000E+00 0. -1.
         22    1    3    3    0    0  0.22953769233E+02  0.54476858362E+02 -0.93944430783E+02  0.11099621477E+03  0.00000000000E+00 0. -1.
         22    1    3    3    0    0 -0.27447933004E+02 -0.46951912619E+02 -0.22992207803E+03  0.23626686837E+03  0.00000000000E+00 0. -1.
</event>
<event>
 7    1  0.5957303E-006  0.1127795E+03  0.7818608E-02  0.1420793E+00
          2   -1    0    0  502    0  0.00000000000E+00  0.00000000000E+00  0.51755772599E+03  0.51755772599E+03  0.00000000000E+00 0. -1.
          1   -1    0    0  501    0 -0.00000000000E+00 -0.00000000000E+00 -0.13850277136E+04  0.13850277136E+04  0.00000000000E+00 0. -1.
         25    2    1    2    0    0  0.10865372054E+03  0.22132600843E+02  0.75050587536E+02  0.18317421705E+03  0.12499888038E+03 0.  0.
          2    1    1    2  501    0 -0.10215310904E+03 -0.48008133292E+02 -0.13281111140E+04  0.13328987844E+04  0.00000000000E+00 0. -1.
          1    1    1    2  502    0 -0.65006114966E+01  0.25875532448E+02  0.38559053885E+03  0.38651243806E+03  0.00000000000E+00 0. -1.
         22    1    3    3    0    0  0.28191400934E+02 -0.46440767940E+02  0.51512140531E+02  0.74866552182E+02  0.00000000000E+00 0. -1.
         22    1    3    3    0    0  0.80462319602E+02  0.68573368783E+02  0.23538447005E+02  0.10830766487E+03  0.00000000000E+00 0. -1.
</event>
<event>
 7    1  0.5957303E-006  0.1107619E+03  0.7818608E-02  0.1393188E+00
          2   -1    0    0  502    0  0.00000000000E+00  0.00000000000E+00  0.19992142623E+03  0.19992142623E+03  0.00000000000E+00 0. -1.
          1   -1    0    0  501    0 -0.00000000000E+00 -0.00000000000E+00 -0.60919831831E+03  0.60919831831E+03  0.00000000000E+00 0. -1.
         25    2    1    2    0    0 -0.90255190879E+02  0.78271386122E+01 -0.28777539293E+03  0.32656972727E+03  0.12500338560E+03 0.  0.
          2    1    1    2  501    0  0.12320879992E+03 -0.15011715895E+02 -0.28750590729E+03  0.31315396648E+03  0.00000000000E+00 0. -1.
          1    1    1    2  502    0 -0.32953609044E+02  0.71845772826E+01  0.16600440815E+03  0.16939605079E+03  0.00000000000E+00 0. -1.
         22    1    3    3    0    0 -0.13671788869E+02  0.17846620682E+02 -0.22747241747E+03  0.22858066495E+03  0.00000000000E+00 0. -1.
         22    1    3    3    0    0 -0.76583402010E+02 -0.10019482069E+02 -0.60302975465E+02  0.97989062320E+02  0.00000000000E+00 0. -1.
</event>
<event>
 7    1  0.5957303E-006  0.1065176E+03  0.7818608E-02  0.1365437E+00
          2   -1    0    0  502    0  0.00000000000E+00  0.00000000000E+00  0.62841801381E+02  0.62841801381E+02  0.00000000000E+00 0. -1.
          1   -1    0    0  501    0 -0.00000000000E+00 -0.00000000000E+00 -0.21905561693E+04  0.21905561693E+04  0.00000000000E+00 0. -1.
         25    2    1    2    0    0  0.36993920209E+02 -0.10353123539E+03 -0.10417443429E+04  0.10549615204E+04  0.12500106651E+03 0.  0.
          2    1    1    2  501    0 -0.43886271097E+02 -0.30159159298E+01 -0.10906761867E+04  0.10915629367E+04  0.00000000000E+00 0. -1.
          1    1    1    2  502    0  0.68923508881E+01  0.10654715132E+03  0.47061616872E+01  0.10687351362E+03  0.00000000000E+00 0. -1.
         22    1    3    3    0    0  0.53755173878E+02 -0.10521926936E+03 -0.10228337154E+04  0.10296356262E+04  0.00000000000E+00 0.  1.
         22    1    3    3    0    0 -0.16761253669E+02  0.16880339627E+01 -0.18910627541E+02  0.25325894203E+02  0.00000000000E+00 0.  1.
</event>
<event>
 7    1  0.5957303E-006  0.4331503E+02  0.7818608E-02  0.1485897E+00
          2   -1    0    0  502    0  0.00000000000E+00  0.00000000000E+00  0.65903772443E+03  0.65903772443E+03  0.00000000000E+00 0. -1.
          1   -1    0    0  501    0 -0.00000000000E+00 -0.00000000000E+00 -0.37910505198E+03  0.37910505198E+03  0.00000000000E+00 0. -1.
         25    2    1    2    0    0  0.29575313202E+02 -0.31088510558E+02 -0.97924981367E+02  0.16448679049E+03  0.12500163051E+03 0.  0.
          2    1    1    2  501    0 -0.43472638203E+02 -0.96956068857E+01 -0.24514837533E+03  0.24916179682E+03  0.00000000000E+00 0. -1.
          1    1    1    2  502    0  0.13897325001E+02  0.40784117443E+02  0.62300602915E+03  0.62449418911E+03  0.00000000000E+00 0. -1.
         22    1    3    3    0    0  0.45992547347E+02 -0.57426636863E+02 -0.10902313614E+03  0.13152633670E+03  0.00000000000E+00 0.  1.
         22    1    3    3    0    0 -0.16417234145E+02  0.26338126306E+02  0.11098154772E+02  0.32960453784E+02  0.00000000000E+00 0.  1.
</event>
<event>
 7    1  0.5957303E-006  0.4881644E+02  0.7818608E-02  0.1506699E+00
          2   -1    0    0  502    0  0.00000000000E+00  0.00000000000E+00  0.76628413163E+03  0.76628413163E+03  0.00000000000E+00 0. -1.
          1   -1    0    0  501    0 -0.00000000000E+00 -0.00000000000E+00 -0.23453234553E+03  0.23453234553E+03  0.00000000000E+00 0. -1.
         25    2    1    2    0    0  0.38521906759E+02  0.71021799498E+02  0.16752030685E+03  0.22408882239E+03  0.12499885524E+03 0.  0.
          2    1    1    2  501    0 -0.15375725433E+02 -0.29328643527E+02 -0.20391351871E+03  0.20658486240E+03  0.00000000000E+00 0. -1.
          1    1    1    2  502    0 -0.23146181326E+02 -0.41693155971E+02  0.56814499796E+03  0.57014279235E+03  0.00000000000E+00 0. -1.
         22    1    3    3    0    0 -0.22278602148E+02  0.55165039332E+01 -0.10234939622E+02  0.25130099848E+02  0.00000000000E+00 0. -1.
         22    1    3    3    0    0  0.60800508907E+02  0.65505295565E+02  0.17775524647E+03  0.19895872255E+03  0.00000000000E+00 0. -1.
</event>
<event>
 7    1  0.5957303E-006  0.8102021E+02  0.7818608E-02  0.1332201E+00
          2   -1    0    0  502    0  0.00000000000E+00  0.00000000000E+00  0.95010599755E+02  0.95010599755E+02  0.00000000000E+00 0. -1.
          1   -1    0    0  501    0 -0.00000000000E+00 -0.00000000000E+00 -0.50971387493E+03  0.50971387493E+03  0.00000000000E+00 0. -1.
         25    2    1    2    0    0  0.37211287434E+02 -0.67229606071E+02 -0.28774027762E+01  0.14675773582E+03  0.12500021492E+03 0.  0.
          2    1    1    2  501    0 -0.65712976071E+02 -0.39819809278E+02 -0.25236405473E+03  0.26380187367E+03  0.00000000000E+00 0. -1.
          1    1    1    2  502    0  0.28501688638E+02  0.10704941535E+03 -0.15946181767E+03  0.19416486520E+03  0.00000000000E+00 0. -1.
         22    1    3    3    0    0 -0.77921754418E+01  0.33614062555E+02 -0.10492978515E+02  0.36065576353E+02  0.00000000000E+00 0. -1.
         22    1    3    3    0    0  0.45003462875E+02 -0.10084366863E+03  0.76155757393E+01  0.11069215946E+03  0.00000000000E+00 0. -1.
</event>
<event>
 7    1  0.5957303E-006  0.9082390E+02  0.7818608E-02  0.1336342E+00
          2   -1    0    0  502    0  0.00000000000E+00  0.00000000000E+00  0.10195407579E+04  0.10195407579E+04  0.00000000000E+00 0. -1.
          1   -1    0    0  501    0 -0.00000000000E+00 -0.00000000000E+00 -0.20220247010E+03  0.20220247010E+03  0.00000000000E+00 0. -1.
         25    2    1    2    0    0  0.78133892907E+02 -0.60249160621E+02  0.52721288805E+03  0.55073998521E+03  0.12500494153E+03 0.  0.
          2    1    1    2  501    0 -0.18703339243E+02  0.89198890535E+02 -0.17707308786E+03  0.19915103669E+03  0.00000000000E+00 0. -1.
          1    1    1    2  502    0 -0.59430553664E+02 -0.28949729913E+02  0.46719848758E+03  0.47185220607E+03  0.00000000000E+00 0. -1.
         22    1    3    3    0    0  0.27499817904E+02  0.25306429790E+02  0.30525994150E+03  0.30753908248E+03  0.00000000000E+00 0. -1.
         22    1    3    3    0    0  0.50634075003E+02 -0.85555590411E+02  0.22195294655E+03  0.24320090272E+03  0.00000000000E+00 0. -1.
</event>
<event>
 7    1  0.5957303E-006  0.1904558E+03  0.7818608E-02  0.1378938E+00
          2   -1    0    0  502    0  0.00000000000E+00  0.00000000000E+00  0.10439596377E+04  0.10439596377E+04  0.00000000000E+00 0. -1.
          1   -1    0    0  501    0 -0.00000000000E+00 -0.00000000000E+00 -0.46396613123E+03  0.46396613123E+03  0.00000000000E+00 0. -1.
         25    2    1    2    0    0 -0.17567464518E+03 -0.10690459893E+03 -0.33482259504E+03  0.41233864579E+03  0.12500725752E+03 0.  0.
          2    1    1    2  501    0  0.21563859531E+02 -0.44044326339E+01 -0.79895975313E+02  0.82871985230E+02  0.00000000000E+00 0. -1.
          1    1    1    2  502    0  0.15411078565E+03  0.11130903156E+03  0.99471207687E+03  0.10127151379E+04  0.00000000000E+00 0. -1.
         22    1    3    3    0    0 -0.11008880874E+03 -0.12047115555E+03 -0.28661199144E+03  0.32981703832E+03  0.00000000000E+00 0. -1.
         22    1    3    3    0    0 -0.65585836440E+02  0.13566556626E+02 -0.48210603605E+02  0.82521607474E+02  0.00000000000E+00 0. -1.
</event>
<event>
 7    1  0.5957303E-006  0.1319404E+03  0.7818608E-02  0.1238439E+00
          2   -1    0    0  502    0  0.00000000000E+00  0.00000000000E+00  0.13023447392E+04  0.13023447392E+04  0.00000000000E+00 0. -1.
          1   -1    0    0  501    0 -0.00000000000E+00 -0.00000000000E+00 -0.30724228271E+03  0.30724228271E+03  0.00000000000E+00 0. -1.
         25    2    1    2    0    0 -0.23891387353E+03 -0.40267517779E+02  0.40568575291E+03  0.48878119840E+03  0.12499927135E+03 0.  0.
          2    1    1    2  501    0  0.12534732464E+03  0.26324240532E+02 -0.24612985688E+03  0.27746139169E+03  0.00000000000E+00 0. -1.
          1    1    1    2  502    0  0.11356654889E+03  0.13943277247E+02  0.83554656046E+03  0.84334443184E+03  0.00000000000E+00 0. -1.
         22    1    3    3    0    0 -0.20258481449E+03  0.18368777689E+02  0.31158818325E+03  0.37210914393E+03  0.00000000000E+00 0.  1.
         22    1    3    3    0    0 -0.36329059038E+02 -0.58636295468E+02  0.94097569665E+02  0.11667205447E+03  0.00000000000E+00 0.  1.
</event>
<event>
 7    1  0.5957303E-006  0.1344697E+03  0.7818608E-02  0.1347286E+00
          2   -1    0    0  502    0  0.00000000000E+00  0.00000000000E+00  0.20160798604E+04  0.20160798604E+04  0.00000000000E+00 0. -1.
          1   -1    0    0  501    0 -0.00000000000E+00 -0.00000000000E+00 -0.53232555845E+03  0.53232555845E+03  0.00000000000E+00 0. -1.
         25    2    1    2    0    0 -0.37984071302E+02  0.12020699222E+03  0.41988383813E+03  0.45588167330E+03  0.12503260326E+03 0.  0.
          2    1    1    2  501    0  0.77384402421E+02 -0.11032014613E+03 -0.50523272969E+03  0.52289481880E+03  0.00000000000E+00 0. -1.
          1    1    1    2  502    0 -0.39400331119E+02 -0.98868460906E+01  0.15691031935E+04  0.15696289268E+04  0.00000000000E+00 0. -1.
         22    1    3    3    0    0 -0.23639848641E+02  0.34551718617E+02  0.19493821590E+02  0.46180870318E+02  0.00000000000E+00 0. -1.
         22    1    3    3    0    0 -0.14344222661E+02  0.85655273604E+02  0.40039001654E+03  0.40970080298E+03  0.00000000000E+00 0. -1.
</event>
<event>
 7    1  0.5957303E-006  0.1203026E+03  0.7818608E-02  0.1297591E+00
          2   -1    0    0  502    0  0.00000000000E+00  0.00000000000E+00  0.18960313391E+04  0.18960313391E+04  0.00000000000E+00 0. -1.
          1   -1    0    0  501    0 -0.00000000000E+00 -0.00000000000E+00 -0.10946529659E+04  0.10946529659E+04  0.00000000000E+00 0. -1.
         25    2    1    2    0    0 -0.16155141740E+03  0.66103825172E+01  0.25030752258E+03  0.32314370870E+03  0.12500177196E+03 0.  0.
          2    1    1    2  501    0  0.10784696846E+03 -0.52553115075E+02 -0.10540545978E+04  0.10608599784E+04  0.00000000000E+00 0. -1.
          1    1    1    2  502    0  0.53704448940E+02  0.45942732557E+02  0.16051254485E+04  0.16066806179E+04  0.00000000000E+00 0. -1.
         22    1    3    3    0    0 -0.18814959344E+02 -0.47737062465E+02  0.71091016759E+02  0.87674183724E+02  0.00000000000E+00 0. -1.
         22    1    3    3    0    0 -0.14273645805E+03  0.54347444982E+02  0.17921650582E+03  0.23546952497E+03  0.00000000000E+00 0. -1.
</event>
<event>
 7    1  0.5957303E-006  0.7574294E+02  0.7818608E-02  0.1377375E+00
          2   -1    0    0  502    0  0.00000000000E+00  0.00000000000E+00  0.58053767754E+03  0.58053767754E+03  0.00000000000E+00 0. -1.
          1   -1    0    0  501    0 -0.00000000000E+00 -0.00000000000E+00 -0.14980786930E+04  0.14980786930E+04  0.00000000000E+00 0. -1.
         25    2    1    2    0    0  0.24763358122E+02 -0.16894816203E+01  0.12057664578E+03  0.17543426348E+03  0.12498949972E+03 0.  0.
          2    1    1    2  501    0 -0.63034022017E+02  0.42645070904E+02 -0.14678438836E+04  0.14698154838E+04  0.00000000000E+00 0. -1.
          1    1    1    2  502    0  0.38270663895E+02 -0.40955589283E+02  0.42972622230E+03  0.43336662324E+03  0.00000000000E+00 0. -1.
         22    1    3    3    0    0 -0.43188630742E+02 -0.30715734561E+02  0.58410608482E+02  0.78870231128E+02  0.00000000000E+00 0. -1.
         22    1    3    3    0    0  0.67951988864E+02  0.29026252941E+02  0.62166037299E+02  0.96564032350E+02  0.00000000000E+00 0. -1.
</event>
<event>
 7    1  0.5957303E-006  0.4507076E+02  0.7818608E-02  0.1547608E+00
          2   -1    0    0  502    0  0.00000000000E+00  0.00000000000E+00  0.80009405526E+03  0.80009405526E+03  0.00000000000E+00 0. -1.
          1   -1    0    0  501    0 -0.00000000000E+00 -0.00000000000E+00 -0.25399527942E+03  0.25399527942E+03  0.00000000000E+00 0. -1.
         25    2    1    2    0    0  0.23008032336E+02  0.55749809798E+02 -0.23864593020E+02  0.14082353332E+03  0.12499735154E+03 0.  0.
          2    1    1    2  501    0 -0.32785311887E+02 -0.30203147062E+02 -0.16849961655E+03  0.17429637846E+03  0.00000000000E+00 0. -1.
          1    1    1    2  502    0  0.97772795515E+01 -0.25546662736E+02  0.73846298541E+03  0.73896942290E+03  0.00000000000E+00 0. -1.
         22    1    3    3    0    0 -0.51820902186E+02  0.21004705490E+02 -0.14685902644E+02  0.57812449287E+02  0.00000000000E+00 0.  1.
         22    1    3    3    0    0  0.74828934522E+02  0.34745104308E+02 -0.91786903754E+01  0.83011084031E+02  0.00000000000E+00 0.  1.
</event>
<event>
 7    1  0.5957303E-006  0.3425282E+03  0.7818608E-02  0.1296077E+00
          2   -1    0    0  502    0  0.00000000000E+00  0.00000000000E+00  0.17812786251E+04  0.17812786251E+04  0.00000000000E+00 0. -1.
          1   -1    0    0  501    0 -0.00000000000E+00 -0.00000000000E+00 -0.82092931100E+03  0.82092931100E+03  0.00000000000E+00 0. -1.
         25    2    1    2    0    0  0.13165677903E+03 -0.32669237532E+03  0.72112754793E+03  0.81222661042E+03  0.12500284291E+03 0.  0.
          2    1    1    2  501    0  0.12058200723E+02  0.22096868238E+02 -0.74721199631E+03  0.74763590017E+03  0.00000000000E+00 0. -1.
          1    1    1    2  502    0 -0.14371497975E+03  0.30459550709E+03  0.98643376248E+03  0.10423454255E+04  0.00000000000E+00 0. -1.
         22    1    3    3    0    0  0.12468988138E+03 -0.15510681343E+03  0.33538515224E+03  0.38998575671E+03  0.00000000000E+00 0. -1.
         22    1    3    3    0    0  0.69668976448E+01 -0.17158556189E+03  0.38574239568E+03  0.42224085371E+03  0.00000000000E+00 0. -1.
</event>
<event>
 7    1  0.5957303E-006  0.6232402E+02  0.7818608E-02  0.1503823E+00
          2   -1    0    0  502    0  0.00000000000E+00  0.00000000000E+00  0.11084486050E+03  0.11084486050E+03  0.00000000000E+00 0. -1.
          1   -1    0    0  501    0 -0.00000000000E+00 -0.00000000000E+00 -0.13252059838E+04  0.13252059838E+04  0.00000000000E+00 0. -1.
         25    2    1    2    0    0  0.53852101681E+02 -0.70184848400E+02 -0.10861318173E+04  0.10968744345E+04  0.12500095405E+03 0.  0.
          2    1    1    2  501    0 -0.14606828259E+02  0.22052868573E+02 -0.22371381720E+03  0.22527219192E+03  0.00000000000E+00 0. -1.
          1    1    1    2  502    0 -0.39245273423E+02  0.48131979828E+02  0.95484511259E+02  0.11390421791E+03  0.00000000000E+00 0. -1.
         22    1    3    3    0    0 -0.55265606045E+01  0.32251047946E+02 -0.16972015218E+03  0.17284560458E+03  0.00000000000E+00 0.  1.
         22    1    3    3    0    0  0.59378662286E+02 -0.10243589635E+03 -0.91641166517E+03  0.92402882988E+03  0.00000000000E+00 0.  1.
</event>
<event>
 7    1  0.5957303E-006  0.2443804E+03  0.7818608E-02  0.1241065E+00
          2   -1    0    0  502    0  0.00000000000E+00  0.00000000000E+00  0.33875354032E+04  0.33875354032E+04  0.00000000000E+00 0. -1.
          1   -1    0    0  501    0 -0.00000000000E+00 -0.00000000000E+00 -0.24908091962E+04  0.24908091962E+04  0.00000000000E+00 0. -1.
         25    2    1    2    0    0 -0.81123917238E+02 -0.26869217534E+03  0.54231783757E+03  0.62330586486E+03  0.12499995670E+03 0.  0.
          2    1    1    2  501    0  0.11178399464E+03  0.21694415179E+03 -0.24439143852E+04  0.24560696140E+04  0.00000000000E+00 0. -1.
          1    1    1    2  502    0 -0.30660077407E+02  0.51748023558E+02  0.27983227547E+04  0.27989691205E+04  0.00000000000E+00 0. -1.
         22    1    3    3    0    0 -0.69694125444E+02 -0.45271136592E+02  0.16186793155E+03  0.18195596774E+03  0.00000000000E+00 0. -1.
         22    1    3    3    0    0 -0.11429791794E+02 -0.22342103875E+03  0.38044990602E+03  0.44134989712E+03  0.00000000000E+00 0. -1.
</event>
<event>
 7    1  0.5957303E-006  0.9411797E+02  0.7818608E-02  0.1463604E+00
          2   -1    0    0  502    0  0.00000000000E+00  0.00000000000E+00  0.54637073994E+03  0.54637073994E+03  0.00000000000E+00 0. -1.
          1   -1    0    0  501    0 -0.00000000000E+00 -0.00000000000E+00 -0.18892674861E+03  0.18892674861E+03  0.00000000000E+00 0. -1.
         25    2    1    2    0    0  0.66852164665E+02 -0.46402102299E+02  0.41854829662E+03  0.44433173296E+03  0.12500258116E+03 0.  0.
          2    1    1    2  501    0 -0.64128987384E+02  0.69480274820E+02 -0.16192080871E+03  0.18750569033E+03  0.00000000000E+00 0. -1.
          1    1    1    2  502    0 -0.27231772805E+01 -0.23078172521E+02  0.10081650342E+03  0.10346006526E+03  0.00000000000E+00 0. -1.
         22    1    3    3    0    0 -0.95180186328E+01  0.29026379944E+02  0.37043672312E+02  0.48014134062E+02  0.00000000000E+00 0.  1.
         22    1    3    3    0    0  0.76370183298E+02 -0.75428482243E+02  0.38150462431E+03  0.39631759890E+03  0.00000000000E+00 0.  1.
</event>
<event>
 7    1  0.5957303E-006  0.2859309E+02  0.7818608E-02  0.1619637E+00
          2   -1    0    0  502    0  0.00000000000E+00  0.00000000000E+00  0.95281089132E+03  0.95281089132E+03  0.00000000000E+00 0. -1.
          1   -1    0    0  501    0 -0.00000000000E+00 -0.00000000000E+00 -0.21203575849E+02  0.21203575849E+02  0.00000000000E+00 0. -1.
         25    2    1    2    0    0 -0.31121952755E+02 -0.60886007881E+01  0.22239036485E+03  0.25707512602E+03  0.12499799613E+03 0.  0.
          2    1    1    2  501    0  0.19097408576E+02 -0.20049588312E+02  0.50488472424E+02  0.57582834712E+02  0.00000000000E+00 0. -1.
          1    1    1    2  502    0  0.12024544179E+02  0.26138189100E+02  0.65872847819E+03  0.65935650643E+03  0.00000000000E+00 0. -1.
         22    1    3    3    0    0 -0.39607942509E+02 -0.32134448627E+02  0.23239271082E+02  0.56048868131E+02  0.00000000000E+00 0. -1.
         22    1    3    3    0    0  0.84859897536E+01  0.26045847839E+02  0.19915109377E+03  0.20102625789E+03  0.00000000000E+00 0. -1.
</event>
<event>
 7    1  0.5957303E-006  0.8139561E+02  0.7818608E-02  0.1359108E+00
          2   -1    0    0  502    0  0.00000000000E+00  0.00000000000E+00  0.34318000355E+04  0.34318000355E+04  0.00000000000E+00 0. -1.
          1   -1    0    0  501    0 -0.00000000000E+00 -0.00000000000E+00 -0.15881062321E+03  0.15881062321E+03  0.00000000000E+00 0. -1.
         25    2    1    2    0    0  0.11582248542E+03 -0.25073279847E+02  0.44744772659E+03  0.47945674828E+03  0.12500315175E+03 0.  0.
          2    1    1    2  501    0 -0.61584306194E+02  0.52326972727E+02 -0.13103671894E+03  0.15395246200E+03  0.00000000000E+00 0. -1.
          1    1    1    2  502    0 -0.54238179228E+02 -0.27253692880E+02  0.29565784047E+04  0.29572014485E+04  0.00000000000E+00 0. -1.
         22    1    3    3    0    0  0.89641921801E+02 -0.71750452016E+02  0.34899731042E+03  0.36740022344E+03  0.00000000000E+00 0.  1.
         22    1    3    3    0    0  0.26180563621E+02  0.46677172169E+02  0.98450416178E+02  0.11205652484E+03  0.00000000000E+00 0.  1.
</event>
<event>
 7    1  0.5957303E-006  0.7444870E+02  0.7818608E-02  0.1390981E+00
          2   -1    0    0  502    0  0.00000000000E+00  0.00000000000E+00  0.84562684317E+03  0.84562684317E+03  0.00000000000E+00 0. -1.
          1   -1    0    0  501    0 -0.00000000000E+00 -0.00000000000E+00 -0.12654274864E+03  0.12654274864E+03  0.00000000000E+00 0. -1.
         25    2    1    2    0    0 -0.44211598024E+02  0.17612067193E+02  0.29880151325E+02  0.13705199676E+03  0.12500230423E+03 0.  0.
          2    1    1    2  501    0  0.10044616197E+02  0.50076220901E+02 -0.61869327789E+02  0.80226778168E+02  0.00000000000E+00 0. -1.
          1    1    1    2  502    0  0.34166981827E+02 -0.67688288093E+02  0.75107327100E+03  0.75489081688E+03  0.00000000000E+00 0. -1.
         22    1    3    3    0    0  0.29253217913E+02  0.21476579051E+02 -0.26021985016E+02  0.44655771298E+02  0.00000000000E+00 0.  1.
         22    1    3    3    0    0 -0.73464815937E+02 -0.38645118587E+01  0.55902136341E+02  0.92396225464E+02  0.00000000000E+00 0.  1.
</event>
<event>
 7    1  0.5957303E-006  0.8949531E+02  0.7818608E-02  0.1379981E+00
          2   -1    0    0  502    0  0.00000000000E+00  0.00000000000E+00  0.14884264133E+04  0.14884264133E+04  0.00000000000E+00 0. -1.
          1   -1    0    0  501    0 -0.00000000000E+00 -0.00000000000E+00 -0.10800793528E+03  0.10800793528E+03  0.00000000000E+00 0. -1.
         25    2    1    2    0    0  0.99722503141E+01 -0.62637509896E+02  0.19123241228E+03  0.23710383015E+03  0.12500194936E+03 0.  0.
          2    1    1    2  501    0  0.28257197426E+02  0.89005169008E+02 -0.58883175529E+02  0.11039754380E+03  0.00000000000E+00 0. -1.
          1    1    1    2  502    0 -0.38229447741E+02 -0.26367659112E+02  0.12480692412E+04  0.12489329746E+04  0.00000000000E+00 0. -1.
         22    1    3    3    0    0  0.55502798626E+01  0.32003109351E+02  0.10165408263E+03  0.10671718292E+03  0.00000000000E+00 0.  1.
         22    1    3    3    0    0  0.44219704514E+01 -0.94640619247E+02  0.89578329652E+02  0.13038664724E+03  0.00000000000E+00 0.  1.
</event>
<event>
 7    1  0.7636688E-006  0.4619733E+02  0.7818608E-02  0.1507799E+00
          2   -1    0    0  502    0  0.00000000000E+00  0.00000000000E+00  0.11887798081E+04  0.11887798081E+04  0.00000000000E+00 0. -1.
          1   -1    0    0  501    0 -0.00000000000E+00 -0.00000000000E+00 -0.82201559651E+03  0.82201559651E+03  0.00000000000E+00 0. -1.
         25    2    1    2    0    0 -0.30303977241E+02 -0.19017630107E+02 -0.39144103328E+03  0.41247006129E+03  0.12500187052E+03 0.  0.
          2    1    1    2  501    0  0.10763285075E+02  0.47730482651E+02 -0.41837810381E+03  0.42122949212E+03  0.00000000000E+00 0. -1.
          1    1    1    2  502    0  0.19540692167E+02 -0.28712852545E+02  0.11765833487E+04  0.11770958512E+04  0.00000000000E+00 0. -1.
         22    1    3    3    0    0 -0.59949521667E+02  0.23338302682E+02 -0.12007157527E+03  0.13621969281E+03  0.00000000000E+00 0.  1.
         22    1    3    3    0    0  0.29645544425E+02 -0.42355932789E+02 -0.27136945801E+03  0.27625036848E+03  0.00000000000E+00 0.  1.
</event>
<event>
 7    1  0.5957303E-006  0.5604340E+02  0.7818608E-02  0.1520110E+00
          2   -1    0    0  502    0  0.00000000000E+00  0.00000000000E+00  0.17162820529E+04  0.17162820529E+04  0.00000000000E+00 0. -1.
          1   -1    0    0  501    0 -0.00000000000E+00 -0.00000000000E+00 -0.17331606009E+03  0.17331606009E+03  0.00000000000E+00 0. -1.
         25    2    1    2    0    0  0.64693267468E+02 -0.35070659684E+02 -0.22880459001E+02  0.14684785878E+03  0.12500243277E+03 0.  0.
          2    1    1    2  501    0 -0.52778279483E+02  0.11569219042E+02 -0.80085245559E+02  0.96607661035E+02  0.00000000000E+00 0. -1.
          1    1    1    2  502    0 -0.11914987985E+02  0.23501440641E+02  0.16459316974E+04  0.16461425932E+04  0.00000000000E+00 0. -1.
         22    1    3    3    0    0  0.15273317677E+02  0.44162803985E+02  0.10107810104E+02  0.47809991778E+02  0.00000000000E+00 0.  1.
         22    1    3    3    0    0  0.49419949791E+02 -0.79233463669E+02 -0.32988269106E+02  0.99037867005E+02  0.00000000000E+00 0.  1.
</event>
<event>
 7    1  0.5957303E-006  0.2650916E+02  0.7818608E-02  0.1680250E+00
          2   -1    0    0  502    0  0.00000000000E+00  0.00000000000E+00  0.67986962772E+03  0.67986962772E+03  0.00000000000E+00 0. -1.
          1   -1    0    0  501    0 -0.00000000000E+00 -0.00000000000E+00 -0.57317489123E+03  0.57317489123E+03  0.00000000000E+00 0. -1.
         25    2    1    2    0    0 -0.19893087236E+02 -0.18517353824E+02 -0.35503313343E+03  0.37737497706E+03  0.12499888066E+03 0.  0.
          2    1    1    2  501    0  0.19641517002E+02 -0.79962147606E+01 -0.20616386757E+03  0.20725170430E+03  0.00000000000E+00 0. -1.
          1    1    1    2  502    0  0.25157023397E+00  0.26513568584E+02  0.66789173749E+03  0.66841783759E+03  0.00000000000E+00 0. -1.
         22    1    3    3    0    0  0.29145543068E+02 -0.28238507769E+02 -0.30115015802E+03  0.30387216667E+03  0.00000000000E+00 0.  1.
         22    1    3    3    0    0 -0.49038630304E+02  0.97211539454E+01 -0.53882975413E+02  0.73502810392E+02  0.00000000000E+00 0.  1.
</event>
<event>
 7    1  0.5957303E-006  0.9065832E+02  0.7818608E-02  0.1415904E+00
          2   -1    0    0  502    0  0.00000000000E+00  0.00000000000E+00  0.88009427935E+02  0.88009427935E+02  0.00000000000E+00 0. -1.
          1   -1    0    0  501    0 -0.00000000000E+00 -0.00000000000E+00 -0.15048707052E+04  0.15048707052E+04  0.00000000000E+00 0. -1.
         25    2    1    2    0    0  0.47468958778E+02 -0.36184839877E+02 -0.59034902809E+03  0.60638238201E+03  0.12499989424E+03 0.  0.
          2    1    1    2  501    0  0.15964495577E+02 -0.30543796680E+02 -0.87956377807E+03  0.88023873371E+03  0.00000000000E+00 0. -1.
          1    1    1    2  502    0 -0.63433454355E+02  0.66728636557E+02  0.53051528880E+02  0.10625901743E+03  0.00000000000E+00 0. -1.
         22    1    3    3    0    0  0.32626691189E+02  0.17574260913E+02 -0.45480680815E+02  0.58667264739E+02  0.00000000000E+00 0.  1.
         22    1    3    3    0    0  0.14842267590E+02 -0.53759100790E+02 -0.54486834727E+03  0.54771511727E+03  0.00000000000E+00 0.  1.
</event>
<event>
 7    1  0.5957303E-006  0.8364576E+02  0.7818608E-02  0.1403727E+00
          2   -1    0    0  502    0  0.00000000000E+00  0.00000000000E+00  0.12148500987E+04  0.12148500987E+04  0.00000000000E+00 0. -1.
          1   -1    0    0  501    0 -0.00000000000E+00 -0.00000000000E+00 -0.65056078073E+03  0.65056078073E+03  0.00000000000E+00 0. -1.
         25    2    1    2    0    0  0.19907994769E+02  0.49684707400E+02 -0.16989451196E+03  0.21760087554E+03  0.12498438876E+03 0.  0.
          2    1    1    2  501    0 -0.55405685754E+02 -0.70356708668E+02 -0.45206512950E+03  0.46085001658E+03  0.00000000000E+00 0. -1.
          1    1    1    2  502    0  0.35497690984E+02  0.20672001267E+02  0.11862489595E+04  0.11869599873E+04  0.00000000000E+00 0. -1.
         22    1    3    3    0    0 -0.31138368172E+02  0.73268121677E+01  0.32807641471E+01  0.32156547737E+02  0.00000000000E+00 0. -1.
         22    1    3    3    0    0  0.51046362941E+02  0.42357895233E+02 -0.17317527611E+03  0.18544432780E+03  0.00000000000E+00 0. -1.
</event>
<event>
 7    1  0.5957303E-006  0.6761609E+02  0.7818608E-02  0.1370287E+00
          2   -1    0    0  502    0  0.00000000000E+00  0.00000000000E+00  0.30132927180E+04  0.30132927180E+04  0.00000000000E+00 0. -1.
          1   -1    0    0  501    0 -0.00000000000E+00 -0.00000000000E+00 -0.56681694133E+03  0.56681694133E+03  0.00000000000E+00 0. -1.
         25    2    1    2    0    0 -0.25924137973E+01  0.92241091685E+02  0.10759272066E+04  0.10870871179E+04  0.12499563401E+03 0.  0.
          2    1    1    2  501    0  0.50005329735E+02 -0.45522585223E+02 -0.55862396608E+03  0.56270202972E+03  0.00000000000E+00 0. -1.
          1    1    1    2  502    0 -0.47412915937E+02 -0.46718506462E+02  0.19291725362E+04  0.19303205117E+04  0.00000000000E+00 0. -1.
         22    1    3    3    0    0 -0.62219689307E+02  0.43177273399E+02  0.62837263293E+03  0.63292000481E+03  0.00000000000E+00 0.  1.
         22    1    3    3    0    0  0.59627275510E+02  0.49063818285E+02  0.44755457367E+03  0.45416711314E+03  0.00000000000E+00 0.  1.
</event>
<event>
 7    1  0.5957303E-006  0.5942914E+02  0.7818608E-02  0.1450906E+00
          2   -1    0    0  502    0  0.00000000000E+00  0.00000000000E+00  0.24309080644E+04  0.24309080644E+04  0.00000000000E+00 0. -1.
          1   -1    0    0  501    0 -0.00000000000E+00 -0.00000000000E+00 -0.78081601535E+01  0.78081601535E+01  0.00000000000E+00 0. -1.
         25    2    1    2    0    0 -0.40605691328E+02 -0.44415706621E+01  0.72212692068E+03  0.73400311871E+03  0.12499895591E+03 0.  0.
          2    1    1    2  501    0 -0.12120914604E+02  0.38510327833E+02  0.35714837512E+03  0.35942304291E+03  0.00000000000E+00 0. -1.
          1    1    1    2  502    0  0.52726605932E+02 -0.34068757170E+02  0.13438246084E+04  0.13452900629E+04  0.00000000000E+00 0. -1.
         22    1    3    3    0    0 -0.30281729625E+02 -0.49827390193E+02  0.16620162697E+03  0.17613271351E+03  0.00000000000E+00 0.  1.
         22    1    3    3    0    0 -0.10323961703E+02  0.45385819531E+02  0.55592529372E+03  0.55787040520E+03  0.00000000000E+00 0.  1.
</event>
<event>
 7    1  0.5957303E-006  0.2346695E+03  0.7818608E-02  0.1185680E+00
          2   -1    0    0  502    0  0.00000000000E+00  0.00000000000E+00  0.14840394447E+04  0.14840394447E+04  0.00000000000E+00 0. -1.
          1   -1    0    0  501    0 -0.00000000000E+00 -0.00000000000E+00 -0.16288504329E+04  0.16288504329E+04  0.00000000000E+00 0. -1.
         25    2    1    2    0    0  0.10762280923E+03  0.22842377912E+03 -0.28064627675E+03  0.39767771575E+03  0.12500056405E+03 0.  0.
          2    1    1    2  501    0 -0.18470179015E+03 -0.14606002092E+03 -0.12766726643E+04  0.12982069838E+04  0.00000000000E+00 0. -1.
          1    1    1    2  502    0  0.77078980913E+02 -0.82363758193E+02  0.14125079528E+04  0.14170051781E+04  0.00000000000E+00 0. -1.
         22    1    3    3    0    0  0.11499159055E+02  0.12157045324E+03 -0.19585209438E+03  0.23080218507E+03  0.00000000000E+00 0.  1.
         22    1    3    3    0    0  0.96123650178E+02  0.10685332588E+03 -0.84794182374E+02  0.16687553068E+03  0.00000000000E+00 0.  1.
</event>
<event>
 7    1  0.5957303E-006  0.2279506E+02  0.7818608E-02  0.1715753E+00
          2   -1    0    0  502    0  0.00000000000E+00  0.00000000000E+00  0.21849578505E+03  0.21849578505E+03  0.00000000000E+00 0. -1.
          1   -1    0    0  501    0 -0.00000000000E+00 -0.00000000000E+00 -0.61786010525E+03  0.61786010525E+03  0.00000000000E+00 0. -1.
         25    2    1    2    0    0 -0.12932952930E+02 -0.14730782719E+02  0.12528313404E+03  0.17806193639E+03  0.12500372907E+03 0.  0.
          2    1    1    2  501    0  0.22578143109E+02 -0.32625221418E+01 -0.58968569473E+03  0.59012679584E+03  0.00000000000E+00 0. -1.
          1    1    1    2  502    0 -0.96451901784E+01  0.17993304861E+02  0.65038240493E+02  0.68167158074E+02  0.00000000000E+00 0. -1.
         22    1    3    3    0    0  0.26085266132E+02 -0.53545143848E+02  0.10239160750E+03  0.11845490630E+03  0.00000000000E+00 0. -1.
         22    1    3    3    0    0 -0.39018219062E+02  0.38814361128E+02  0.22891526542E+02  0.59607030089E+02  0.00000000000E+00 0. -1.
</event>
<event>
 7    1  0.5957303E-006  0.4748501E+02  0.7818608E-02  0.1478541E+00
          2   -1    0    0  502    0  0.00000000000E+00  0.00000000000E+00  0.18795861651E+04  0.18795861651E+04  0.00000000000E+00 0. -1.
          1   -1    0    0  501    0 -0.00000000000E+00 -0.00000000000E+00 -0.41306263858E+03  0.41306263858E+03  0.00000000000E+00 0. -1.
         25    2    1    2    0    0 -0.18925213003E+02  0.82951980421E+02  0.96312613872E+02  0.17927703552E+03  0.12499976452E+03 0.  0.
          2    1    1    2  501    0  0.20824304902E+02 -0.35772863133E+02 -0.37010647924E+03  0.37241395702E+03  0.00000000000E+00 0. -1.
          1    1    1    2  502    0 -0.18990918988E+01 -0.47179117288E+02  0.17403173919E+04  0.17409578111E+04  0.00000000000E+00 0. -1.
         22    1    3    3    0    0 -0.69824762742E+02  0.68798771256E+02  0.56666281163E+02  0.11322471391E+03  0.00000000000E+00 0.  1.
         22    1    3    3    0    0  0.50899549739E+02  0.14153209165E+02  0.39646332709E+02  0.66052321614E+02  0.00000000000E+00 0.  1.
</event>
<event>
 7    1  0.5957303E-006  0.6515548E+02  0.7818608E-02  0.1442482E+00
          2   -1    0    0  502    0  0.00000000000E+00  0.00000000000E+00  0.85288392787E+03  0.85288392787E+03  0.00000000000E+00 0. -1.
          1   -1    0    0  501    0 -0.00000000000E+00 -0.00000000000E+00 -0.15501726047E+03  0.15501726047E+03  0.00000000000E+00 0. -1.
         25    2    1    2    0    0 -0.22198190478E+02 -0.39045320321E+02  0.10796846625E+03  0.17116681663E+03  0.12499437071E+03 0.  0.
          2    1    1    2  501    0  0.60182015042E+02  0.29382205999E+02 -0.11374704581E+03  0.13199840679E+03  0.00000000000E+00 0. -1.
          1    1    1    2  502    0 -0.37983824563E+02  0.96631143217E+01  0.70364524695E+03  0.70473596493E+03  0.00000000000E+00 0. -1.
         22    1    3    3    0    0  0.49988436047E+01  0.14293129194E+02  0.11021722184E+03  0.11125249646E+03  0.00000000000E+00 0.  1.
         22    1    3    3    0    0 -0.27197034083E+02 -0.53338449515E+02 -0.22487555828E+01  0.59914320168E+02  0.00000000000E+00 0.  1.
</event>
<event>
 7    1  0.5957303E-006  0.6545279E+02  0.7818608E-02  0.1403076E+00
          2   -1    0    0  502    0  0.00000000000E+00  0.00000000000E+00  0.74897783657E+03  0.74897783657E+03  0.00000000000E+00 0. -1.
          1   -1    0    0  501    0 -0.00000000000E+00 -0.00000000000E+00 -0.25681600127E+04  0.25681600127E+04  0.00000000000E+00 0. -1.
         25    2    1    2    0    0  0.16835535599E+02 -0.98127654357E+01  0.22261773354E+02  0.12845152713E+03  0.12499793056E+03 0.  0.
          2    1    1    2  501    0  0.49721552915E+02  0.17663456675E+02 -0.25131205954E+04  0.25136744732E+04  0.00000000000E+00 0. -1.
          1    1    1    2  502    0 -0.66557088514E+02 -0.78506912393E+01  0.67167664594E+03  0.67501184884E+03  0.00000000000E+00 0. -1.
         22    1    3    3    0    0 -0.31346097256E+01  0.52852198833E+02  0.32150500890E+02  0.61942194077E+02  0.00000000000E+00 0.  1.
         22    1    3    3    0    0  0.19970145325E+02 -0.62664964268E+02 -0.98887275360E+01  0.66509333054E+02  0.00000000000E+00 0.  1.
</event>
<event>
 7    1  0.5957303E-006  0.1094314E+03  0.7818608E-02  0.1358031E+00
          2   -1    0    0  502    0  0.00000000000E+00  0.00000000000E+00  0.53045733722E+03  0.53045733722E+03  0.00000000000E+00 0. -1.
          1   -1    0    0  501    0 -0.00000000000E+00 -0.00000000000E+00 -0.99277164274E+03  0.99277164274E+03  0.00000000000E+00 0. -1.
         25    2    1    2    0    0  0.11828935121E+03 -0.83516151024E+01 -0.62767036865E+02  0.18338108761E+03  0.12500720896E+03 0.  0.
          2    1    1    2  501    0 -0.10371201222E+03 -0.34813923722E+02 -0.86514092224E+03  0.87203039288E+03  0.00000000000E+00 0. -1.
          1    1    1    2  502    0 -0.14577338981E+02  0.43165538825E+02  0.46559365358E+03  0.46781749947E+03  0.00000000000E+00 0. -1.
         22    1    3    3    0    0  0.81524507681E+02 -0.52988284041E+02  0.10811839207E+01  0.97237711598E+02  0.00000000000E+00 0.  1.
         22    1    3    3    0    0  0.36764843524E+02  0.44636668938E+02 -0.63848220785E+02  0.86143376012E+02  0.00000000000E+00 0.  1.
</event>
<event>
 7    1  0.5957303E-006  0.9539192E+02  0.7818608E-02  0.1302849E+00
          2   -1    0    0  502    0  0.00000000000E+00  0.00000000000E+00  0.18578192012E+04  0.18578192012E+04  0.00000000000E+00 0. -1.
          1   -1    0    0  501    0 -0.00000000000E+00 -0.00000000000E+00 -0.26852289909E+03  0.26852289909E+03  0.00000000000E+00 0. -1.
         25    2    1    2    0    0 -0.10590928749E+03  0.80650376855E+01 -0.75394361549E+02  0.18052883264E+03  0.12499811059E+03 0.  0.
          2    1    1    2  501    0  0.72717509994E+02  0.70094398359E+02 -0.12127794332E+03  0.15782712212E+03  0.00000000000E+00 0. -1.
          1    1    1    2  502    0  0.33191777495E+02 -0.78159436044E+02  0.17859686070E+04  0.17879861456E+04  0.00000000000E+00 0. -1.
         22    1    3    3    0    0 -0.31516581246E+01  0.50796597210E+02 -0.11409191865E+02  0.52157424170E+02  0.00000000000E+00 0.  1.
         22    1    3    3    0    0 -0.10275762936E+03 -0.42731559524E+02 -0.63985169684E+02  0.12837140847E+03  0.00000000000E+00 0.  1.
</event>
<event>
 7    1  0.5957303E-006  0.1411282E+03  0.7818608E-02  0.1357503E+00
          2   -1    0    0  502    0  0.00000000000E+00  0.00000000000E+00  0.32241516094E+04  0.32241516094E+04  0.00000000000E+00 0. -1.
          1   -1    0    0  501    0 -0.00000000000E+00 -0.00000000000E+00 -0.52175585668E+03  0.52175585668E+03  0.00000000000E+00 0. -1.
         25    2    1    2    0    0 -0.10290188147E+03  0.27080892765E+02  0.18820803316E+02  0.16523311025E+03  0.12500234446E+03 0.  0.
          2    1    1    2  501    0 -0.34376050175E+02  0.88036764298E+01 -0.44623801967E+03  0.44764672203E+03  0.00000000000E+00 0. -1.
          1    1    1    2  502    0  0.13727793165E+03 -0.35884569195E+02  0.31298129691E+04  0.31330276338E+04  0.00000000000E+00 0. -1.
         22    1    3    3    0    0 -0.11058398506E+03 -0.62405922067E+01  0.47584376963E+02  0.12054889329E+03  0.00000000000E+00 0.  1.
         22    1    3    3    0    0  0.76821035857E+01  0.33321484972E+02 -0.28763573647E+02  0.44684216958E+02  0.00000000000E+00 0.  1.
</event>
<event>
 7    1  0.5957303E-006  0.7144325E+02  0.7818608E-02  0.1371522E+00
          2   -1    0    0  502    0  0.00000000000E+00  0.00000000000E+00  0.86475743616E+03  0.86475743616E+03  0.00000000000E+00 0. -1.
          1   -1    0    0  501    0 -0.00000000000E+00 -0.00000000000E+00 -0.35091199398E+03  0.35091199398E+03  0.00000000000E+00 0. -1.
         25    2    1    2    0    0 -0.13509972338E+02 -0.13511784796E+02  0.29284159857E+03  0.31897917128E+03  0.12500568857E+03 0.  0.
          2    1    1    2  501    0  0.71625086793E+02 -0.90954080881E+01 -0.33221398248E+03  0.33996913046E+03  0.00000000000E+00 0. -1.
          1    1    1    2  502    0 -0.58115114455E+02  0.22607192884E+02  0.55321782610E+03  0.55672112841E+03  0.00000000000E+00 0. -1.
         22    1    3    3    0    0 -0.38416815023E+02 -0.56285995634E+02  0.22436869013E+03  0.23448939015E+03  0.00000000000E+00 0.  1.
         22    1    3    3    0    0  0.24906842685E+02  0.42774210838E+02  0.68472908437E+02  0.84489781129E+02  0.00000000000E+00 0.  1.
</event>
<event>
 7    1  0.5957303E-006  0.7656515E+02  0.7818608E-02  0.1358431E+00
          2   -1    0    0  502    0  0.00000000000E+00  0.00000000000E+00  0.16070116884E+02  0.16070116884E+02  0.00000000000E+00 0. -1.
          1   -1    0    0  501    0 -0.00000000000E+00 -0.00000000000E+00 -0.14379234145E+04  0.14379234145E+04  0.00000000000E+00 0. -1.
         25    2    1    2    0    0  0.29423792225E+02 -0.70296221120E+02 -0.65654337858E+03  0.67266740422E+03  0.12499964196E+03 0.  0.
          2    1    1    2  501    0 -0.79130650611E+02  0.28569379189E+02 -0.55161148384E+03  0.55799023145E+03  0.00000000000E+00 0. -1.
          1    1    1    2  502    0  0.49706858386E+02  0.41726841931E+02 -0.21369843519E+03  0.22333589571E+03  0.00000000000E+00 0. -1.
         22    1    3    3    0    0  0.29363638991E+02  0.33931058310E+01 -0.48583466862E+03  0.48673304972E+03  0.00000000000E+00 0.  1.
         22    1    3    3    0    0  0.60153233753E-01 -0.73689326951E+02 -0.17070870997E+03  0.18593435450E+03  0.00000000000E+00 0.  1.
</event>
<event>
 7    1  0.5957303E-006  0.2847949E+03  0.7818608E-02  0.1170311E+00
          2   -1    0    0  502    0  0.00000000000E+00  0.00000000000E+00  0.55783406662E+03  0.55783406662E+03  0.00000000000E+00 0. -1.
          1   -1    0    0  501    0 -0.00000000000E+00 -0.00000000000E+00 -0.51556782038E+03  0.51556782038E+03  0.00000000000E+00 0. -1.
         25    2    1    2    0    0 -0.23865140524E+03  0.27692957405E+03 -0.10219324227E+03  0.39963555310E+03  0.12498253607E+03 0.  0.
          2    1    1    2  501    0  0.27901485010E+02 -0.10696533082E+03 -0.20427622242E+03  0.23226891723E+03  0.00000000000E+00 0. -1.
          1    1    1    2  502    0  0.21074992023E+03 -0.16996424323E+03  0.34873571093E+03  0.44149741668E+03  0.00000000000E+00 0. -1.
         22    1    3    3    0    0 -0.20615089085E+03  0.24228861942E+03 -0.13104846994E+03  0.34405764978E+03  0.00000000000E+00 0.  1.
         22    1    3    3    0    0 -0.32500514389E+02  0.34640954630E+02  0.28855227664E+02  0.55577903314E+02  0.00000000000E+00 0.  1.
</event>
<event>
 7    1  0.5957303E-006  0.1232984E+03  0.7818608E-02  0.1295096E+00
          2   -1    0    0  502    0  0.00000000000E+00  0.00000000000E+00  0.74285895783E+03  0.74285895783E+03  0.00000000000E+00 0. -1.
          1   -1    0    0  501    0 -0.00000000000E+00 -0.00000000000E+00 -0.22721038559E+03  0.22721038559E+03  0.00000000000E+00 0. -1.
         25    2    1    2    0    0  0.12498334582E+03  0.16898166605E+02  0.15357706321E+03  0.23476857173E+03  0.12499593258E+03 0.  0.
          2    1    1    2  501    0 -0.10777832338E+02 -0.69743435419E+02 -0.17236311872E+03  0.18625078026E+03  0.00000000000E+00 0. -1.
          1    1    1    2  502    0 -0.11420551348E+03  0.52845268814E+02  0.53443462775E+03  0.54904999142E+03  0.00000000000E+00 0. -1.
         22    1    3    3    0    0  0.29216652920E+02 -0.79199313856E+01  0.12944525547E+03  0.13293762554E+03  0.00000000000E+00 0.  1.
         22    1    3    3    0    0  0.95766692899E+02  0.24818097990E+02  0.24131807739E+02  0.10183094619E+03  0.00000000000E+00 0.  1.
</event>
<event>
 7    1  0.5957303E-006  0.6986783E+02  0.7818608E-02  0.1402042E+00
          2   -1    0    0  502    0  0.00000000000E+00  0.00000000000E+00  0.14574722787E+04  0.14574722787E+04  0.00000000000E+00 0. -1.
          1   -1    0    0  501    0 -0.00000000000E+00 -0.00000000000E+00 -0.11637700410E+03  0.11637700410E+03  0.00000000000E+00 0. -1.
         25    2    1    2    0    0  0.71241763258E+02 -0.52619553492E+01  0.16606772524E+03  0.21978627703E+03  0.12499776476E+03 0.  0.
          2    1    1    2  501    0 -0.14913632768E+02  0.47552534716E+02 -0.81517900747E+02  0.95544901185E+02  0.00000000000E+00 0. -1.
          1    1    1    2  502    0 -0.56328130490E+02 -0.42290579367E+02  0.12565454501E+04  0.12585181046E+04  0.00000000000E+00 0. -1.
         22    1    3    3    0    0  0.70374991505E+02 -0.17755080694E+02  0.18406650954E+03  0.19785945076E+03  0.00000000000E+00 0. -1.
         22    1    3    3    0    0  0.86677175281E+00  0.12493125344E+02 -0.17998784295E+02  0.21926826269E+02  0.00000000000E+00 0. -1.
</event>
<event>
 7    1  0.5957303E-006  0.7322603E+02  0.7818608E-02  0.1405344E+00
          2   -1    0    0  502    0  0.00000000000E+00  0.00000000000E+00  0.87272463812E+03  0.87272463812E+03  0.00000000000E+00 0. -1.
          1   -1    0    0  501    0 -0.00000000000E+00 -0.00000000000E+00 -0.19428698055E+03  0.19428698055E+03  0.00000000000E+00 0. -1.
         25    2    1    2    0    0  0.67073342501E+02  0.93077099558E+02  0.38970326307E+03  0.42503656314E+03  0.12500106806E+03 0.  0.
          2    1    1    2  501    0 -0.53701677230E+02 -0.48718590751E+02 -0.16795698353E+03  0.18293966093E+03  0.00000000000E+00 0. -1.
          1    1    1    2  502    0 -0.13371665270E+02 -0.44358508808E+02  0.45669137803E+03  0.45903539461E+03  0.00000000000E+00 0. -1.
         22    1    3    3    0    0 -0.70550290719E+01  0.30565620240E+02  0.96676833867E+01  0.32825214058E+02  0.00000000000E+00 0. -1.
         22    1    3    3    0    0  0.74128371572E+02  0.62511479318E+02  0.38003557969E+03  0.39221134908E+03  0.00000000000E+00 0. -1.
</event>
<event>
 7    1  0.8487005E-006  0.1031652E+03  0.7818608E-02  0.1335933E+00
          2   -1    0    0  502    0  0.00000000000E+00  0.00000000000E+00  0.12539922574E+04  0.12539922574E+04  0.00000000000E+00 0. -1.
          1   -1    0    0  501    0 -0.00000000000E+00 -0.00000000000E+00 -0.99237427093E+03  0.99237427093E+03  0.00000000000E+00 0. -1.
         25    2    1    2    0    0  0.14591142259E+01 -0.47742924617E+02 -0.46215122276E+02  0.14157353326E+03  0.12500284767E+03 0.  0.
          2    1    1    2  501    0  0.21941200243E+02 -0.54127896508E+02 -0.89526240470E+03  0.89716554699E+03  0.00000000000E+00 0. -1.
          1    1    1    2  502    0 -0.23400314469E+02  0.10187082112E+03  0.12030955134E+04  0.12076274481E+04  0.00000000000E+00 0. -1.
         22    1    3    3    0    0  0.19135218803E+02 -0.61413565358E+02 -0.79013293702E+02  0.10188661929E+03  0.00000000000E+00 0. -1.
         22    1    3    3    0    0 -0.17676104577E+02  0.13670640741E+02  0.32798171425E+02  0.39686913966E+02  0.00000000000E+00 0. -1.
</event>
<event>
 7    1  0.5957303E-006  0.7061382E+02  0.7818608E-02  0.1429501E+00
          2   -1    0    0  502    0  0.00000000000E+00  0.00000000000E+00  0.17989366561E+04  0.17989366561E+04  0.00000000000E+00 0. -1.
          1   -1    0    0  501    0 -0.00000000000E+00 -0.00000000000E+00 -0.14767801879E+02  0.14767801879E+02  0.00000000000E+00 0. -1.
         25    2    1    2    0    0  0.13929058055E+02  0.45772546153E+02  0.79963157163E+03  0.81075590973E+03  0.12500140073E+03 0.  0.
          2    1    1    2  501    0 -0.52679677303E+02 -0.55155547892E+02  0.15795689651E+03  0.17540713788E+03  0.00000000000E+00 0. -1.
          1    1    1    2  502    0  0.38750619249E+02  0.93830017385E+01  0.82658038611E+03  0.82754141039E+03  0.00000000000E+00 0. -1.
         22    1    3    3    0    0  0.55856445787E+02  0.15180544083E+01  0.58416594065E+03  0.58683225307E+03  0.00000000000E+00 0. -1.
         22    1    3    3    0    0 -0.41927387732E+02  0.44254491745E+02  0.21546563097E+03  0.22392365666E+03  0.00000000000E+00 0. -1.
</event>
<event>
 7    1  0.5957303E-006  0.9463196E+02  0.7818608E-02  0.1302967E+00
          2   -1    0    0  502    0  0.00000000000E+00  0.00000000000E+00  0.15291168779E+04  0.15291168779E+04  0.00000000000E+00 0. -1.
          1   -1    0    0  501    0 -0.00000000000E+00 -0.00000000000E+00 -0.28426966565E+03  0.28426966565E+03  0.00000000000E+00 0. -1.
         25    2    1    2    0    0  0.81136851619E+02  0.76696946110E+01  0.49474618998E+03  0.51676000230E+03  0.12500037826E+03 0.  0.
          2    1    1    2  501    0 -0.44028911832E+02 -0.84701744174E+02 -0.26306953000E+03  0.27985444102E+03  0.00000000000E+00 0. -1.
          1    1    1    2  502    0 -0.37107939787E+02  0.77032049563E+02  0.10131705523E+04  0.10167721003E+04  0.00000000000E+00 0. -1.
         22    1    3    3    0    0 -0.20189658404E+02 -0.26629624043E+02  0.56467173272E+02  0.65614791324E+02  0.00000000000E+00 0. -1.
         22    1    3    3    0    0  0.10132651002E+03  0.34299318654E+02  0.43827901671E+03  0.45114521097E+03  0.00000000000E+00 0. -1.
</event>
<event>
 7    1  0.5957303E-006  0.5659978E+02  0.7818608E-02  0.1419309E+00
          2   -1    0    0  502    0  0.00000000000E+00  0.00000000000E+00  0.85475707054E+03  0.85475707054E+03  0.00000000000E+00 0. -1.
          1   -1    0    0  501    0 -0.00000000000E+00 -0.00000000000E+00 -0.24399812359E+03  0.24399812359E+03  0.00000000000E+00 0. -1.
         25    2    1    2    0    0 -0.62556666026E+02  0.77658424788E+02  0.79278660570E+01  0.16009521432E+03  0.12499383658E+03 0.  0.
          2    1    1    2  501    0  0.14985024553E+02 -0.52593013695E+02 -0.16249344754E+03  0.17144881610E+03  0.00000000000E+00 0. -1.
          1    1    1    2  502    0  0.47571641473E+02 -0.25065411093E+02  0.76532452843E+03  0.76721116371E+03  0.00000000000E+00 0. -1.
         22    1    3    3    0    0 -0.77218380694E+02  0.69162872525E+02 -0.38569438041E+02  0.11060643202E+03  0.00000000000E+00 0.  1.
         22    1    3    3    0    0  0.14661714668E+02  0.84955522622E+01  0.46497304098E+02  0.49488782301E+02  0.00000000000E+00 0.  1.
</event>
<event>
 7    1  0.8713726E-006  0.8398007E+02  0.7818608E-02  0.1381943E+00
          2   -1    0    0  502    0  0.00000000000E+00  0.00000000000E+00  0.19543247055E+04  0.19543247055E+04  0.00000000000E+00 0. -1.
          1   -1    0    0  501    0 -0.00000000000E+00 -0.00000000000E+00 -0.11783056570E+04  0.11783056570E+04  0.00000000000E+00 0. -1.
         25    2    1    2    0    0 -0.14046640850E+02  0.33103004338E+02 -0.19164106894E+02  0.13147192946E+03  0.12499795290E+03 0.  0.
          2    1    1    2  501    0 -0.22991155589E+02  0.42938065644E+02 -0.11015069912E+04  0.11025832950E+04  0.00000000000E+00 0. -1.
          1    1    1    2  502    0  0.37037796439E+02 -0.76041069982E+02  0.18966901466E+04  0.18985751380E+04  0.00000000000E+00 0. -1.
         22    1    3    3    0    0  0.32239979408E+01 -0.74859433399E+01  0.49332305864E+02  0.50001099110E+02  0.00000000000E+00 0.  1.
         22    1    3    3    0    0 -0.17270638791E+02  0.40588947678E+02 -0.68496412758E+02  0.81470830354E+02  0.00000000000E+00 0.  1.
</event>
<event>
 7    1  0.5957303E-006  0.6928000E+02  0.7818608E-02  0.1426550E+00
          2   -1    0    0  502    0  0.00000000000E+00  0.00000000000E+00  0.13894839551E+04  0.13894839551E+04  0.00000000000E+00 0. -1.
          1   -1    0    0  501    0 -0.00000000000E+00 -0.00000000000E+00 -0.33982632672E+03  0.33982632672E+03  0.00000000000E+00 0. -1.
         25    2    1    2    0    0  0.54360102933E+01  0.78853181200E+02  0.10995811395E+03  0.18429259535E+03  0.12500239792E+03 0.  0.
          2    1    1    2  501    0  0.34941613252E+02 -0.22501546861E+02 -0.30025959075E+03  0.30312218293E+03  0.00000000000E+00 0. -1.
          1    1    1    2  502    0 -0.40377623545E+02 -0.56351634338E+02  0.12399591052E+04  0.12418955035E+04  0.00000000000E+00 0. -1.
         22    1    3    3    0    0 -0.49959922952E+02  0.67446399278E+02  0.36356949430E+02  0.91470423902E+02  0.00000000000E+00 0.  1.
         22    1    3    3    0    0  0.55395933245E+02  0.11406781922E+02  0.73601164523E+02  0.92822171452E+02  0.00000000000E+00 0.  1.
</event>
<event>
 7    1  0.5957303E-006  0.6901400E+02  0.7818608E-02  0.1400144E+00
          2   -1    0    0  502    0  0.00000000000E+00  0.00000000000E+00  0.16903192881E+03  0.16903192881E+03  0.00000000000E+00 0. -1.
          1   -1    0    0  501    0 -0.00000000000E+00 -0.00000000000E+00 -0.10165948846E+04  0.10165948846E+04  0.00000000000E+00 0. -1.
         25    2    1    2    0    0 -0.18939884957E+02  0.61229515299E+02 -0.30989877165E+03  0.34025179245E+03  0.12500504316E+03 0.  0.
          2    1    1    2  501    0 -0.32201539111E+02 -0.63983133357E+02 -0.68533855766E+03  0.68907163568E+03  0.00000000000E+00 0. -1.
          1    1    1    2  502    0  0.51141424068E+02  0.27536180579E+01  0.14767437350E+03  0.15630338530E+03  0.00000000000E+00 0. -1.
         22    1    3    3    0    0  0.12073533139E+02 -0.17293682419E+02 -0.22288821103E+01  0.21208714471E+02  0.00000000000E+00 0.  1.
         22    1    3    3    0    0 -0.31013418095E+02  0.78523197718E+02 -0.30766988953E+03  0.31904307798E+03  0.00000000000E+00 0.  1.
</event>
<event>
 7    1  0.5957303E-006  0.1176102E+03  0.7818608E-02  0.1292655E+00
          2   -1    0    0  502    0  0.00000000000E+00  0.00000000000E+00  0.13790503459E+04  0.13790503459E+04  0.00000000000E+00 0. -1.
          1   -1    0    0  501    0 -0.00000000000E+00 -0.00000000000E+00 -0.38241284734E+03  0.38241284734E+03  0.00000000000E+00 0. -1.
         25    2    1    2    0    0 -0.18149720036E+03  0.33324337212E+02  0.37295040060E+03  0.43447408683E+03  0.12499594247E+03 0.  0.
          2    1    1    2  501    0  0.70852873099E+02 -0.26607053723E+02 -0.34437895943E+03  0.35259740871E+03  0.00000000000E+00 0. -1.
          1    1    1    2  502    0  0.11064432726E+03 -0.67172834897E+01  0.96806605740E+03  0.97439169769E+03  0.00000000000E+00 0. -1.
         22    1    3    3    0    0 -0.88270587507E+02  0.36506967468E+02  0.72623640573E+02  0.11999436846E+03  0.00000000000E+00 0.  1.
         22    1    3    3    0    0 -0.93226612853E+02 -0.31826302559E+01  0.30032676002E+03  0.31447971837E+03  0.00000000000E+00 0.  1.
</event>
<event>
 7    1  0.5957303E-006  0.5012362E+02  0.7818608E-02  0.1479735E+00
          2   -1    0    0  502    0  0.00000000000E+00  0.00000000000E+00  0.90966818234E+03  0.90966818234E+03  0.00000000000E+00 0. -1.
          1   -1    0    0  501    0 -0.00000000000E+00 -0.00000000000E+00 -0.63661120927E+02  0.63661120927E+02  0.00000000000E+00 0. -1.
         25    2    1    2    0    0  0.62478080736E+02 -0.21158680804E+02  0.18700070219E+03  0.23440482941E+03  0.12500064434E+03 0.  0.
          2    1    1    2  501    0 -0.47565774678E+02 -0.14751925599E+02 -0.23671331566E+02  0.55140313453E+02  0.00000000000E+00 0. -1.
          1    1    1    2  502    0 -0.14912306059E+02  0.35910606402E+02  0.68267769078E+03  0.68378416040E+03  0.00000000000E+00 0. -1.
         22    1    3    3    0    0  0.40310539580E+02 -0.49157201814E+02  0.24667334769E+02  0.68189790262E+02  0.00000000000E+00 0.  1.
         22    1    3    3    0    0  0.22167541156E+02  0.27998521010E+02  0.16233336743E+03  0.16621503915E+03  0.00000000000E+00 0.  1.
</event>
<event>
 7    1  0.5957303E-006  0.1213636E+03  0.7818608E-02  0.1412725E+00
          2   -1    0    0  502    0  0.00000000000E+00  0.00000000000E+00  0.51406663176E+03  0.51406663176E+03  0.00000000000E+00 0. -1.
          1   -1    0    0  501    0 -0.00000000000E+00 -0.00000000000E+00 -0.46390060994E+03  0.46390060994E+03  0.00000000000E+00 0. -1.
         25    2    1    2    0    0 -0.13596767561E+03 -0.84007993664E+01  0.26869056213E+03  0.32615587641E+03  0.12500102118E+03 0.  0.
          2    1    1    2  501    0  0.11781623031E+03  0.27553141975E+02 -0.42590529803E+03  0.44275858281E+03  0.00000000000E+00 0. -1.
          1    1    1    2  502    0  0.18151445298E+02 -0.19152342609E+02  0.20738075771E+03  0.20905278248E+03  0.00000000000E+00 0. -1.
         22    1    3    3    0    0  0.12647251718E+02 -0.17283170962E+02  0.95028552873E+02  0.97411944009E+02  0.00000000000E+00 0. -1.
         22    1    3    3    0    0 -0.14861492733E+03  0.88823715953E+01  0.17366200926E+03  0.22874393240E+03  0.00000000000E+00 0. -1.
</event>
