<event>
 7    1  0.6358809E-006  0.1070555E+03  0.7818608E-02  0.1281706E+00
          2   -1    0    0  502    0  0.00000000000E+00  0.00000000000E+00  0.76669556067E+02  0.76669556067E+02  0.00000000000E+00 0. -1.
          1   -1    0    0  501    0 -0.00000000000E+00 -0.00000000000E+00 -0.25659592489E+04  0.25659592489E+04  0.00000000000E+00 0. -1.
         25    2    1    2    0    0  0.13686896014E+03  0.10974436853E+03 -0.14941132802E+04  0.15095621555E+04  0.12500587397E+03 0.  0.
          2    1    1    2  501    0 -0.34041584679E+02 -0.85649356678E+02 -0.10203427488E+04  0.10244969335E+04  0.00000000000E+00 0. -1.
          1    1    1    2  502    0 -0.10282737546E+03 -0.24095011850E+02  0.25166336189E+02  0.10856971593E+03  0.00000000000E+00 0. -1.
         22    1    3    3    0    0 -0.14729672903E+02  0.50574982311E+02 -0.36277419609E+03  0.36657865384E+03  0.00000000000E+00 0. -1.
         22    1    3    3    0    0  0.15159863304E+03  0.59169386218E+02 -0.11313390841E+04  0.11429835017E+04  0.00000000000E+00 0. -1.
</event>
<event>
 7    1  0.6358809E-006  0.6568776E+02  0.7818608E-02  0.1387531E+00
          2   -1    0    0  502    0  0.00000000000E+00  0.00000000000E+00  0.40780956940E+03  0.40780956940E+03  0.00000000000E+00 0. -1.
          1   -1    0    0  501    0 -0.00000000000E+00 -0.00000000000E+00 -0.70274997180E+03  0.70274997180E+03  0.00000000000E+00 0. -1.
         25    2    1    2    0    0 -0.21159870388E+02 -0.12082283348E+03 -0.12749497995E+03  0.21662455868E+03  0.12500132922E+03 0.  0.
          2    1    1    2  501    0  0.82008572469E+01  0.62736464411E+02 -0.52634514171E+03  0.53013425302E+03  0.00000000000E+00 0. -1.
          1    1    1    2  502    0  0.12959013141E+02  0.58086369073E+02  0.35889971926E+03  0.36380072949E+03  0.00000000000E+00 0. -1.
         22    1    3    3    0    0 -0.62789503151E+02 -0.30342330727E+02 -0.80471341794E+02  0.10648387479E+03  0.00000000000E+00 0.  1.
         22    1    3    3    0    0  0.41629632763E+02 -0.90480502757E+02 -0.47023638155E+02  0.11014068389E+03  0.00000000000E+00 0.  1.
</event>
<event>
 7    1  0.9474198E-006  0.7338153E+02  0.7818608E-02  0.1383594E+00
          2   -1    0    0  502    0  0.00000000000E+00  0.00000000000E+00  0.11629390296E+04  0.11629390296E+04  0.00000000000E+00 0. -1.
          1   -1    0    0  501    0 -0.00000000000E+00 -0.00000000000E+00 -0.14982624854E+04  0.14982624854E+04  0.00000000000E+00 0. -1.
         25    2    1    2    0    0 -0.69653759767E+02 -0.89613532805E+02 -0.12825913470E+03  0.21204074967E+03  0.12501456864E+03 0.  0.
          2    1    1    2  501    0  0.63689098446E+02  0.34939588102E+02 -0.13264435470E+04  0.13284312400E+04  0.00000000000E+00 0. -1.
          1    1    1    2  502    0  0.59646613201E+01  0.54673944703E+02  0.11193792260E+04  0.11207295253E+04  0.00000000000E+00 0. -1.
         22    1    3    3    0    0  0.26620093650E+02 -0.62642981743E+02 -0.41900507278E+02  0.79927623871E+02  0.00000000000E+00 0. -1.
         22    1    3    3    0    0 -0.96273853417E+02 -0.26970551062E+02 -0.86358627425E+02  0.13211312579E+03  0.00000000000E+00 0. -1.
</event>
<event>
 7    1  0.6358809E-006  0.2723197E+03  0.7818608E-02  0.1205695E+00
          2   -1    0    0  502    0  0.00000000000E+00  0.00000000000E+00  0.43296014301E+03  0.43296014301E+03  0.00000000000E+00 0. -1.
          1   -1    0    0  501    0 -0.00000000000E+00 -0.00000000000E+00 -0.24226624005E+04  0.24226624005E+04  0.00000000000E+00 0. -1.
         25    2    1    2    0    0 -0.21326553504E+03  0.42895183176E+02 -0.12582330056E+03  0.28067613564E+03  0.12500161989E+03 0.  0.
          2    1    1    2  501    0 -0.59907057541E+02  0.50094616137E+02 -0.21600375940E+04  0.21614487581E+04  0.00000000000E+00 0. -1.
          1    1    1    2  502    0  0.27317259259E+03 -0.92989799313E+02  0.29615863706E+03  0.41349764984E+03  0.00000000000E+00 0. -1.
         22    1    3    3    0    0  0.77078637601E+01 -0.17777678647E+02 -0.21352438710E+02  0.28833724364E+02  0.00000000000E+00 0. -1.
         22    1    3    3    0    0 -0.22097339880E+03  0.60672861824E+02 -0.10447086185E+03  0.25184241127E+03  0.00000000000E+00 0. -1.
</event>
<event>
 7    1  0.6358809E-006  0.5023256E+02  0.7818608E-02  0.1516115E+00
          2   -1    0    0  502    0  0.00000000000E+00  0.00000000000E+00  0.78207235159E+03  0.78207235159E+03  0.00000000000E+00 0. -1.
          1   -1    0    0  501    0 -0.00000000000E+00 -0.00000000000E+00 -0.26674034547E+03  0.26674034547E+03  0.00000000000E+00 0. -1.
         25    2    1    2    0    0 -0.72528333937E+02  0.15504403111E+02  0.55132649817E+03  0.57016323197E+03  0.12499783105E+03 0.  0.
          2    1    1    2  501    0  0.43720413434E+02 -0.24551646109E+02 -0.25382793231E+03  0.25873321607E+03  0.00000000000E+00 0. -1.
          1    1    1    2  502    0  0.28807920503E+02  0.90472429975E+01  0.21783344026E+03  0.21991624903E+03  0.00000000000E+00 0. -1.
         22    1    3    3    0    0 -0.99288389124E+02 -0.16065468639E+02  0.44114424296E+03  0.45246494516E+03  0.00000000000E+00 0. -1.
         22    1    3    3    0    0  0.26760055187E+02  0.31569871751E+02  0.11018225521E+03  0.11769828681E+03  0.00000000000E+00 0. -1.
</event>
<event>
 7    1  0.6358809E-006  0.2489395E+02  0.7818608E-02  0.1667570E+00
          2   -1    0    0  502    0  0.00000000000E+00  0.00000000000E+00  0.69264450411E+03  0.69264450411E+03  0.00000000000E+00 0. -1.
          1   -1    0    0  501    0 -0.00000000000E+00 -0.00000000000E+00 -0.18769394193E+02  0.18769394193E+02  0.00000000000E+00 0. -1.
         25    2    1    2    0    0  0.44299445627E+02  0.19478560150E+01  0.26998143385E+03  0.30080022038E+03  0.12499825172E+03 0.  0.
          2    1    1    2  501    0 -0.22448874312E+02  0.90601839254E+01  0.46869637803E+02  0.52752268562E+02  0.00000000000E+00 0. -1.
          1    1    1    2  502    0 -0.21850571315E+02 -0.11008039940E+02  0.35702403827E+03  0.35786140936E+03  0.00000000000E+00 0. -1.
         22    1    3    3    0    0  0.70314924940E+02  0.41545229275E+02  0.13542240336E+03  0.15814367543E+03  0.00000000000E+00 0. -1.
         22    1    3    3    0    0 -0.26015479313E+02 -0.39597373260E+02  0.13455903049E+03  0.14265654496E+03  0.00000000000E+00 0. -1.
</event>
<event>
 7    1  0.6358809E-006  0.1033935E+03  0.7818608E-02  0.1407371E+00
          2   -1    0    0  502    0  0.00000000000E+00  0.00000000000E+00  0.27046772040E+04  0.27046772040E+04  0.00000000000E+00 0. -1.
          1   -1    0    0  501    0 -0.00000000000E+00 -0.00000000000E+00 -0.73733575488E+03  0.73733575488E+03  0.00000000000E+00 0. -1.
         25    2    1    2    0    0  0.70762338567E+02  0.51667382767E+02  0.52267414763E+03  0.54450962936E+03  0.12500257943E+03 0.  0.
          2    1    1    2  501    0 -0.62155869855E+02 -0.82794069197E+02 -0.72260838428E+03  0.72998704584E+03  0.00000000000E+00 0. -1.
          1    1    1    2  502    0 -0.86064687127E+01  0.31126686430E+02  0.21672756858E+04  0.21675162837E+04  0.00000000000E+00 0. -1.
         22    1    3    3    0    0  0.58326195490E+02 -0.15668904347E+02  0.39538726346E+03  0.39997318379E+03  0.00000000000E+00 0.  1.
         22    1    3    3    0    0  0.12436143077E+02  0.67336287114E+02  0.12728688417E+03  0.14453644557E+03  0.00000000000E+00 0.  1.
</event>
<event>
 7    1  0.6358809E-006  0.4511350E+02  0.7818608E-02  0.1570025E+00
          2   -1    0    0  502    0  0.00000000000E+00  0.00000000000E+00  0.56940380475E+03  0.56940380475E+03  0.00000000000E+00 0. -1.
          1   -1    0    0  501    0 -0.00000000000E+00 -0.00000000000E+00 -0.72078510647E+03  0.72078510647E+03  0.00000000000E+00 0. -1.
         25    2    1    2    0    0  0.42536136666E+02  0.24219809103E+02  0.22346605828E+02  0.13608809536E+03  0.12499870731E+03 0.  0.
          2    1    1    2  501    0 -0.45129688059E+02 -0.65945762854E+00 -0.66285996032E+03  0.66439480027E+03  0.00000000000E+00 0. -1.
          1    1    1    2  502    0  0.25935513928E+01 -0.23560351475E+02  0.48913205276E+03  0.48970601560E+03  0.00000000000E+00 0. -1.
         22    1    3    3    0    0  0.49237816896E+02  0.40045699020E+00 -0.43527258867E+02  0.65720204222E+02  0.00000000000E+00 0.  1.
         22    1    3    3    0    0 -0.67016802296E+01  0.23819352113E+02  0.65873864695E+02  0.70367891135E+02  0.00000000000E+00 0.  1.
</event>
<event>
 7    1  0.6358809E-006  0.8117904E+02  0.7818608E-02  0.1348259E+00
          2   -1    0    0  502    0  0.00000000000E+00  0.00000000000E+00  0.33155318744E+03  0.33155318744E+03  0.00000000000E+00 0. -1.
          1   -1    0    0  501    0 -0.00000000000E+00 -0.00000000000E+00 -0.21266105045E+03  0.21266105045E+03  0.00000000000E+00 0. -1.
         25    2    1    2    0    0 -0.47009268453E+01  0.45938222081E+02  0.17646272912E+01  0.13326924125E+03  0.12500063117E+03 0.  0.
          2    1    1    2  501    0 -0.56948761123E+02 -0.71477170021E+02 -0.12778613180E+03  0.15710328675E+03  0.00000000000E+00 0. -1.
          1    1    1    2  502    0  0.61649687969E+02  0.25538947941E+02  0.24491364150E+03  0.25384170989E+03  0.00000000000E+00 0. -1.
         22    1    3    3    0    0 -0.26794556362E+02 -0.40154247344E+01  0.52271144386E+02  0.58875669184E+02  0.00000000000E+00 0. -1.
         22    1    3    3    0    0  0.22093629517E+02  0.49953646815E+02 -0.50506517095E+02  0.74393572064E+02  0.00000000000E+00 0. -1.
</event>
<event>
 7    1  0.6358809E-006  0.6550030E+02  0.7818608E-02  0.1415305E+00
          2   -1    0    0  502    0  0.00000000000E+00  0.00000000000E+00  0.50309406562E+03  0.50309406562E+03  0.00000000000E+00 0. -1.
          1   -1    0    0  501    0 -0.00000000000E+00 -0.00000000000E+00 -0.67768555020E+03  0.67768555020E+03  0.00000000000E+00 0. -1.
         25    2    1    2    0    0  0.56409106161E+02 -0.93083476923E+02 -0.15394084847E+03  0.22620365528E+03  0.12499515151E+03 0.  0.
          2    1    1    2  501    0 -0.41557263789E+02  0.47519674152E+02 -0.48432995223E+03  0.48842668665E+03  0.00000000000E+00 0. -1.
          1    1    1    2  502    0 -0.14851842372E+02  0.45563802770E+02  0.46367931612E+03  0.46614927388E+03  0.00000000000E+00 0. -1.
         22    1    3    3    0    0 -0.83318272066E+01 -0.52898734373E+01  0.19186911427E+02  0.21576368454E+02  0.00000000000E+00 0. -1.
         22    1    3    3    0    0  0.64740933368E+02 -0.87793603485E+02 -0.17312775990E+03  0.20462728683E+03  0.00000000000E+00 0. -1.
</event>
<event>
 7    1  0.6358809E-006  0.6701216E+02  0.7818608E-02  0.1401991E+00
          2   -1    0    0  502    0  0.00000000000E+00  0.00000000000E+00  0.11030927819E+04  0.11030927819E+04  0.00000000000E+00 0. -1.
          1   -1    0    0  501    0 -0.00000000000E+00 -0.00000000000E+00 -0.24913945171E+04  0.24913945171E+04  0.00000000000E+00 0. -1.
         25    2    1    2    0    0 -0.51720757724E+02  0.83389941756E+02 -0.25729743125E+03  0.30241517331E+03  0.12499619898E+03 0.  0.
          2    1    1    2  501    0  0.25434864759E+01 -0.66548431150E+02 -0.22104112531E+04  0.22114142694E+04  0.00000000000E+00 0. -1.
          1    1    1    2  502    0  0.49177271248E+02 -0.16841510606E+02  0.10794069491E+04  0.10806578562E+04  0.00000000000E+00 0. -1.
         22    1    3    3    0    0 -0.24709892411E+02  0.56647030545E+02 -0.24412512169E+02  0.66448744179E+02  0.00000000000E+00 0.  1.
         22    1    3    3    0    0 -0.27010865313E+02  0.26742911210E+02 -0.23288491908E+03  0.23596642914E+03  0.00000000000E+00 0.  1.
</event>
<event>
 7    1  0.6358809E-006  0.1309495E+03  0.7818608E-02  0.1307119E+00
          2   -1    0    0  502    0  0.00000000000E+00  0.00000000000E+00  0.49574064741E+03  0.49574064741E+03  0.00000000000E+00 0. -1.
          1   -1    0    0  501    0 -0.00000000000E+00 -0.00000000000E+00 -0.10692141246E+04  0.10692141246E+04  0.00000000000E+00 0. -1.
         25    2    1    2    0    0  0.34225720484E+02 -0.99880576685E+02  0.15738278297E+03  0.22702906895E+03  0.12500131293E+03 0.  0.
          2    1    1    2  501    0 -0.37338141364E+02 -0.46311292831E+02 -0.10158595611E+04  0.10175998823E+04  0.00000000000E+00 0. -1.
          1    1    1    2  502    0  0.31124208797E+01  0.14619186952E+03  0.28500330095E+03  0.32032582073E+03  0.00000000000E+00 0. -1.
         22    1    3    3    0    0  0.54761980510E+02 -0.94123310771E+02  0.17026721773E+03  0.20211134944E+03  0.00000000000E+00 0.  1.
         22    1    3    3    0    0 -0.20536260026E+02 -0.57572659140E+01 -0.12884434760E+02  0.24917719513E+02  0.00000000000E+00 0.  1.
</event>
<event>
 7    1  0.6358809E-006  0.1346234E+03  0.7818608E-02  0.1394442E+00
          2   -1    0    0  502    0  0.00000000000E+00  0.00000000000E+00  0.74213497660E+03  0.74213497660E+03  0.00000000000E+00 0. -1.
          1   -1    0    0  501    0 -0.00000000000E+00 -0.00000000000E+00 -0.45551523952E+04  0.45551523952E+04  0.00000000000E+00 0. -1.
         25    2    1    2    0    0 -0.72322068728E+02 -0.89492898807E+02 -0.24082576422E+03  0.29472295896E+03  0.12500045305E+03 0.  0.
          2    1    1    2  501    0  0.68709257020E+02  0.11672712194E+03 -0.42860439621E+04  0.42881836513E+04  0.00000000000E+00 0. -1.
          1    1    1    2  502    0  0.36128117083E+01 -0.27234223131E+02  0.71385230764E+03  0.71438076153E+03  0.00000000000E+00 0. -1.
         22    1    3    3    0    0 -0.50615573347E+01 -0.24971974548E+02 -0.18358661007E+03  0.18534633061E+03  0.00000000000E+00 0. -1.
         22    1    3    3    0    0 -0.67260511393E+02 -0.64520924259E+02 -0.57239154148E+02  0.10937662834E+03  0.00000000000E+00 0. -1.
</event>
<event>
 7    1  0.6358809E-006  0.1235954E+03  0.7818608E-02  0.1371943E+00
          2   -1    0    0  502    0  0.00000000000E+00  0.00000000000E+00  0.10184460629E+04  0.10184460629E+04  0.00000000000E+00 0. -1.
          1   -1    0    0  501    0 -0.00000000000E+00 -0.00000000000E+00 -0.36313160748E+03  0.36313160748E+03  0.00000000000E+00 0. -1.
         25    2    1    2    0    0 -0.13168626531E+03  0.54294303453E+02  0.71009496088E+03  0.73494842322E+03  0.12500074991E+03 0.  0.
          2    1    1    2  501    0  0.10032070013E+03 -0.71799784183E+02 -0.33868893715E+03  0.36045755372E+03  0.00000000000E+00 0. -1.
          1    1    1    2  502    0  0.31365565185E+02  0.17505480730E+02  0.28390843171E+03  0.28617169345E+03  0.00000000000E+00 0. -1.
         22    1    3    3    0    0  0.79057635304E+01  0.43837876691E+02  0.25326632780E+03  0.25715383203E+03  0.00000000000E+00 0. -1.
         22    1    3    3    0    0 -0.13959202884E+03  0.10456426762E+02  0.45682863308E+03  0.47779459120E+03  0.00000000000E+00 0. -1.
</event>
<event>
 7    1  0.6358809E-006  0.5787025E+02  0.7818608E-02  0.1480826E+00
          2   -1    0    0  502    0  0.00000000000E+00  0.00000000000E+00  0.21775210473E+03  0.21775210473E+03  0.00000000000E+00 0. -1.
          1   -1    0    0  501    0 -0.00000000000E+00 -0.00000000000E+00 -0.36605360021E+03  0.36605360021E+03  0.00000000000E+00 0. -1.
         25    2    1    2    0    0 -0.92991301791E+01  0.59789381043E+01 -0.28022105569E+03  0.30703519983E+03  0.12499820943E+03 0.  0.
          2    1    1    2  501    0 -0.28789084590E+01 -0.62553323359E+02 -0.53604855214E+02  0.82429890693E+02  0.00000000000E+00 0. -1.
          1    1    1    2  502    0  0.12178038638E+02  0.56574385255E+02  0.18552441542E+03  0.19434061441E+03  0.00000000000E+00 0. -1.
         22    1    3    3    0    0  0.53275600013E+02  0.21599912931E+02 -0.16847036913E+03  0.17800873875E+03  0.00000000000E+00 0.  1.
         22    1    3    3    0    0 -0.62574730192E+02 -0.15620974827E+02 -0.11175068656E+03  0.12902646108E+03  0.00000000000E+00 0.  1.
</event>
<event>
 7    1  0.6358809E-006  0.7392828E+02  0.7818608E-02  0.1370262E+00
          2   -1    0    0  502    0  0.00000000000E+00  0.00000000000E+00  0.96872084649E+03  0.96872084649E+03  0.00000000000E+00 0. -1.
          1   -1    0    0  501    0 -0.00000000000E+00 -0.00000000000E+00 -0.20485501530E+03  0.20485501530E+03  0.00000000000E+00 0. -1.
         25    2    1    2    0    0 -0.69755811804E+01 -0.12059923772E+02 -0.10613716035E+03  0.16457295995E+03  0.12500024739E+03 0.  0.
          2    1    1    2  501    0 -0.40379741913E+02 -0.45577627870E+02 -0.54365124008E+02  0.81629715347E+02  0.00000000000E+00 0. -1.
          1    1    1    2  502    0  0.47355323093E+02  0.57637551642E+02  0.92436811555E+03  0.92737318649E+03  0.00000000000E+00 0. -1.
         22    1    3    3    0    0 -0.60291319944E+02 -0.28569030731E+02 -0.76047551474E+02  0.10116552210E+03  0.00000000000E+00 0.  1.
         22    1    3    3    0    0  0.53315738763E+02  0.16509106959E+02 -0.30089608871E+02  0.63407437848E+02  0.00000000000E+00 0.  1.
</event>
<event>
 7    1  0.6358809E-006  0.9865637E+02  0.7818608E-02  0.1316072E+00
          2   -1    0    0  502    0  0.00000000000E+00  0.00000000000E+00  0.24546881440E+04  0.24546881440E+04  0.00000000000E+00 0. -1.
          1   -1    0    0  501    0 -0.00000000000E+00 -0.00000000000E+00 -0.28778394941E+03  0.28778394941E+03  0.00000000000E+00 0. -1.
         25    2    1    2    0    0  0.51745407749E+02 -0.83891192790E+02  0.19652827104E+03  0.25291002865E+03  0.12499920728E+03 0.  0.
          2    1    1    2  501    0 -0.96239129397E+02  0.26252726467E+02 -0.24939058311E+03  0.26860163555E+03  0.00000000000E+00 0. -1.
          1    1    1    2  502    0  0.44493721648E+02  0.57638466322E+02  0.22197665066E+04  0.22209604292E+04  0.00000000000E+00 0. -1.
         22    1    3    3    0    0  0.15459132955E+02 -0.11206512523E+03  0.14415055027E+03  0.18324016543E+03  0.00000000000E+00 0.  1.
         22    1    3    3    0    0  0.36286274794E+02  0.28173932438E+02  0.52377720768E+02  0.69669863214E+02  0.00000000000E+00 0.  1.
</event>
<event>
 7    1  0.6358809E-006  0.6419664E+02  0.7818608E-02  0.1410424E+00
          2   -1    0    0  502    0  0.00000000000E+00  0.00000000000E+00  0.89618652073E+03  0.89618652073E+03  0.00000000000E+00 0. -1.
          1   -1    0    0  501    0 -0.00000000000E+00 -0.00000000000E+00 -0.13461537151E+04  0.13461537151E+04  0.00000000000E+00 0. -1.
         25    2    1    2    0    0  0.50025570876E+02 -0.27748509835E+02  0.71969141453E+03  0.73270254170E+03  0.12499897969E+03 0.  0.
          2    1    1    2  501    0 -0.60347359088E+02 -0.21978309460E+02 -0.13350655716E+04  0.13366094906E+04  0.00000000000E+00 0. -1.
          1    1    1    2  502    0  0.10321788212E+02  0.49726819295E+02  0.16540696276E+03  0.17302820348E+03  0.00000000000E+00 0. -1.
         22    1    3    3    0    0  0.31385525626E+02 -0.75624330073E+02  0.52499623672E+03  0.53134276987E+03  0.00000000000E+00 0.  1.
         22    1    3    3    0    0  0.18640045250E+02  0.47875820238E+02  0.19469517781E+03  0.20135977183E+03  0.00000000000E+00 0.  1.
</event>
<event>
 7    1  0.6358809E-006  0.1294658E+03  0.7818608E-02  0.1349015E+00
          2   -1    0    0  502    0  0.00000000000E+00  0.00000000000E+00  0.86966564570E+03  0.86966564570E+03  0.00000000000E+00 0. -1.
          1   -1    0    0  501    0 -0.00000000000E+00 -0.00000000000E+00 -0.79877786139E+03  0.79877786139E+03  0.00000000000E+00 0. -1.
         25    2    1    2    0    0 -0.13043794115E+03  0.61349553403E+02  0.13134635084E+03  0.23163444715E+03  0.12499931614E+03 0.  0.
          2    1    1    2  501    0  0.34240999185E+02  0.23576013261E+02 -0.74206512119E+03  0.74322871212E+03  0.00000000000E+00 0. -1.
          1    1    1    2  502    0  0.96196941965E+02 -0.84925566664E+02  0.68160655467E+03  0.69358034782E+03  0.00000000000E+00 0. -1.
         22    1    3    3    0    0 -0.94355363764E+02  0.96269597269E+02  0.11927076954E+03  0.17998968442E+03  0.00000000000E+00 0.  1.
         22    1    3    3    0    0 -0.36082577386E+02 -0.34920043867E+02  0.12075581292E+02  0.51644762736E+02  0.00000000000E+00 0.  1.
</event>
<event>
 7    1  0.6358809E-006  0.5024609E+02  0.7818608E-02  0.1489998E+00
          2   -1    0    0  502    0  0.00000000000E+00  0.00000000000E+00  0.17371991725E+03  0.17371991725E+03  0.00000000000E+00 0. -1.
          1   -1    0    0  501    0 -0.00000000000E+00 -0.00000000000E+00 -0.10572885585E+04  0.10572885585E+04  0.00000000000E+00 0. -1.
         25    2    1    2    0    0  0.53869135260E+02 -0.31696575465E+02 -0.52891174986E+03  0.54706325658E+03  0.12499604366E+03 0.  0.
          2    1    1    2  501    0 -0.38049036936E+01  0.35893008834E+02 -0.51482186257E+03  0.51608558937E+03  0.00000000000E+00 0. -1.
          1    1    1    2  502    0 -0.50064231567E+02 -0.41964333687E+01  0.16016497116E+03  0.16785962982E+03  0.00000000000E+00 0. -1.
         22    1    3    3    0    0  0.88522265482E+02 -0.30485107424E+02 -0.26853945759E+03  0.28439228813E+03  0.00000000000E+00 0.  1.
         22    1    3    3    0    0 -0.34653130222E+02 -0.12114680419E+01 -0.26037229226E+03  0.26267096845E+03  0.00000000000E+00 0.  1.
</event>
<event>
 7    1  0.6358809E-006  0.5474557E+02  0.7818608E-02  0.1493887E+00
          2   -1    0    0  502    0  0.00000000000E+00  0.00000000000E+00  0.33392610060E+03  0.33392610060E+03  0.00000000000E+00 0. -1.
          1   -1    0    0  501    0 -0.00000000000E+00 -0.00000000000E+00 -0.30482785795E+03  0.30482785795E+03  0.00000000000E+00 0. -1.
         25    2    1    2    0    0 -0.13292677947E+02 -0.71540770662E+02  0.21137929667E+03  0.25612642315E+03  0.12499904168E+03 0.  0.
          2    1    1    2  501    0  0.31271567735E+02  0.44773764972E+02 -0.27712353891E+03  0.28245363654E+03  0.00000000000E+00 0. -1.
          1    1    1    2  502    0 -0.17978889787E+02  0.26767005690E+02  0.94842484890E+02  0.10017389885E+03  0.00000000000E+00 0. -1.
         22    1    3    3    0    0 -0.11098989528E+02 -0.10723619123E+03  0.17139363903E+03  0.20248103066E+03  0.00000000000E+00 0.  1.
         22    1    3    3    0    0 -0.21936884195E+01  0.35695420565E+02  0.39985657638E+02  0.53645392485E+02  0.00000000000E+00 0.  1.
</event>
<event>
 7    1  0.6358809E-006  0.1325424E+03  0.7818608E-02  0.1308053E+00
          2   -1    0    0  502    0  0.00000000000E+00  0.00000000000E+00  0.35781985159E+04  0.35781985159E+04  0.00000000000E+00 0. -1.
          1   -1    0    0  501    0 -0.00000000000E+00 -0.00000000000E+00 -0.60824066697E+02  0.60824066697E+02  0.00000000000E+00 0. -1.
         25    2    1    2    0    0 -0.15407221820E+03  0.26934911308E+02  0.73757078244E+03  0.76426419969E+03  0.12500147976E+03 0.  0.
          2    1    1    2  501    0  0.25682272829E+02 -0.52311004176E+02 -0.27477313231E+02  0.64428433459E+02  0.00000000000E+00 0. -1.
          1    1    1    2  502    0  0.12838994537E+03  0.25376092868E+02  0.28072809799E+04  0.28103299494E+04  0.00000000000E+00 0. -1.
         22    1    3    3    0    0 -0.36409818703E+02  0.64485361990E+02  0.33905682335E+03  0.34704980373E+03  0.00000000000E+00 0.  1.
         22    1    3    3    0    0 -0.11766239950E+03 -0.37550450682E+02  0.39851395910E+03  0.41721439596E+03  0.00000000000E+00 0.  1.
</event>
<event>
 7    1  0.6358809E-006  0.9202427E+02  0.7818608E-02  0.1446697E+00
          2   -1    0    0  502    0  0.00000000000E+00  0.00000000000E+00  0.49786389252E+02  0.49786389252E+02  0.00000000000E+00 0. -1.
          1   -1    0    0  501    0 -0.00000000000E+00 -0.00000000000E+00 -0.92276836495E+03  0.92276836495E+03  0.00000000000E+00 0. -1.
         25    2    1    2    0    0 -0.46355648365E+02 -0.92379028827E+02 -0.11794473310E+03  0.20054851289E+03  0.12500405935E+03 0.  0.
          2    1    1    2  501    0  0.26317174601E+01  0.26766323674E+02 -0.57295116388E+03  0.57358207626E+03  0.00000000000E+00 0. -1.
          1    1    1    2  502    0  0.43723930905E+02  0.65612705153E+02 -0.18208607872E+03  0.19842416504E+03  0.00000000000E+00 0. -1.
         22    1    3    3    0    0  0.35139767214E+02 -0.31133054975E+02 -0.78039103361E+02  0.91072344899E+02  0.00000000000E+00 0. -1.
         22    1    3    3    0    0 -0.81495415579E+02 -0.61245973852E+02 -0.39905629739E+02  0.10947616799E+03  0.00000000000E+00 0. -1.
</event>
<event>
 7    1  0.6358809E-006  0.2629177E+03  0.7818608E-02  0.1197404E+00
          2   -1    0    0  502    0  0.00000000000E+00  0.00000000000E+00  0.31132044691E+04  0.31132044691E+04  0.00000000000E+00 0. -1.
          1   -1    0    0  501    0 -0.00000000000E+00 -0.00000000000E+00 -0.82354834868E+03  0.82354834868E+03  0.00000000000E+00 0. -1.
         25    2    1    2    0    0  0.42465159747E+02  0.18616845754E+03  0.41448725152E+03  0.47316930781E+03  0.12501011081E+03 0.  0.
          2    1    1    2  501    0 -0.57633386949E+01 -0.26668109230E+03 -0.77104980378E+03  0.81588591174E+03  0.00000000000E+00 0. -1.
          1    1    1    2  502    0 -0.36701821052E+02  0.80512634761E+02  0.26462186727E+04  0.26476975982E+04  0.00000000000E+00 0. -1.
         22    1    3    3    0    0  0.60081548352E+01  0.53493731524E+02  0.23606371159E+02  0.58778720607E+02  0.00000000000E+00 0.  1.
         22    1    3    3    0    0  0.36457004911E+02  0.13267472602E+03  0.39088088036E+03  0.41439058720E+03  0.00000000000E+00 0.  1.
</event>
<event>
 7    1  0.6358809E-006  0.6262926E+02  0.7818608E-02  0.1436577E+00
          2   -1    0    0  502    0  0.00000000000E+00  0.00000000000E+00  0.18631637072E+02  0.18631637072E+02  0.00000000000E+00 0. -1.
          1   -1    0    0  501    0 -0.00000000000E+00 -0.00000000000E+00 -0.32090121943E+04  0.32090121943E+04  0.00000000000E+00 0. -1.
         25    2    1    2    0    0 -0.67723189960E+02  0.69474920664E+02 -0.70676653789E+03  0.72426317442E+03  0.12500004669E+03 0.  0.
          2    1    1    2  501    0  0.17750243840E+02 -0.38743022033E+02 -0.24045535856E+04  0.24049311922E+04  0.00000000000E+00 0. -1.
          1    1    1    2  502    0  0.49972946120E+02 -0.30731898631E+02 -0.79060433685E+02  0.98449464761E+02  0.00000000000E+00 0. -1.
         22    1    3    3    0    0 -0.72420041798E+02  0.61722749069E+02 -0.25138329068E+03  0.26878973016E+03  0.00000000000E+00 0.  1.
         22    1    3    3    0    0  0.46968518386E+01  0.77521715952E+01 -0.45538324721E+03  0.45547344426E+03  0.00000000000E+00 0.  1.
</event>
<event>
 7    1  0.6358809E-006  0.2309916E+03  0.7818608E-02  0.1254366E+00
          2   -1    0    0  502    0  0.00000000000E+00  0.00000000000E+00  0.13949791286E+03  0.13949791286E+03  0.00000000000E+00 0. -1.
          1   -1    0    0  501    0 -0.00000000000E+00 -0.00000000000E+00 -0.18293815929E+04  0.18293815929E+04  0.00000000000E+00 0. -1.
         25    2    1    2    0    0  0.10330962401E+03 -0.15443365721E+03 -0.63502259128E+01  0.22402544060E+03  0.12499775908E+03 0.  0.
          2    1    1    2  501    0 -0.10411976816E+03  0.21011775082E+03 -0.16715122657E+04  0.16878814086E+04  0.00000000000E+00 0. -1.
          1    1    1    2  502    0  0.81014414557E+00 -0.55684093610E+02 -0.12021188415E+02  0.56972656473E+02  0.00000000000E+00 0. -1.
         22    1    3    3    0    0 -0.29061183289E+02 -0.25945487230E+02  0.45805864582E+01  0.39226297991E+02  0.00000000000E+00 0. -1.
         22    1    3    3    0    0  0.13237080730E+03 -0.12848816998E+03 -0.10930812371E+02  0.18479914261E+03  0.00000000000E+00 0. -1.
</event>
<event>
 7    1  0.6358809E-006  0.5803132E+02  0.7818608E-02  0.1477079E+00
          2   -1    0    0  502    0  0.00000000000E+00  0.00000000000E+00  0.70275567670E+03  0.70275567670E+03  0.00000000000E+00 0. -1.
          1   -1    0    0  501    0 -0.00000000000E+00 -0.00000000000E+00 -0.15096080813E+04  0.15096080813E+04  0.00000000000E+00 0. -1.
         25    2    1    2    0    0  0.24940928958E+02  0.60978648109E+02 -0.12582951526E+03  0.18920968097E+03  0.12500716379E+03 0.  0.
          2    1    1    2  501    0  0.21716417772E+02 -0.26449915057E+02 -0.13506161763E+04  0.13510496869E+04  0.00000000000E+00 0. -1.
          1    1    1    2  502    0 -0.46657346730E+02 -0.34528733052E+02  0.66959328691E+03  0.67210439017E+03  0.00000000000E+00 0. -1.
         22    1    3    3    0    0  0.33431593808E+02  0.89115401883E+02 -0.49214094738E+02  0.10715061100E+03  0.00000000000E+00 0. -1.
         22    1    3    3    0    0 -0.84906648495E+01 -0.28136753774E+02 -0.76615420519E+02  0.82059069967E+02  0.00000000000E+00 0. -1.
</event>
<event>
 7    1  0.9986153E-006  0.6120500E+02  0.7818608E-02  0.1457423E+00
          2   -1    0    0  502    0  0.00000000000E+00  0.00000000000E+00  0.12373929061E+04  0.12373929061E+04  0.00000000000E+00 0. -1.
          1   -1    0    0  501    0 -0.00000000000E+00 -0.00000000000E+00 -0.99079819362E+03  0.99079819362E+03  0.00000000000E+00 0. -1.
         25    2    1    2    0    0  0.26907334620E+02  0.64007732552E+02 -0.26360446905E+03  0.29988869490E+03  0.12499967498E+03 0.  0.
          2    1    1    2  501    0  0.23403166913E+02 -0.29139796527E+02 -0.70778998171E+03  0.70877605361E+03  0.00000000000E+00 0. -1.
          1    1    1    2  502    0 -0.50310501533E+02 -0.34867936025E+02  0.12179891632E+04  0.12195263512E+04  0.00000000000E+00 0. -1.
         22    1    3    3    0    0  0.23507855071E+02  0.43559467945E+02 -0.27276941107E+03  0.27722409367E+03  0.00000000000E+00 0. -1.
         22    1    3    3    0    0  0.33994795489E+01  0.20448264607E+02  0.91649420202E+01  0.22664601229E+02  0.00000000000E+00 0. -1.
</event>
<event>
 7    1  0.6358809E-006  0.1315863E+03  0.7818608E-02  0.1313676E+00
          2   -1    0    0  502    0  0.00000000000E+00  0.00000000000E+00  0.50921950614E+03  0.50921950614E+03  0.00000000000E+00 0. -1.
          1   -1    0    0  501    0 -0.00000000000E+00 -0.00000000000E+00 -0.10574128646E+04  0.10574128646E+04  0.00000000000E+00 0. -1.
         25    2    1    2    0    0 -0.17789437620E+03  0.84366022832E+01 -0.19884074876E+03  0.29475546028E+03  0.12500221062E+03 0.  0.
          2    1    1    2  501    0  0.49168640738E+02 -0.26346612397E+02 -0.80046997881E+03  0.80241129491E+03  0.00000000000E+00 0. -1.
          1    1    1    2  502    0  0.12872573546E+03  0.17910010114E+02  0.45111736913E+03  0.46946561552E+03  0.00000000000E+00 0. -1.
         22    1    3    3    0    0 -0.97418091544E+02  0.65636741327E+02 -0.12446322940E+03  0.17114193480E+03  0.00000000000E+00 0.  1.
         22    1    3    3    0    0 -0.80476284657E+02 -0.57200139044E+02 -0.74377519351E+02  0.12361352549E+03  0.00000000000E+00 0.  1.
</event>
<event>
 7    1  0.6358809E-006  0.1154677E+03  0.7818608E-02  0.1391909E+00
          2   -1    0    0  502    0  0.00000000000E+00  0.00000000000E+00  0.13196650582E+03  0.13196650582E+03  0.00000000000E+00 0. -1.
          1   -1    0    0  501    0 -0.00000000000E+00 -0.00000000000E+00 -0.42828763283E+03  0.42828763283E+03  0.00000000000E+00 0. -1.
         25    2    1    2    0    0 -0.47525603572E+02 -0.98109763390E+02 -0.87623250798E+02  0.18757993328E+03  0.12499675445E+03 0.  0.
          2    1    1    2  501    0  0.26882024030E+02 -0.18593737040E+02 -0.24620524957E+03  0.24836544685E+03  0.00000000000E+00 0. -1.
          1    1    1    2  502    0  0.20643579543E+02  0.11670350043E+03  0.37507373361E+02  0.12430875852E+03  0.00000000000E+00 0. -1.
         22    1    3    3    0    0 -0.42991450459E+02 -0.30791550949E+02  0.23269607947E+02  0.57774207709E+02  0.00000000000E+00 0.  1.
         22    1    3    3    0    0 -0.45341531137E+01 -0.67318212441E+02 -0.11089285875E+03  0.12980572557E+03  0.00000000000E+00 0.  1.
</event>
<event>
 7    1  0.6358809E-006  0.1110624E+03  0.7818608E-02  0.1384162E+00
          2   -1    0    0  502    0  0.00000000000E+00  0.00000000000E+00  0.30698337850E+03  0.30698337850E+03  0.00000000000E+00 0. -1.
          1   -1    0    0  501    0 -0.00000000000E+00 -0.00000000000E+00 -0.17073994033E+04  0.17073994033E+04  0.00000000000E+00 0. -1.
         25    2    1    2    0    0  0.26715835046E+02 -0.72705796814E+02 -0.13909949744E+02  0.14771304960E+03  0.12500315831E+03 0.  0.
          2    1    1    2  501    0 -0.50328561506E+02  0.10010729226E+03 -0.16232832037E+04  0.16271455969E+04  0.00000000000E+00 0. -1.
          1    1    1    2  502    0  0.23612726459E+02 -0.27401495450E+02  0.23677712858E+03  0.23952413537E+03  0.00000000000E+00 0. -1.
         22    1    3    3    0    0  0.59452322558E+02 -0.48109411551E+02  0.34845919800E+02  0.84043633097E+02  0.00000000000E+00 0. -1.
         22    1    3    3    0    0 -0.32736487512E+02 -0.24596385262E+02 -0.48755869544E+02  0.63669416501E+02  0.00000000000E+00 0. -1.
</event>
<event>
 7    1  0.6358809E-006  0.1356065E+03  0.7818608E-02  0.1302158E+00
          2   -1    0    0  502    0  0.00000000000E+00  0.00000000000E+00  0.11279105007E+04  0.11279105007E+04  0.00000000000E+00 0. -1.
          1   -1    0    0  501    0 -0.00000000000E+00 -0.00000000000E+00 -0.48373429305E+02  0.48373429305E+02  0.00000000000E+00 0. -1.
         25    2    1    2    0    0 -0.33138164839E+02  0.11926443645E+03  0.39548484517E+03  0.43284527805E+03  0.12499851281E+03 0.  0.
          2    1    1    2  501    0 -0.59422889364E+02 -0.90853877889E+01  0.19071141437E+02  0.63066096179E+02  0.00000000000E+00 0. -1.
          1    1    1    2  502    0  0.92561054203E+02 -0.11017904866E+03  0.66498108481E+03  0.68037255579E+03  0.00000000000E+00 0. -1.
         22    1    3    3    0    0 -0.15535972047E+02  0.12070867072E+03  0.39688737028E+03  0.41512833474E+03  0.00000000000E+00 0. -1.
         22    1    3    3    0    0 -0.17602192792E+02 -0.14442342725E+01 -0.14025251129E+01  0.17716943314E+02  0.00000000000E+00 0. -1.
</event>
<event>
 7    1  0.6358809E-006  0.6588609E+02  0.7818608E-02  0.1415775E+00
          2   -1    0    0  502    0  0.00000000000E+00  0.00000000000E+00  0.22266240555E+04  0.22266240555E+04  0.00000000000E+00 0. -1.
          1   -1    0    0  501    0 -0.00000000000E+00 -0.00000000000E+00 -0.11265316998E+03  0.11265316998E+03  0.00000000000E+00 0. -1.
         25    2    1    2    0    0  0.18081867934E+02 -0.46236793674E+02  0.16016189386E+03  0.20914646788E+03  0.12500247095E+03 0.  0.
          2    1    1    2  501    0 -0.45178333207E+02 -0.14569785775E+02 -0.81186992707E+02  0.94046202654E+02  0.00000000000E+00 0. -1.
          1    1    1    2  502    0  0.27096465273E+02  0.60806579449E+02  0.20349959844E+04  0.20360845550E+04  0.00000000000E+00 0. -1.
         22    1    3    3    0    0  0.53145654620E+02 -0.80008300106E+01  0.14568929755E+03  0.15528633329E+03  0.00000000000E+00 0.  1.
         22    1    3    3    0    0 -0.35063786686E+02 -0.38235963664E+02  0.14472596316E+02  0.53860134591E+02  0.00000000000E+00 0.  1.
</event>
<event>
 7    1  0.6358809E-006  0.2155084E+03  0.7818608E-02  0.1304501E+00
          2   -1    0    0  502    0  0.00000000000E+00  0.00000000000E+00  0.37725776125E+03  0.37725776125E+03  0.00000000000E+00 0. -1.
          1   -1    0    0  501    0 -0.00000000000E+00 -0.00000000000E+00 -0.26102329242E+04  0.26102329242E+04  0.00000000000E+00 0. -1.
         25    2    1    2    0    0  0.11791622321E+03  0.15066983833E+03 -0.71409939832E+03  0.74978171697E+03  0.12501614512E+03 0.  0.
          2    1    1    2  501    0 -0.15164539987E+03 -0.16593213165E+03 -0.18705918528E+04  0.18840498081E+04  0.00000000000E+00 0. -1.
          1    1    1    2  502    0  0.33729176663E+02  0.15262293322E+02  0.35171608824E+03  0.35365916032E+03  0.00000000000E+00 0. -1.
         22    1    3    3    0    0  0.10010349011E+03  0.76211777440E+02 -0.59530376166E+03  0.60845337735E+03  0.00000000000E+00 0. -1.
         22    1    3    3    0    0  0.17812733095E+02  0.74458060892E+02 -0.11879563666E+03  0.14132833963E+03  0.00000000000E+00 0. -1.
</event>
<event>
 7    1  0.6358809E-006  0.1996994E+03  0.7818608E-02  0.1244598E+00
          2   -1    0    0  502    0  0.00000000000E+00  0.00000000000E+00  0.14687848639E+04  0.14687848639E+04  0.00000000000E+00 0. -1.
          1   -1    0    0  501    0 -0.00000000000E+00 -0.00000000000E+00 -0.18603021171E+03  0.18603021171E+03  0.00000000000E+00 0. -1.
         25    2    1    2    0    0  0.17907318970E+03 -0.15274662726E+03  0.54556291424E+03  0.60717559865E+03  0.12499829918E+03 0.  0.
          2    1    1    2  501    0 -0.80495860079E+01  0.70567211833E+02 -0.13634381253E+03  0.15373406401E+03  0.00000000000E+00 0. -1.
          1    1    1    2  502    0 -0.17102360370E+03  0.82179415426E+02  0.87353555045E+03  0.89390541292E+03  0.00000000000E+00 0. -1.
         22    1    3    3    0    0  0.65341673198E+02  0.11572189892E+02  0.14887459010E+03  0.16299415146E+03  0.00000000000E+00 0. -1.
         22    1    3    3    0    0  0.11373151651E+03 -0.16431881715E+03  0.39668832414E+03  0.44418144719E+03  0.00000000000E+00 0. -1.
</event>
<event>
 7    1  0.6358809E-006  0.1876098E+03  0.7818608E-02  0.1230795E+00
          2   -1    0    0  502    0  0.00000000000E+00  0.00000000000E+00  0.11701186132E+04  0.11701186132E+04  0.00000000000E+00 0. -1.
          1   -1    0    0  501    0 -0.00000000000E+00 -0.00000000000E+00 -0.12253445251E+03  0.12253445251E+03  0.00000000000E+00 0. -1.
         25    2    1    2    0    0 -0.12016957762E+03  0.15445601958E+03  0.43498979742E+03  0.49309085917E+03  0.12500032866E+03 0.  0.
          2    1    1    2  501    0  0.81072955202E+02  0.31627539741E+02 -0.56644469344E+02  0.10383506750E+03  0.00000000000E+00 0. -1.
          1    1    1    2  502    0  0.39096622415E+02 -0.18608355932E+03  0.66923883259E+03  0.69572713903E+03  0.00000000000E+00 0. -1.
         22    1    3    3    0    0 -0.30701784494E+02  0.13604115898E+03  0.28879623666E+03  0.32070712935E+03  0.00000000000E+00 0.  1.
         22    1    3    3    0    0 -0.89467793123E+02  0.18414860601E+02  0.14619356076E+03  0.17238372982E+03  0.00000000000E+00 0.  1.
</event>
<event>
 7    1  0.6358809E-006  0.1123097E+03  0.7818608E-02  0.1288743E+00
          2   -1    0    0  502    0  0.00000000000E+00  0.00000000000E+00  0.11606938881E+04  0.11606938881E+04  0.00000000000E+00 0. -1.
          1   -1    0    0  501    0 -0.00000000000E+00 -0.00000000000E+00 -0.19254137096E+03  0.19254137096E+03  0.00000000000E+00 0. -1.
         25    2    1    2    0    0 -0.25104328352E+02 -0.17800671580E+03  0.93732450473E+01  0.21915631136E+03  0.12500005166E+03 0.  0.
          2    1    1    2  501    0  0.44549958585E+02  0.69093328620E+02 -0.64712713836E+02  0.10462467301E+03  0.00000000000E+00 0. -1.
          1    1    1    2  502    0 -0.19445630233E+02  0.10891338718E+03  0.10234919860E+04  0.10294542747E+04  0.00000000000E+00 0. -1.
         22    1    3    3    0    0 -0.20898394525E+02  0.10637203584E+02  0.19057389501E+02  0.30217165459E+02  0.00000000000E+00 0. -1.
         22    1    3    3    0    0 -0.42059338267E+01 -0.18864391938E+03 -0.96841444542E+01  0.18893914590E+03  0.00000000000E+00 0. -1.
</event>
<event>
 7    1  0.6358809E-006  0.4627742E+02  0.7818608E-02  0.1513324E+00
          2   -1    0    0  502    0  0.00000000000E+00  0.00000000000E+00  0.11844799849E+04  0.11844799849E+04  0.00000000000E+00 0. -1.
          1   -1    0    0  501    0 -0.00000000000E+00 -0.00000000000E+00 -0.21834341851E+04  0.21834341851E+04  0.00000000000E+00 0. -1.
         25    2    1    2    0    0 -0.65024278859E+02 -0.19167112268E+02  0.62677688979E+03  0.64270320422E+03  0.12499041607E+03 0.  0.
          2    1    1    2  501    0  0.21068727265E+02  0.25913607482E+02 -0.21744432483E+04  0.21746997141E+04  0.00000000000E+00 0. -1.
          1    1    1    2  502    0  0.43955551594E+02 -0.67464952144E+01  0.54871215822E+03  0.55051125174E+03  0.00000000000E+00 0. -1.
         22    1    3    3    0    0  0.19930495798E+02 -0.59077975834E+01  0.16887849784E+02  0.26782946167E+02  0.00000000000E+00 0.  1.
         22    1    3    3    0    0 -0.84954774658E+02 -0.13259314684E+02  0.60988904001E+03  0.61592025806E+03  0.00000000000E+00 0.  1.
</event>
<event>
 7    1  0.6678345E-006  0.4900726E+02  0.7818608E-02  0.1510286E+00
          2   -1    0    0  502    0  0.00000000000E+00  0.00000000000E+00  0.10510113229E+04  0.10510113229E+04  0.00000000000E+00 0. -1.
          1   -1    0    0  501    0 -0.00000000000E+00 -0.00000000000E+00 -0.11063708726E+04  0.11063708726E+04  0.00000000000E+00 0. -1.
         25    2    1    2    0    0  0.23085732485E+02  0.41721992056E+01 -0.30777698731E+03  0.33301034923E+03  0.12497543955E+03 0.  0.
          2    1    1    2  501    0  0.22010977429E+02 -0.23491091952E+02 -0.78506766662E+03  0.78572740547E+03  0.00000000000E+00 0. -1.
          1    1    1    2  502    0 -0.45096709914E+02  0.19318892746E+02  0.10374851043E+04  0.10386444408E+04  0.00000000000E+00 0. -1.
         22    1    3    3    0    0 -0.38278318553E+01 -0.21247106296E+02 -0.29195309498E+03  0.29275023738E+03  0.00000000000E+00 0.  1.
         22    1    3    3    0    0  0.26913564340E+02  0.25419305501E+02 -0.15823892334E+02  0.40260111851E+02  0.00000000000E+00 0.  1.
</event>
<event>
 7    1  0.6358809E-006  0.6708285E+02  0.7818608E-02  0.1525811E+00
          2   -1    0    0  502    0  0.00000000000E+00  0.00000000000E+00  0.73117096986E+03  0.73117096986E+03  0.00000000000E+00 0. -1.
          1   -1    0    0  501    0 -0.00000000000E+00 -0.00000000000E+00 -0.39190432990E+03  0.39190432990E+03  0.00000000000E+00 0. -1.
         25    2    1    2    0    0  0.35087982893E+02 -0.40280141415E+02  0.10815906719E+03  0.17371805390E+03  0.12500368834E+03 0.  0.
          2    1    1    2  501    0 -0.48565646476E+01 -0.20629042823E+02 -0.35685091768E+03  0.35747967925E+03  0.00000000000E+00 0. -1.
          1    1    1    2  502    0 -0.30231418245E+02  0.60909184238E+02  0.58795849045E+03  0.59187756661E+03  0.00000000000E+00 0. -1.
         22    1    3    3    0    0  0.41798325083E+02 -0.52158989732E+02  0.13102621515E+03  0.14709020785E+03  0.00000000000E+00 0.  1.
         22    1    3    3    0    0 -0.67103421898E+01  0.11878848317E+02 -0.22867147956E+02  0.26627846051E+02  0.00000000000E+00 0.  1.
</event>
<event>
 7    1  0.6358809E-006  0.1229425E+03  0.7818608E-02  0.1307826E+00
          2   -1    0    0  502    0  0.00000000000E+00  0.00000000000E+00  0.43162565989E+03  0.43162565989E+03  0.00000000000E+00 0. -1.
          1   -1    0    0  501    0 -0.00000000000E+00 -0.00000000000E+00 -0.75111736764E+03  0.75111736764E+03  0.00000000000E+00 0. -1.
         25    2    1    2    0    0 -0.28282534303E+02 -0.13830872804E+03 -0.10545273375E+03  0.21604278039E+03  0.12499999162E+03 0.  0.
          2    1    1    2  501    0  0.75296002962E+02  0.96437697759E+02 -0.58132331492E+03  0.59405935232E+03  0.00000000000E+00 0. -1.
          1    1    1    2  502    0 -0.47013468659E+02  0.41871030277E+02  0.36728434092E+03  0.37264089482E+03  0.00000000000E+00 0. -1.
         22    1    3    3    0    0 -0.73446844868E+02 -0.10034541789E+03 -0.46853076619E+02  0.13288661596E+03  0.00000000000E+00 0. -1.
         22    1    3    3    0    0  0.45164310565E+02 -0.37963310143E+02 -0.58599657131E+02  0.83156164423E+02  0.00000000000E+00 0. -1.
</event>
<event>
 7    1  0.6358809E-006  0.1073754E+03  0.7818608E-02  0.1404386E+00
          2   -1    0    0  502    0  0.00000000000E+00  0.00000000000E+00  0.14552872497E+04  0.14552872497E+04  0.00000000000E+00 0. -1.
          1   -1    0    0  501    0 -0.00000000000E+00 -0.00000000000E+00 -0.20553894389E+03  0.20553894389E+03  0.00000000000E+00 0. -1.
         25    2    1    2    0    0  0.10202011290E+03 -0.30389951251E+02  0.11539461976E+04  0.11655677473E+04  0.12499877595E+03 0.  0.
          2    1    1    2  501    0  0.99997859859E+01  0.30222990525E+02 -0.18772453655E+03  0.19040463886E+03  0.00000000000E+00 0. -1.
          1    1    1    2  502    0 -0.11201989889E+03  0.16696072585E+00  0.28352664475E+03  0.30485380744E+03  0.00000000000E+00 0. -1.
         22    1    3    3    0    0 -0.22463157772E+02 -0.32686159741E+02  0.27133212605E+03  0.27421542831E+03  0.00000000000E+00 0.  1.
         22    1    3    3    0    0  0.12448327068E+03  0.22962084904E+01  0.88261407156E+03  0.89135231899E+03  0.00000000000E+00 0.  1.
</event>
<event>
 7    1  0.6358809E-006  0.5980432E+02  0.7818608E-02  0.1438027E+00
          2   -1    0    0  502    0  0.00000000000E+00  0.00000000000E+00  0.10480028395E+04  0.10480028395E+04  0.00000000000E+00 0. -1.
          1   -1    0    0  501    0 -0.00000000000E+00 -0.00000000000E+00 -0.99477587517E+03  0.99477587517E+03  0.00000000000E+00 0. -1.
         25    2    1    2    0    0 -0.42386920450E+02 -0.68527918232E+02 -0.11788963564E+02  0.14918451553E+03  0.12499725361E+03 0.  0.
          2    1    1    2  501    0 -0.86311744335E+00  0.59679989654E+02 -0.91281649759E+03  0.91476576477E+03  0.00000000000E+00 0. -1.
          1    1    1    2  502    0  0.43250037893E+02  0.88479285779E+01  0.97783242552E+03  0.97882843441E+03  0.00000000000E+00 0. -1.
         22    1    3    3    0    0  0.32515958061E+02 -0.59784746462E+02 -0.25236176682E+02  0.72583524657E+02  0.00000000000E+00 0. -1.
         22    1    3    3    0    0 -0.74902878511E+02 -0.87431717696E+01  0.13447213117E+02  0.76600990871E+02  0.00000000000E+00 0. -1.
</event>
<event>
 7    1  0.6358809E-006  0.1518399E+03  0.7818608E-02  0.1419003E+00
          2   -1    0    0  502    0  0.00000000000E+00  0.00000000000E+00  0.10913849427E+04  0.10913849427E+04  0.00000000000E+00 0. -1.
          1   -1    0    0  501    0 -0.00000000000E+00 -0.00000000000E+00 -0.16889057312E+04  0.16889057312E+04  0.00000000000E+00 0. -1.
         25    2    1    2    0    0 -0.15325880276E+03  0.60399652132E+02  0.11181566760E+03  0.23508257310E+03  0.12499877621E+03 0.  0.
          2    1    1    2  501    0  0.14572278551E+03 -0.41775573249E+02 -0.16236311825E+04  0.16306926582E+04  0.00000000000E+00 0. -1.
          1    1    1    2  502    0  0.75360172510E+01 -0.18624078883E+02  0.91429472644E+03  0.91451544255E+03  0.00000000000E+00 0. -1.
         22    1    3    3    0    0 -0.93005346747E+02 -0.28985966182E+02  0.38672534453E+02  0.10481290798E+03  0.00000000000E+00 0.  1.
         22    1    3    3    0    0 -0.60253456011E+02  0.89385618314E+02  0.73143133148E+02  0.13026966512E+03  0.00000000000E+00 0.  1.
</event>
<event>
 7    1  0.6358809E-006  0.1191160E+03  0.7818608E-02  0.1396587E+00
          2   -1    0    0  502    0  0.00000000000E+00  0.00000000000E+00  0.56143726865E+02  0.56143726865E+02  0.00000000000E+00 0. -1.
          1   -1    0    0  501    0 -0.00000000000E+00 -0.00000000000E+00 -0.18404987743E+04  0.18404987743E+04  0.00000000000E+00 0. -1.
         25    2    1    2    0    0 -0.15016298597E+02 -0.12374328229E+03 -0.30242264942E+03  0.35017305395E+03  0.12499527870E+03 0.  0.
          2    1    1    2  501    0  0.42735522404E+02  0.11096421958E+03 -0.15040703264E+04  0.15087633776E+04  0.00000000000E+00 0. -1.
          1    1    1    2  502    0 -0.27719223807E+02  0.12779062711E+02  0.22137928371E+02  0.37706069601E+02  0.00000000000E+00 0. -1.
         22    1    3    3    0    0  0.33078482802E+02 -0.68529875342E+02 -0.59915600216E+02  0.96852511522E+02  0.00000000000E+00 0.  1.
         22    1    3    3    0    0 -0.48094781399E+02 -0.55213406946E+02 -0.24250704920E+03  0.25332054243E+03  0.00000000000E+00 0.  1.
</event>
<event>
 7    1  0.6358809E-006  0.2039490E+03  0.7818608E-02  0.1154898E+00
          2   -1    0    0  502    0  0.00000000000E+00  0.00000000000E+00  0.25208398384E+04  0.25208398384E+04  0.00000000000E+00 0. -1.
          1   -1    0    0  501    0 -0.00000000000E+00 -0.00000000000E+00 -0.34758603924E+03  0.34758603924E+03  0.00000000000E+00 0. -1.
         25    2    1    2    0    0  0.59092639925E+02 -0.36136258133E+03  0.44881657460E+03  0.59257101040E+03  0.12501691663E+03 0.  0.
          2    1    1    2  501    0 -0.77364887667E+02  0.17772274320E+03 -0.23676582074E+03  0.30598815854E+03  0.00000000000E+00 0. -1.
          1    1    1    2  502    0  0.18272247742E+02  0.18363983814E+03  0.19612030453E+04  0.19698667087E+04  0.00000000000E+00 0. -1.
         22    1    3    3    0    0  0.88646536261E+02 -0.21288015677E+03  0.22365319443E+03  0.32124277567E+03  0.00000000000E+00 0. -1.
         22    1    3    3    0    0 -0.29553896336E+02 -0.14848242456E+03  0.22516338017E+03  0.27132823473E+03  0.00000000000E+00 0. -1.
</event>
<event>
 7    1  0.6358809E-006  0.3903182E+02  0.7818608E-02  0.1547450E+00
          2   -1    0    0  502    0  0.00000000000E+00  0.00000000000E+00  0.39773445459E+03  0.39773445459E+03  0.00000000000E+00 0. -1.
          1   -1    0    0  501    0 -0.00000000000E+00 -0.00000000000E+00 -0.63930304653E+03  0.63930304653E+03  0.00000000000E+00 0. -1.
         25    2    1    2    0    0 -0.66490203189E+02  0.18463257096E+02 -0.23090675951E+03  0.27148536896E+03  0.12499813994E+03 0.  0.
          2    1    1    2  501    0  0.27707957663E+02 -0.15230696821E+02 -0.38645649570E+03  0.38774776352E+03  0.00000000000E+00 0. -1.
          1    1    1    2  502    0  0.38782245526E+02 -0.32325602750E+01  0.37579466327E+03  0.37780436864E+03  0.00000000000E+00 0. -1.
         22    1    3    3    0    0 -0.31050326427E+02 -0.21004956778E+02 -0.21181947037E+03  0.21511117825E+03  0.00000000000E+00 0. -1.
         22    1    3    3    0    0 -0.35439876762E+02  0.39468213874E+02 -0.19087289142E+02  0.56374190709E+02  0.00000000000E+00 0. -1.
</event>
<event>
 7    1  0.6358809E-006  0.1113600E+03  0.7818608E-02  0.1354405E+00
          2   -1    0    0  502    0  0.00000000000E+00  0.00000000000E+00  0.64171781448E+03  0.64171781448E+03  0.00000000000E+00 0. -1.
          1   -1    0    0  501    0 -0.00000000000E+00 -0.00000000000E+00 -0.10182339206E+04  0.10182339206E+04  0.00000000000E+00 0. -1.
         25    2    1    2    0    0  0.56855424660E+02  0.12274372445E+03  0.10807555167E+03  0.21355070956E+03  0.12500007793E+03 0.  0.
          2    1    1    2  501    0  0.17493163972E+02 -0.42722197254E+02 -0.95873130370E+03  0.95984212744E+03  0.00000000000E+00 0. -1.
          1    1    1    2  502    0 -0.74348588632E+02 -0.80021527194E+02  0.47413964593E+03  0.48655889806E+03  0.00000000000E+00 0. -1.
         22    1    3    3    0    0  0.52935478691E+02 -0.64409104544E+01  0.19110272212E+02  0.56646736320E+02  0.00000000000E+00 0.  1.
         22    1    3    3    0    0  0.39199459695E+01  0.12918463490E+03  0.88965279453E+02  0.15690397324E+03  0.00000000000E+00 0.  1.
</event>
<event>
 7    1  0.6358809E-006  0.3337566E+02  0.7818608E-02  0.1644552E+00
          2   -1    0    0  502    0  0.00000000000E+00  0.00000000000E+00  0.31068543315E+04  0.31068543315E+04  0.00000000000E+00 0. -1.
          1   -1    0    0  501    0 -0.00000000000E+00 -0.00000000000E+00 -0.22165331695E+03  0.22165331695E+03  0.00000000000E+00 0. -1.
         25    2    1    2    0    0 -0.63173834969E+01  0.18583285375E+02  0.81968540368E+03  0.82940284538E+03  0.12505867056E+03 0.  0.
          2    1    1    2  501    0  0.14924044515E+02  0.14116142260E+02 -0.21618242293E+03  0.21715623998E+03  0.00000000000E+00 0. -1.
          1    1    1    2  502    0 -0.86066610183E+01 -0.32699427635E+02  0.22816980338E+04  0.22819485631E+04  0.00000000000E+00 0. -1.
         22    1    3    3    0    0  0.43980454727E+02 -0.17597408614E+02  0.16139743241E+03  0.16820547071E+03  0.00000000000E+00 0.  1.
         22    1    3    3    0    0 -0.50297838223E+02  0.36180693989E+02  0.65828797127E+03  0.66119737467E+03  0.00000000000E+00 0.  1.
</event>
<event>
 7    1  0.6358809E-006  0.4331822E+02  0.7818608E-02  0.1553693E+00
          2   -1    0    0  502    0  0.00000000000E+00  0.00000000000E+00  0.59208277065E+03  0.59208277065E+03  0.00000000000E+00 0. -1.
          1   -1    0    0  501    0 -0.00000000000E+00 -0.00000000000E+00 -0.11641508596E+04  0.11641508596E+04  0.00000000000E+00 0. -1.
         25    2    1    2    0    0  0.31769196567E+02 -0.55357089075E+02  0.10222720525E+03  0.17363003516E+03  0.12499319364E+03 0.  0.
          2    1    1    2  501    0 -0.75516580531E+01  0.42603731103E+02 -0.11276217835E+04  0.11284515905E+04  0.00000000000E+00 0. -1.
          1    1    1    2  502    0 -0.24217538513E+02  0.12753357972E+02  0.45332648934E+03  0.45415200456E+03  0.00000000000E+00 0. -1.
         22    1    3    3    0    0 -0.18898773658E+02 -0.65425090907E+02  0.10117721799E+03  0.12196079537E+03  0.00000000000E+00 0.  1.
         22    1    3    3    0    0  0.50667970224E+02  0.10068001832E+02  0.10499872561E+01  0.51669239793E+02  0.00000000000E+00 0.  1.
</event>
<event>
 7    1  0.6358809E-006  0.7921317E+02  0.7818608E-02  0.1342934E+00
          2   -1    0    0  502    0  0.00000000000E+00  0.00000000000E+00  0.84769973929E+03  0.84769973929E+03  0.00000000000E+00 0. -1.
          1   -1    0    0  501    0 -0.00000000000E+00 -0.00000000000E+00 -0.28285207548E+03  0.28285207548E+03  0.00000000000E+00 0. -1.
         25    2    1    2    0    0  0.31024657192E+02  0.38607684103E+02 -0.90551656522E+01  0.13475759829E+03  0.12499812657E+03 0.  0.
          2    1    1    2  501    0  0.48574451124E+02 -0.52584618512E+02 -0.20271448415E+03  0.21498321211E+03  0.00000000000E+00 0. -1.
          1    1    1    2  502    0 -0.79599108316E+02  0.13976934408E+02  0.77661731361E+03  0.78081100436E+03  0.00000000000E+00 0. -1.
         22    1    3    3    0    0  0.69518497425E+02  0.58041392343E+02  0.61684711996E+00  0.90564922623E+02  0.00000000000E+00 0.  1.
         22    1    3    3    0    0 -0.38493840233E+02 -0.19433708240E+02 -0.96720127721E+01  0.44192675670E+02  0.00000000000E+00 0.  1.
</event>
<event>
 7    1  0.6358809E-006  0.2393607E+03  0.7818608E-02  0.1232958E+00
          2   -1    0    0  502    0  0.00000000000E+00  0.00000000000E+00  0.30892250475E+04  0.30892250475E+04  0.00000000000E+00 0. -1.
          1   -1    0    0  501    0 -0.00000000000E+00 -0.00000000000E+00 -0.70347347680E+03  0.70347347680E+03  0.00000000000E+00 0. -1.
         25    2    1    2    0    0 -0.92071265243E+02  0.27960675107E+03  0.48342719576E+03  0.57964219891E+03  0.12500468804E+03 0.  0.
          2    1    1    2  501    0  0.44284663208E+02 -0.23306325958E+03 -0.63344419038E+03  0.67641049422E+03  0.00000000000E+00 0. -1.
          1    1    1    2  502    0  0.47786602035E+02 -0.46543491489E+02  0.25357685654E+04  0.25366458312E+04  0.00000000000E+00 0. -1.
         22    1    3    3    0    0  0.27283580965E+02  0.81245899002E+02  0.99521982885E+02  0.13133893167E+03  0.00000000000E+00 0.  1.
         22    1    3    3    0    0 -0.11935484621E+03  0.19836085206E+03  0.38390521288E+03  0.44830326724E+03  0.00000000000E+00 0.  1.
</event>
<event>
 7    1  0.6358809E-006  0.1688296E+03  0.7818608E-02  0.1211456E+00
          2   -1    0    0  502    0  0.00000000000E+00  0.00000000000E+00  0.13672872619E+04  0.13672872619E+04  0.00000000000E+00 0. -1.
          1   -1    0    0  501    0 -0.00000000000E+00 -0.00000000000E+00 -0.28977979834E+03  0.28977979834E+03  0.00000000000E+00 0. -1.
         25    2    1    2    0    0  0.22504296918E+03  0.84675802718E+02  0.57037909962E+03  0.63148340065E+03  0.12499855383E+03 0.  0.
          2    1    1    2  501    0 -0.11589718161E+03  0.24354639088E+02 -0.23736785243E+03  0.26527118675E+03  0.00000000000E+00 0. -1.
          1    1    1    2  502    0 -0.10914578757E+03 -0.10903044181E+03  0.74449621641E+03  0.76031247289E+03  0.00000000000E+00 0. -1.
         22    1    3    3    0    0  0.19505724868E+03  0.61353160740E+02  0.33068931502E+03  0.38880195944E+03  0.00000000000E+00 0.  1.
         22    1    3    3    0    0  0.29985720497E+02  0.23322641978E+02  0.23968978460E+03  0.24268144120E+03  0.00000000000E+00 0.  1.
</event>
<event>
 7    1  0.6358809E-006  0.1686572E+03  0.7818608E-02  0.1198542E+00
          2   -1    0    0  502    0  0.00000000000E+00  0.00000000000E+00  0.28894307924E+04  0.28894307924E+04  0.00000000000E+00 0. -1.
          1   -1    0    0  501    0 -0.00000000000E+00 -0.00000000000E+00 -0.87023235043E+03  0.87023235043E+03  0.00000000000E+00 0. -1.
         25    2    1    2    0    0 -0.95498969200E+02 -0.25843394438E+03  0.52190438769E+03  0.60325542078E+03  0.12499902435E+03 0.  0.
          2    1    1    2  501    0  0.96540516598E+02  0.96126794084E+02 -0.82110680487E+03  0.83233215539E+03  0.00000000000E+00 0. -1.
          1    1    1    2  502    0 -0.10415473981E+01  0.16230715030E+03  0.23184008591E+04  0.23240755667E+04  0.00000000000E+00 0. -1.
         22    1    3    3    0    0  0.78837251119E+01 -0.70653160678E+02  0.23239691296E+03  0.24302746222E+03  0.00000000000E+00 0.  1.
         22    1    3    3    0    0 -0.10338269431E+03 -0.18778078371E+03  0.28950747472E+03  0.36022795857E+03  0.00000000000E+00 0.  1.
</event>
<event>
 7    1  0.6358809E-006  0.2571361E+02  0.7818608E-02  0.1654032E+00
          2   -1    0    0  502    0  0.00000000000E+00  0.00000000000E+00  0.26678333021E+04  0.26678333021E+04  0.00000000000E+00 0. -1.
          1   -1    0    0  501    0 -0.00000000000E+00 -0.00000000000E+00 -0.87833561717E+02  0.87833561717E+02  0.00000000000E+00 0. -1.
         25    2    1    2    0    0  0.77537279464E+01 -0.48272463660E+01  0.16922312897E+04  0.16968657987E+04  0.12499351300E+03 0.  0.
          2    1    1    2  501    0  0.13083336251E+02  0.22136302855E+02 -0.83390236855E+02  0.87264661772E+02  0.00000000000E+00 0. -1.
          1    1    1    2  502    0 -0.20837064197E+02 -0.17309056489E+02  0.97115868751E+03  0.97153640334E+03  0.00000000000E+00 0. -1.
         22    1    3    3    0    0 -0.48762064669E+02 -0.15697397467E+01  0.34353593283E+03  0.34698291050E+03  0.00000000000E+00 0.  1.
         22    1    3    3    0    0  0.56515792615E+02 -0.32575066193E+01  0.13486953569E+04  0.13498828882E+04  0.00000000000E+00 0.  1.
</event>
<event>
 7    1  0.6358809E-006  0.7486906E+02  0.7818608E-02  0.1449587E+00
          2   -1    0    0  502    0  0.00000000000E+00  0.00000000000E+00  0.24474058476E+04  0.24474058476E+04  0.00000000000E+00 0. -1.
          1   -1    0    0  501    0 -0.00000000000E+00 -0.00000000000E+00 -0.26849584743E+02  0.26849584743E+02  0.00000000000E+00 0. -1.
         25    2    1    2    0    0 -0.51257650735E+02  0.18235872597E+02  0.68922248260E+03  0.70257569901E+03  0.12500035405E+03 0.  0.
          2    1    1    2  501    0  0.59480713207E+02 -0.49533451445E+02  0.54814125049E+02  0.94847806304E+02  0.00000000000E+00 0. -1.
          1    1    1    2  502    0 -0.82230624722E+01  0.31297578849E+02  0.16765196552E+04  0.16768319270E+04  0.00000000000E+00 0. -1.
         22    1    3    3    0    0  0.38103219176E+02 -0.62526114081E+01  0.12603260473E+03  0.13181490020E+03  0.00000000000E+00 0.  1.
         22    1    3    3    0    0 -0.89360869910E+02  0.24488484005E+02  0.56318987787E+03  0.57076079881E+03  0.00000000000E+00 0.  1.
</event>
<event>
 7    1  0.6358809E-006  0.1195033E+03  0.7818608E-02  0.1346816E+00
          2   -1    0    0  502    0  0.00000000000E+00  0.00000000000E+00  0.37006641948E+03  0.37006641948E+03  0.00000000000E+00 0. -1.
          1   -1    0    0  501    0 -0.00000000000E+00 -0.00000000000E+00 -0.41429002415E+03  0.41429002415E+03  0.00000000000E+00 0. -1.
         25    2    1    2    0    0 -0.76478942157E+00  0.88624001497E+02 -0.31074384466E+02  0.15634979241E+03  0.12499936669E+03 0.  0.
          2    1    1    2  501    0 -0.30240437231E+02 -0.12246036656E+03 -0.30631514085E+03  0.33127026871E+03  0.00000000000E+00 0. -1.
          1    1    1    2  502    0  0.31005226653E+02  0.33836365060E+02  0.29316592064E+03  0.29673638251E+03  0.00000000000E+00 0. -1.
         22    1    3    3    0    0  0.39104595812E+02  0.64647914938E+02 -0.64274163064E+02  0.99195213378E+02  0.00000000000E+00 0. -1.
         22    1    3    3    0    0 -0.39869385234E+02  0.23976086560E+02  0.33199778598E+02  0.57154579035E+02  0.00000000000E+00 0. -1.
</event>
<event>
 7    1  0.6358809E-006  0.5218822E+02  0.7818608E-02  0.1529412E+00
          2   -1    0    0  502    0  0.00000000000E+00  0.00000000000E+00  0.83945748469E+03  0.83945748469E+03  0.00000000000E+00 0. -1.
          1   -1    0    0  501    0 -0.00000000000E+00 -0.00000000000E+00 -0.17681226459E+04  0.17681226459E+04  0.00000000000E+00 0. -1.
         25    2    1    2    0    0 -0.57454274830E+02 -0.26382018156E+02  0.13840887554E+03  0.19691690870E+03  0.12498898962E+03 0.  0.
          2    1    1    2  501    0  0.34240104446E+02  0.39368772334E+02 -0.17382137218E+04  0.17389966152E+04  0.00000000000E+00 0. -1.
          1    1    1    2  502    0  0.23214170384E+02 -0.12986754178E+02  0.67113968513E+03  0.67166660662E+03  0.00000000000E+00 0. -1.
         22    1    3    3    0    0  0.32784004636E+02 -0.35174376440E+01  0.37092356991E+01  0.33180141004E+02  0.00000000000E+00 0.  1.
         22    1    3    3    0    0 -0.90238279467E+02 -0.22864580512E+02  0.13469963984E+03  0.16373676770E+03  0.00000000000E+00 0.  1.
</event>
<event>
 7    1  0.6358809E-006  0.1053682E+03  0.7818608E-02  0.1330064E+00
          2   -1    0    0  502    0  0.00000000000E+00  0.00000000000E+00  0.26414561453E+03  0.26414561453E+03  0.00000000000E+00 0. -1.
          1   -1    0    0  501    0 -0.00000000000E+00 -0.00000000000E+00 -0.10225876653E+04  0.10225876653E+04  0.00000000000E+00 0. -1.
         25    2    1    2    0    0  0.11598109226E+03 -0.61540865032E+02 -0.34297596085E+03  0.38793948528E+03  0.12500257072E+03 0.  0.
          2    1    1    2  501    0 -0.10268456575E+03  0.28274272375E+01 -0.64927925971E+03  0.65735505739E+03  0.00000000000E+00 0. -1.
          1    1    1    2  502    0 -0.13296526519E+02  0.58713437794E+02  0.23381316983E+03  0.24143873712E+03  0.00000000000E+00 0. -1.
         22    1    3    3    0    0  0.56675534648E+02 -0.20860788522E+02 -0.29586502715E+03  0.30196589711E+03  0.00000000000E+00 0.  1.
         22    1    3    3    0    0  0.59305557616E+02 -0.40680076510E+02 -0.47110933701E+02  0.85973588172E+02  0.00000000000E+00 0.  1.
</event>
<event>
 7    1  0.6358809E-006  0.1466200E+03  0.7818608E-02  0.1270472E+00
          2   -1    0    0  502    0  0.00000000000E+00  0.00000000000E+00  0.34149171860E+04  0.34149171860E+04  0.00000000000E+00 0. -1.
          1   -1    0    0  501    0 -0.00000000000E+00 -0.00000000000E+00 -0.13369783064E+04  0.13369783064E+04  0.00000000000E+00 0. -1.
         25    2    1    2    0    0 -0.37868475721E+02  0.15075979525E+03 -0.98699620971E+02  0.22255181488E+03  0.12500063123E+03 0.  0.
          2    1    1    2  501    0 -0.36628916471E+02 -0.14264106896E+03 -0.11713224600E+04  0.11805441362E+04  0.00000000000E+00 0. -1.
          1    1    1    2  502    0  0.74497392192E+02 -0.81187262896E+01  0.33479609605E+04  0.33487995414E+04  0.00000000000E+00 0. -1.
         22    1    3    3    0    0 -0.71409256240E+01  0.26385242194E+02  0.30256098737E+02  0.40775057758E+02  0.00000000000E+00 0.  1.
         22    1    3    3    0    0 -0.30727550097E+02  0.12437455305E+03 -0.12895571971E+03  0.18177675712E+03  0.00000000000E+00 0.  1.
</event>
<event>
 7    1  0.6358809E-006  0.8831677E+02  0.7818608E-02  0.1371685E+00
          2   -1    0    0  502    0  0.00000000000E+00  0.00000000000E+00  0.18584447326E+04  0.18584447326E+04  0.00000000000E+00 0. -1.
          1   -1    0    0  501    0 -0.00000000000E+00 -0.00000000000E+00 -0.26461138325E+02  0.26461138325E+02  0.00000000000E+00 0. -1.
         25    2    1    2    0    0  0.12253042623E+03  0.56546699421E+02  0.13256039421E+04  0.13383053936E+04  0.12499712282E+03 0.  0.
          2    1    1    2  501    0 -0.79021737011E+02 -0.31155981864E+02  0.78166971137E+02  0.11543485393E+03  0.00000000000E+00 0. -1.
          1    1    1    2  502    0 -0.43508689217E+02 -0.25390717558E+02  0.42821268108E+03  0.43116562341E+03  0.00000000000E+00 0. -1.
         22    1    3    3    0    0  0.18485651104E+02  0.75063979864E+02  0.62848445682E+03  0.63322115634E+03  0.00000000000E+00 0.  1.
         22    1    3    3    0    0  0.10404477512E+03 -0.18517280442E+02  0.69711948524E+03  0.70508423724E+03  0.00000000000E+00 0.  1.
</event>
<event>
 7    1  0.6358809E-006  0.1186297E+03  0.7818608E-02  0.1315583E+00
          2   -1    0    0  502    0  0.00000000000E+00  0.00000000000E+00  0.57162253365E+03  0.57162253365E+03  0.00000000000E+00 0. -1.
          1   -1    0    0  501    0 -0.00000000000E+00 -0.00000000000E+00 -0.24857939918E+04  0.24857939918E+04  0.00000000000E+00 0. -1.
         25    2    1    2    0    0  0.30275987112E+02 -0.14008807251E+03 -0.20817563739E+03  0.28196431238E+03  0.12500189598E+03 0.  0.
          2    1    1    2  501    0  0.25295274103E+02  0.11536865644E+03 -0.22374318833E+04  0.22405470783E+04  0.00000000000E+00 0. -1.
          1    1    1    2  502    0 -0.55571261215E+02  0.24719416069E+02  0.53143606254E+03  0.53490513474E+03  0.00000000000E+00 0. -1.
         22    1    3    3    0    0  0.57055378954E+02 -0.39467846496E+02 -0.29976766432E+02  0.75575351143E+02  0.00000000000E+00 0.  1.
         22    1    3    3    0    0 -0.26779391842E+02 -0.10062022601E+03 -0.17819887096E+03  0.20638896124E+03  0.00000000000E+00 0.  1.
</event>
<event>
 7    1  0.6358809E-006  0.2560748E+02  0.7818608E-02  0.1684240E+00
          2   -1    0    0  502    0  0.00000000000E+00  0.00000000000E+00  0.77568489854E+03  0.77568489854E+03  0.00000000000E+00 0. -1.
          1   -1    0    0  501    0 -0.00000000000E+00 -0.00000000000E+00 -0.49048442526E+03  0.49048442526E+03  0.00000000000E+00 0. -1.
         25    2    1    2    0    0  0.97667960560E+01 -0.14244136676E+02 -0.37162624147E+03  0.39246600454E+03  0.12500086254E+03 0.  0.
          2    1    1    2  501    0 -0.19241073688E+02 -0.95558913870E+01 -0.10715747390E+03  0.10928978996E+03  0.00000000000E+00 0. -1.
          1    1    1    2  502    0  0.94742776323E+01  0.23800028063E+02  0.76398418864E+03  0.76441352930E+03  0.00000000000E+00 0. -1.
         22    1    3    3    0    0 -0.43170095556E+02 -0.10860297992E+02 -0.51927133797E+02  0.68396128890E+02  0.00000000000E+00 0.  1.
         22    1    3    3    0    0  0.52936891612E+02 -0.33838386839E+01 -0.31969910767E+03  0.32406987565E+03  0.00000000000E+00 0.  1.
</event>
<event>
 7    1  0.6358809E-006  0.5910046E+02  0.7818608E-02  0.1474103E+00
          2   -1    0    0  502    0  0.00000000000E+00  0.00000000000E+00  0.11730131096E+04  0.11730131096E+04  0.00000000000E+00 0. -1.
          1   -1    0    0  501    0 -0.00000000000E+00 -0.00000000000E+00 -0.11555720046E+04  0.11555720046E+04  0.00000000000E+00 0. -1.
         25    2    1    2    0    0 -0.19101330293E+02  0.36884749618E+02  0.10764623950E+03  0.17011260373E+03  0.12500095798E+03 0.  0.
          2    1    1    2  501    0  0.52237237899E+02 -0.27940154388E+02 -0.11232733104E+04  0.11248343483E+04  0.00000000000E+00 0. -1.
          1    1    1    2  502    0 -0.33135907606E+02 -0.89445952296E+01  0.10330681759E+04  0.10336381622E+04  0.00000000000E+00 0. -1.
         22    1    3    3    0    0 -0.31167525087E+02  0.60100169221E+02  0.92896002672E+01  0.68335507853E+02  0.00000000000E+00 0. -1.
         22    1    3    3    0    0  0.12066194794E+02 -0.23215419603E+02  0.98356639230E+02  0.10177709587E+03  0.00000000000E+00 0. -1.
</event>
<event>
 7    1  0.6358809E-006  0.1201600E+03  0.7818608E-02  0.1269499E+00
          2   -1    0    0  502    0  0.00000000000E+00  0.00000000000E+00  0.14246802731E+03  0.14246802731E+03  0.00000000000E+00 0. -1.
          1   -1    0    0  501    0 -0.00000000000E+00 -0.00000000000E+00 -0.24125507144E+04  0.24125507144E+04  0.00000000000E+00 0. -1.
         25    2    1    2    0    0 -0.20082623267E+02 -0.43743530205E+02 -0.13088284329E+03  0.18727670797E+03  0.12500175395E+03 0.  0.
          2    1    1    2  501    0 -0.54636255559E+02 -0.74398217128E+02 -0.22093936269E+04  0.22113209658E+04  0.00000000000E+00 0. -1.
          1    1    1    2  502    0  0.74718878827E+02  0.11814174733E+03  0.70193783096E+02  0.15642106796E+03  0.00000000000E+00 0. -1.
         22    1    3    3    0    0 -0.26915012225E+02 -0.47295346891E+02 -0.15377736445E+03  0.16312187326E+03  0.00000000000E+00 0.  1.
         22    1    3    3    0    0  0.68323889581E+01  0.35518166862E+01  0.22894521161E+02  0.24154834710E+02  0.00000000000E+00 0.  1.
</event>
<event>
 7    1  0.6358809E-006  0.5942690E+02  0.7818608E-02  0.1511429E+00
          2   -1    0    0  502    0  0.00000000000E+00  0.00000000000E+00  0.88539386767E+03  0.88539386767E+03  0.00000000000E+00 0. -1.
          1   -1    0    0  501    0 -0.00000000000E+00 -0.00000000000E+00 -0.31128398494E+03  0.31128398494E+03  0.00000000000E+00 0. -1.
         25    2    1    2    0    0 -0.65488604673E+02 -0.79754827589E+01  0.22437975883E+02  0.14311416717E+03  0.12500334562E+03 0.  0.
          2    1    1    2  501    0  0.51179665780E+02  0.30093376664E+02 -0.24721406391E+03  0.25424351103E+03  0.00000000000E+00 0. -1.
          1    1    1    2  502    0  0.14308938892E+02 -0.22117893905E+02  0.79888597075E+03  0.79932017442E+03  0.00000000000E+00 0. -1.
         22    1    3    3    0    0 -0.10250919758E+03 -0.64731997107E+01  0.25820294056E+02  0.10590904347E+03  0.00000000000E+00 0. -1.
         22    1    3    3    0    0  0.37020592907E+02 -0.15022830483E+01 -0.33823181732E+01  0.37205123703E+02  0.00000000000E+00 0. -1.
</event>
<event>
 7    1  0.6358809E-006  0.9866404E+02  0.7818608E-02  0.1373506E+00
          2   -1    0    0  502    0  0.00000000000E+00  0.00000000000E+00  0.18396357099E+04  0.18396357099E+04  0.00000000000E+00 0. -1.
          1   -1    0    0  501    0 -0.00000000000E+00 -0.00000000000E+00 -0.12232185763E+04  0.12232185763E+04  0.00000000000E+00 0. -1.
         25    2    1    2    0    0 -0.68644820568E+02  0.55388759065E+02  0.10000812200E+04  0.10117152530E+04  0.12500112221E+03 0.  0.
          2    1    1    2  501    0  0.96491369810E+02 -0.20780194683E+02 -0.12148068381E+04  0.12188100979E+04  0.00000000000E+00 0. -1.
          1    1    1    2  502    0 -0.27846549242E+02 -0.34608564382E+02  0.83114275158E+03  0.83232893530E+03  0.00000000000E+00 0. -1.
         22    1    3    3    0    0 -0.17153479190E+02 -0.13759690357E+02  0.67614721332E+03  0.67650471174E+03  0.00000000000E+00 0.  1.
         22    1    3    3    0    0 -0.51491341378E+02  0.69148449422E+02  0.32393400669E+03  0.33521054128E+03  0.00000000000E+00 0.  1.
</event>
<event>
 7    1  0.6358809E-006  0.2834774E+03  0.7818608E-02  0.1157722E+00
          2   -1    0    0  502    0  0.00000000000E+00  0.00000000000E+00  0.16502228121E+04  0.16502228121E+04  0.00000000000E+00 0. -1.
          1   -1    0    0  501    0 -0.00000000000E+00 -0.00000000000E+00 -0.23696442648E+03  0.23696442648E+03  0.00000000000E+00 0. -1.
         25    2    1    2    0    0 -0.13777409021E+03 -0.23887233798E+03  0.38288686273E+03  0.48812784838E+03  0.12499901174E+03 0.  0.
          2    1    1    2  501    0  0.24162064285E+03  0.16327015273E+03 -0.62857554135E+02  0.29830982206E+03  0.00000000000E+00 0. -1.
          1    1    1    2  502    0 -0.10384655264E+03  0.75602185250E+02  0.10932290770E+04  0.11007495681E+04  0.00000000000E+00 0. -1.
         22    1    3    3    0    0 -0.15774344185E+02 -0.13978984989E+02 -0.66319492968E+01  0.22095807459E+02  0.00000000000E+00 0.  1.
         22    1    3    3    0    0 -0.12199974602E+03 -0.22489335299E+03  0.38951881202E+03  0.46603204093E+03  0.00000000000E+00 0.  1.
</event>
<event>
 7    1  0.6358809E-006  0.1029856E+03  0.7818608E-02  0.1278859E+00
          2   -1    0    0  502    0  0.00000000000E+00  0.00000000000E+00  0.40910340033E+03  0.40910340033E+03  0.00000000000E+00 0. -1.
          1   -1    0    0  501    0 -0.00000000000E+00 -0.00000000000E+00 -0.43242996090E+03  0.43242996090E+03  0.00000000000E+00 0. -1.
         25    2    1    2    0    0 -0.10875721043E+02 -0.10819314578E+03  0.60046273954E+02  0.17622305213E+03  0.12499988394E+03 0.  0.
          2    1    1    2  501    0 -0.79515713956E+02  0.69212275082E+02 -0.35819746961E+03  0.37338788816E+03  0.00000000000E+00 0. -1.
          1    1    1    2  502    0  0.90391434999E+02  0.38980870702E+02  0.27482463508E+03  0.29192242095E+03  0.00000000000E+00 0. -1.
         22    1    3    3    0    0  0.28507710758E+02 -0.74735467846E+02 -0.18596405371E+02  0.82121288467E+02  0.00000000000E+00 0.  1.
         22    1    3    3    0    0 -0.39383431801E+02 -0.33457677938E+02  0.78642679325E+02  0.94101763665E+02  0.00000000000E+00 0.  1.
</event>
<event>
 7    1  0.6358809E-006  0.1844036E+03  0.7818608E-02  0.1240671E+00
          2   -1    0    0  502    0  0.00000000000E+00  0.00000000000E+00  0.17332375719E+04  0.17332375719E+04  0.00000000000E+00 0. -1.
          1   -1    0    0  501    0 -0.00000000000E+00 -0.00000000000E+00 -0.49142128067E+03  0.49142128067E+03  0.00000000000E+00 0. -1.
         25    2    1    2    0    0  0.15908257386E+03  0.18807498651E+03 -0.14434760097E+03  0.31167594735E+03  0.12500480149E+03 0.  0.
          2    1    1    2  501    0 -0.76093988491E+02 -0.24793821857E+02 -0.25210693583E+03  0.26450507704E+03  0.00000000000E+00 0. -1.
          1    1    1    2  502    0 -0.82988585374E+02 -0.16328116465E+03  0.16382708280E+04  0.16484778282E+04  0.00000000000E+00 0. -1.
         22    1    3    3    0    0 -0.10574904056E+02  0.66919352531E+02 -0.36476959064E+02  0.76945414948E+02  0.00000000000E+00 0.  1.
         22    1    3    3    0    0  0.16965747792E+03  0.12115563398E+03 -0.10787064190E+03  0.23473053240E+03  0.00000000000E+00 0.  1.
</event>
<event>
 7    1  0.6358809E-006  0.9323324E+02  0.7818608E-02  0.1301250E+00
          2   -1    0    0  502    0  0.00000000000E+00  0.00000000000E+00  0.63183712025E+03  0.63183712025E+03  0.00000000000E+00 0. -1.
          1   -1    0    0  501    0 -0.00000000000E+00 -0.00000000000E+00 -0.49762818972E+03  0.49762818972E+03  0.00000000000E+00 0. -1.
         25    2    1    2    0    0  0.11682570334E+02 -0.59128995698E+02  0.33150152471E+03  0.35937591326E+03  0.12500026226E+03 0.  0.
          2    1    1    2  501    0  0.72082138663E+02 -0.50770354654E+02 -0.46261407088E+03  0.47094080541E+03  0.00000000000E+00 0. -1.
          1    1    1    2  502    0 -0.83764708997E+02  0.10989935035E+03  0.26532147670E+03  0.29914859130E+03  0.00000000000E+00 0. -1.
         22    1    3    3    0    0  0.28389064566E+02  0.14868708664E+02  0.23226435815E+03  0.23446481516E+03  0.00000000000E+00 0. -1.
         22    1    3    3    0    0 -0.16706494232E+02 -0.73997704363E+02  0.99237166565E+02  0.12491109810E+03  0.00000000000E+00 0. -1.
</event>
<event>
 7    1  0.6358809E-006  0.8297638E+02  0.7818608E-02  0.1443663E+00
          2   -1    0    0  502    0  0.00000000000E+00  0.00000000000E+00  0.18696490033E+04  0.18696490033E+04  0.00000000000E+00 0. -1.
          1   -1    0    0  501    0 -0.00000000000E+00 -0.00000000000E+00 -0.13333042576E+04  0.13333042576E+04  0.00000000000E+00 0. -1.
         25    2    1    2    0    0  0.38066126814E+02  0.45762044034E+02  0.15190000314E+03  0.20552915007E+03  0.12500170355E+03 0.  0.
          2    1    1    2  501    0 -0.26957443202E+01  0.30387517836E+02 -0.13052690500E+04  0.13056255057E+04  0.00000000000E+00 0. -1.
          1    1    1    2  502    0 -0.35370382494E+02 -0.76149561870E+02  0.16897137926E+04  0.16917986052E+04  0.00000000000E+00 0. -1.
         22    1    3    3    0    0 -0.46759028358E+01  0.62250782042E+01 -0.21366869637E+02  0.22741125392E+02  0.00000000000E+00 0. -1.
         22    1    3    3    0    0  0.42742029650E+02  0.39536965830E+02  0.17326687277E+03  0.18278802468E+03  0.00000000000E+00 0. -1.
</event>
<event>
 7    1  0.6358809E-006  0.1406065E+03  0.7818608E-02  0.1383537E+00
          2   -1    0    0  502    0  0.00000000000E+00  0.00000000000E+00  0.75919300063E+03  0.75919300063E+03  0.00000000000E+00 0. -1.
          1   -1    0    0  501    0 -0.00000000000E+00 -0.00000000000E+00 -0.92955443933E+03  0.92955443933E+03  0.00000000000E+00 0. -1.
         25    2    1    2    0    0 -0.70184201560E+02  0.10854712873E+03  0.17562234494E+03  0.25134943562E+03  0.12500011776E+03 0.  0.
          2    1    1    2  501    0  0.52207403240E+02 -0.13094076584E+03 -0.88573564048E+03  0.89688278048E+03  0.00000000000E+00 0. -1.
          1    1    1    2  502    0  0.17976798319E+02  0.22393637104E+02  0.53975185684E+03  0.54051522385E+03  0.00000000000E+00 0. -1.
         22    1    3    3    0    0 -0.58537654293E+02  0.13481482698E+03  0.12411760612E+03  0.19237170970E+03  0.00000000000E+00 0. -1.
         22    1    3    3    0    0 -0.11646547266E+02 -0.26267698244E+02  0.51504738826E+02  0.58977725929E+02  0.00000000000E+00 0. -1.
</event>
<event>
 7    1  0.6358809E-006  0.2059815E+03  0.7818608E-02  0.1290420E+00
          2   -1    0    0  502    0  0.00000000000E+00  0.00000000000E+00  0.89881147899E+03  0.89881147899E+03  0.00000000000E+00 0. -1.
          1   -1    0    0  501    0 -0.00000000000E+00 -0.00000000000E+00 -0.78338100292E+03  0.78338100292E+03  0.00000000000E+00 0. -1.
         25    2    1    2    0    0 -0.11355963952E+03  0.21550015621E+03 -0.94078129253E+02  0.28950222077E+03  0.12499892951E+03 0.  0.
          2    1    1    2  501    0  0.91539493730E+02 -0.17726154423E+03 -0.57413295463E+03  0.60780735728E+03  0.00000000000E+00 0. -1.
          1    1    1    2  502    0  0.22020145787E+02 -0.38238611977E+02  0.78364155996E+03  0.78488290386E+03  0.00000000000E+00 0. -1.
         22    1    3    3    0    0 -0.72403744881E+02  0.15055644145E+03 -0.12289289816E+03  0.20739384936E+03  0.00000000000E+00 0.  1.
         22    1    3    3    0    0 -0.41155894636E+02  0.64943714761E+02  0.28814768902E+02  0.82108371419E+02  0.00000000000E+00 0.  1.
</event>
<event>
 7    1  0.6358809E-006  0.1426295E+03  0.7818608E-02  0.1322583E+00
          2   -1    0    0  502    0  0.00000000000E+00  0.00000000000E+00  0.15127997939E+03  0.15127997939E+03  0.00000000000E+00 0. -1.
          1   -1    0    0  501    0 -0.00000000000E+00 -0.00000000000E+00 -0.16268487953E+04  0.16268487953E+04  0.00000000000E+00 0. -1.
         25    2    1    2    0    0  0.12540024886E+03 -0.12447532682E+03 -0.26182984562E+03  0.33970537232E+03  0.12500217008E+03 0.  0.
          2    1    1    2  501    0 -0.46143945575E+02  0.11336784337E+02 -0.12830107514E+04  0.12838903281E+04  0.00000000000E+00 0. -1.
          1    1    1    2  502    0 -0.79256303290E+02  0.11313854248E+03  0.69271781059E+02  0.15453307431E+03  0.00000000000E+00 0. -1.
         22    1    3    3    0    0  0.14592508957E+02  0.87146684964E+01 -0.10386596711E+03  0.10524745075E+03  0.00000000000E+00 0.  1.
         22    1    3    3    0    0  0.11080773991E+03 -0.13318999531E+03 -0.15796387850E+03  0.23445792157E+03  0.00000000000E+00 0.  1.
</event>
<event>
 7    1  0.6358809E-006  0.2976874E+03  0.7818608E-02  0.1260563E+00
          2   -1    0    0  502    0  0.00000000000E+00  0.00000000000E+00  0.59429550245E+03  0.59429550245E+03  0.00000000000E+00 0. -1.
          1   -1    0    0  501    0 -0.00000000000E+00 -0.00000000000E+00 -0.82243681098E+03  0.82243681098E+03  0.00000000000E+00 0. -1.
         25    2    1    2    0    0 -0.26675182267E+03 -0.90448122750E+02  0.25205846281E+03  0.39811509454E+03  0.12499904805E+03 0.  0.
          2    1    1    2  501    0 -0.28856728344E+02 -0.28629642990E+02 -0.65423908967E+03  0.65550068931E+03  0.00000000000E+00 0. -1.
          1    1    1    2  502    0  0.29560855102E+03  0.11907776574E+03  0.17403931834E+03  0.36311652958E+03  0.00000000000E+00 0. -1.
         22    1    3    3    0    0 -0.26960693309E+02 -0.15575687022E+01  0.93248566265E+02  0.97080379657E+02  0.00000000000E+00 0. -1.
         22    1    3    3    0    0 -0.23979112937E+03 -0.88890554048E+02  0.15880989654E+03  0.30103471488E+03  0.00000000000E+00 0. -1.
</event>
<event>
 7    1  0.6358809E-006  0.9094643E+02  0.7818608E-02  0.1379753E+00
          2   -1    0    0  502    0  0.00000000000E+00  0.00000000000E+00  0.31633456581E+04  0.31633456581E+04  0.00000000000E+00 0. -1.
          1   -1    0    0  501    0 -0.00000000000E+00 -0.00000000000E+00 -0.30398227392E+03  0.30398227392E+03  0.00000000000E+00 0. -1.
         25    2    1    2    0    0  0.11020777660E+03  0.70143310403E+02  0.29125028358E+03  0.34280834641E+03  0.12499998667E+03 0.  0.
          2    1    1    2  501    0 -0.45047715241E+02 -0.81818040217E+01 -0.27560408388E+03  0.27938119053E+03  0.00000000000E+00 0. -1.
          1    1    1    2  502    0 -0.65160061360E+02 -0.61961506381E+02  0.28437171845E+04  0.28451383951E+04  0.00000000000E+00 0. -1.
         22    1    3    3    0    0 -0.22346095870E+02  0.15538719676E+01  0.87013131157E+02  0.89850139190E+02  0.00000000000E+00 0. -1.
         22    1    3    3    0    0  0.13255387247E+03  0.68589438435E+02  0.20423715242E+03  0.25295820722E+03  0.00000000000E+00 0. -1.
</event>
<event>
 7    1  0.6358809E-006  0.1253688E+03  0.7818608E-02  0.1423933E+00
          2   -1    0    0  502    0  0.00000000000E+00  0.00000000000E+00  0.28295270017E+02  0.28295270017E+02  0.00000000000E+00 0. -1.
          1   -1    0    0  501    0 -0.00000000000E+00 -0.00000000000E+00 -0.11649435962E+04  0.11649435962E+04  0.00000000000E+00 0. -1.
         25    2    1    2    0    0  0.56076225114E+01 -0.11136316963E+03 -0.44969171603E+03  0.47987551683E+03  0.12499868480E+03 0.  0.
          2    1    1    2  501    0  0.68611784933E+01  0.13119951181E+03 -0.67380738580E+03  0.68649601661E+03  0.00000000000E+00 0. -1.
          1    1    1    2  502    0 -0.12468801005E+02 -0.19836342185E+02 -0.13149224364E+02  0.26867332788E+02  0.00000000000E+00 0. -1.
         22    1    3    3    0    0  0.27515088380E+01 -0.12027053839E+03 -0.45393373376E+03  0.46960452282E+03  0.00000000000E+00 0. -1.
         22    1    3    3    0    0  0.28561136734E+01  0.89073687642E+01  0.42420177239E+01  0.10270994012E+02  0.00000000000E+00 0. -1.
</event>
<event>
 7    1  0.6358809E-006  0.1245186E+03  0.7818608E-02  0.1331469E+00
          2   -1    0    0  502    0  0.00000000000E+00  0.00000000000E+00  0.26830686090E+03  0.26830686090E+03  0.00000000000E+00 0. -1.
          1   -1    0    0  501    0 -0.00000000000E+00 -0.00000000000E+00 -0.86665523367E+03  0.86665523367E+03  0.00000000000E+00 0. -1.
         25    2    1    2    0    0  0.52861810023E+02 -0.13002574205E+03 -0.24445555407E+03  0.30835696544E+03  0.12499774265E+03 0.  0.
          2    1    1    2  501    0 -0.83476615137E+02  0.90094562919E+02 -0.58107694954E+03  0.59391564791E+03  0.00000000000E+00 0. -1.
          1    1    1    2  502    0  0.30614805114E+02  0.39931179127E+02  0.22718413085E+03  0.23268948122E+03  0.00000000000E+00 0. -1.
         22    1    3    3    0    0  0.48605054402E+02 -0.11847008606E+03 -0.25922420757E+03  0.28912765761E+03  0.00000000000E+00 0.  1.
         22    1    3    3    0    0  0.42567556203E+01 -0.11555655987E+02  0.14768653496E+02  0.19229307835E+02  0.00000000000E+00 0.  1.
</event>
<event>
 7    1  0.6358809E-006  0.8667179E+02  0.7818608E-02  0.1430354E+00
          2   -1    0    0  502    0  0.00000000000E+00  0.00000000000E+00  0.21527095516E+03  0.21527095516E+03  0.00000000000E+00 0. -1.
          1   -1    0    0  501    0 -0.00000000000E+00 -0.00000000000E+00 -0.11381162653E+03  0.11381162653E+03  0.00000000000E+00 0. -1.
         25    2    1    2    0    0 -0.83860321215E+02  0.23554036069E+02  0.54461882537E+02  0.16179674172E+03  0.12499897156E+03 0.  0.
          2    1    1    2  501    0  0.87556007281E+02  0.85076277844E+01 -0.22378562492E+02  0.90770227502E+02  0.00000000000E+00 0. -1.
          1    1    1    2  502    0 -0.36956860663E+01 -0.32061663853E+02  0.69376008589E+02  0.76515612474E+02  0.00000000000E+00 0. -1.
         22    1    3    3    0    0 -0.13184605212E+01  0.60532707143E+02  0.11353427629E+02  0.61602331865E+02  0.00000000000E+00 0.  1.
         22    1    3    3    0    0 -0.82541860694E+02 -0.36978671075E+02  0.43108454908E+02  0.10019440985E+03  0.00000000000E+00 0.  1.
</event>
<event>
 7    1  0.6358809E-006  0.2748789E+03  0.7818608E-02  0.1155381E+00
          2   -1    0    0  502    0  0.00000000000E+00  0.00000000000E+00  0.71497844175E+03  0.71497844175E+03  0.00000000000E+00 0. -1.
          1   -1    0    0  501    0 -0.00000000000E+00 -0.00000000000E+00 -0.15787212324E+04  0.15787212324E+04  0.00000000000E+00 0. -1.
         25    2    1    2    0    0 -0.33244634818E+03 -0.99187944720E+02 -0.10441265099E+04  0.11073317644E+04  0.12499857967E+03 0.  0.
          2    1    1    2  501    0  0.19631184055E+03  0.10130026735E+03 -0.47135851604E+03  0.52055636923E+03  0.00000000000E+00 0. -1.
          1    1    1    2  502    0  0.13613450763E+03 -0.21123226330E+01  0.65174223536E+03  0.66581154047E+03  0.00000000000E+00 0. -1.
         22    1    3    3    0    0 -0.79867759745E+02 -0.58812055585E+02 -0.44444104621E+03  0.45537408851E+03  0.00000000000E+00 0.  1.
         22    1    3    3    0    0 -0.25257858844E+03 -0.40375889135E+02 -0.59968546373E+03  0.65195767590E+03  0.00000000000E+00 0.  1.
</event>
<event>
 7    1  0.6358809E-006  0.1042513E+03  0.7818608E-02  0.1295524E+00
          2   -1    0    0  502    0  0.00000000000E+00  0.00000000000E+00  0.38232929613E+04  0.38232929613E+04  0.00000000000E+00 0. -1.
          1   -1    0    0  501    0 -0.00000000000E+00 -0.00000000000E+00 -0.90370757132E+02  0.90370757132E+02  0.00000000000E+00 0. -1.
         25    2    1    2    0    0  0.92338959697E+02 -0.11366622620E+03  0.40706790842E+03  0.45030547736E+03  0.12499698563E+03 0.  0.
          2    1    1    2  501    0 -0.10039761159E+02  0.10192087884E+03 -0.29809933958E+02  0.10666440133E+03  0.00000000000E+00 0. -1.
          1    1    1    2  502    0 -0.82299198539E+02  0.11745347352E+02  0.33556642297E+04  0.33566938398E+04  0.00000000000E+00 0. -1.
         22    1    3    3    0    0 -0.31255160089E+02 -0.18954751698E+02  0.68327814893E+02  0.77491018396E+02  0.00000000000E+00 0. -1.
         22    1    3    3    0    0  0.12359411979E+03 -0.94711474498E+02  0.33874009353E+03  0.37281445896E+03  0.00000000000E+00 0. -1.
</event>
<event>
 7    1  0.6358809E-006  0.7291387E+02  0.7818608E-02  0.1433977E+00
          2   -1    0    0  502    0  0.00000000000E+00  0.00000000000E+00  0.22458567598E+03  0.22458567598E+03  0.00000000000E+00 0. -1.
          1   -1    0    0  501    0 -0.00000000000E+00 -0.00000000000E+00 -0.50300875438E+03  0.50300875438E+03  0.00000000000E+00 0. -1.
         25    2    1    2    0    0  0.19930278387E+02 -0.67344590238E+02 -0.10397051751E+03  0.17710612527E+03  0.12499680503E+03 0.  0.
          2    1    1    2  501    0 -0.53569648975E+02  0.51166225273E+02 -0.35677471757E+03  0.36438426009E+03  0.00000000000E+00 0. -1.
          1    1    1    2  502    0  0.33639370589E+02  0.16178364965E+02  0.18232215669E+03  0.18610404500E+03  0.00000000000E+00 0. -1.
         22    1    3    3    0    0  0.53109295065E+02 -0.23375033743E+02  0.15796767744E+01  0.58047263531E+02  0.00000000000E+00 0.  1.
         22    1    3    3    0    0 -0.33179016678E+02 -0.43969556495E+02 -0.10555019428E+03  0.11905886174E+03  0.00000000000E+00 0.  1.
</event>
<event>
 7    1  0.6358809E-006  0.1131472E+03  0.7818608E-02  0.1372973E+00
          2   -1    0    0  502    0  0.00000000000E+00  0.00000000000E+00  0.82072784646E+03  0.82072784646E+03  0.00000000000E+00 0. -1.
          1   -1    0    0  501    0 -0.00000000000E+00 -0.00000000000E+00 -0.11324829173E+03  0.11324829173E+03  0.00000000000E+00 0. -1.
         25    2    1    2    0    0 -0.41129349386E+02 -0.12869840960E+03  0.31790442483E+03  0.36734552694E+03  0.12499843527E+03 0.  0.
          2    1    1    2  501    0  0.64386423306E+01  0.11108714960E+03 -0.52366443009E+02  0.12297989785E+03  0.00000000000E+00 0. -1.
          1    1    1    2  502    0  0.34690707056E+02  0.17611260003E+02  0.44194157291E+03  0.44365071340E+03  0.00000000000E+00 0. -1.
         22    1    3    3    0    0  0.18621279441E+02 -0.21877522338E+02  0.22798220368E+01  0.28819708885E+02  0.00000000000E+00 0. -1.
         22    1    3    3    0    0 -0.59750628828E+02 -0.10682088727E+03  0.31562460279E+03  0.33852581806E+03  0.00000000000E+00 0. -1.
</event>
<event>
 7    1  0.6358809E-006  0.2399393E+03  0.7818608E-02  0.1230052E+00
          2   -1    0    0  502    0  0.00000000000E+00  0.00000000000E+00  0.12726072415E+04  0.12726072415E+04  0.00000000000E+00 0. -1.
          1   -1    0    0  501    0 -0.00000000000E+00 -0.00000000000E+00 -0.50878005393E+03  0.50878005393E+03  0.00000000000E+00 0. -1.
         25    2    1    2    0    0  0.12894804322E+03 -0.17773689500E+03  0.27186185048E+02  0.25413042238E+03  0.12500072490E+03 0.  0.
          2    1    1    2  501    0 -0.19335341879E+03  0.15421008731E+03 -0.35544452168E+03  0.43302090432E+03  0.00000000000E+00 0. -1.
          1    1    1    2  502    0  0.64405375569E+02  0.23526807690E+02  0.10920855242E+04  0.10942359687E+04  0.00000000000E+00 0. -1.
         22    1    3    3    0    0  0.46312373575E+02 -0.34172569740E+02 -0.45371201174E+02  0.73288105207E+02  0.00000000000E+00 0. -1.
         22    1    3    3    0    0  0.82635669646E+02 -0.14356432526E+03  0.72557386222E+02  0.18084231717E+03  0.00000000000E+00 0. -1.
</event>
<event>
 7    1  0.6358809E-006  0.9667919E+02  0.7818608E-02  0.1368444E+00
          2   -1    0    0  502    0  0.00000000000E+00  0.00000000000E+00  0.95921810367E+03  0.95921810367E+03  0.00000000000E+00 0. -1.
          1   -1    0    0  501    0 -0.00000000000E+00 -0.00000000000E+00 -0.48581665806E+03  0.48581665806E+03  0.00000000000E+00 0. -1.
         25    2    1    2    0    0 -0.12506514518E+02  0.13184251474E+03  0.50457235594E+03  0.53642986986E+03  0.12499952523E+03 0.  0.
          2    1    1    2  501    0  0.34496737298E+02 -0.89999508382E+02 -0.46364387261E+03  0.47355630816E+03  0.00000000000E+00 0. -1.
          1    1    1    2  502    0 -0.21990222780E+02 -0.41843006354E+02  0.43247296228E+03  0.43504858370E+03  0.00000000000E+00 0. -1.
         22    1    3    3    0    0  0.18546903646E+01  0.12374969163E+03  0.50499519480E+03  0.51993997040E+03  0.00000000000E+00 0.  1.
         22    1    3    3    0    0 -0.14361204883E+02  0.80928231034E+01 -0.42283885889E+00  0.16489899459E+02  0.00000000000E+00 0.  1.
</event>
<event>
 7    1  0.6358809E-006  0.1354691E+03  0.7818608E-02  0.1248142E+00
          2   -1    0    0  502    0  0.00000000000E+00  0.00000000000E+00  0.53701302056E+03  0.53701302056E+03  0.00000000000E+00 0. -1.
          1   -1    0    0  501    0 -0.00000000000E+00 -0.00000000000E+00 -0.24703886375E+03  0.24703886375E+03  0.00000000000E+00 0. -1.
         25    2    1    2    0    0 -0.59461040334E+02 -0.19121800674E+03  0.31193821674E+03  0.39119236441E+03  0.12500429389E+03 0.  0.
          2    1    1    2  501    0 -0.21937935190E+01  0.10101263315E+03 -0.17663388259E+03  0.20348929520E+03  0.00000000000E+00 0. -1.
          1    1    1    2  502    0  0.61654833853E+02  0.90205373595E+02  0.15466982266E+03  0.18937022470E+03  0.00000000000E+00 0. -1.
         22    1    3    3    0    0 -0.36401529887E+02 -0.25564978622E+02  0.15708706696E+03  0.16326354803E+03  0.00000000000E+00 0.  1.
         22    1    3    3    0    0 -0.23059510447E+02 -0.16565302812E+03  0.15485114978E+03  0.22792881638E+03  0.00000000000E+00 0.  1.
</event>
<event>
 7    1  0.6358809E-006  0.1114487E+03  0.7818608E-02  0.1419976E+00
          2   -1    0    0  502    0  0.00000000000E+00  0.00000000000E+00  0.11953349371E+04  0.11953349371E+04  0.00000000000E+00 0. -1.
          1   -1    0    0  501    0 -0.00000000000E+00 -0.00000000000E+00 -0.13524132003E+03  0.13524132003E+03  0.00000000000E+00 0. -1.
         25    2    1    2    0    0 -0.44198901690E+02  0.12572736671E+03  0.89370357525E+02  0.20340077704E+03  0.12499560651E+03 0.  0.
          2    1    1    2  501    0  0.20400899595E+02 -0.17941891592E+02 -0.72865385054E+02  0.77765496959E+02  0.00000000000E+00 0. -1.
          1    1    1    2  502    0  0.23798002096E+02 -0.10778547512E+03  0.10435886446E+04  0.10494099831E+04  0.00000000000E+00 0. -1.
         22    1    3    3    0    0 -0.37029185983E+02 -0.16092361755E+02  0.14727844500E+02  0.42977134909E+02  0.00000000000E+00 0.  1.
         22    1    3    3    0    0 -0.71697157074E+01  0.14181972846E+03  0.74642513025E+02  0.16042364213E+03  0.00000000000E+00 0.  1.
</event>
<event>
 7    1  0.6358809E-006  0.2218777E+03  0.7818608E-02  0.1332390E+00
          2   -1    0    0  502    0  0.00000000000E+00  0.00000000000E+00  0.23859192352E+04  0.23859192352E+04  0.00000000000E+00 0. -1.
          1   -1    0    0  501    0 -0.00000000000E+00 -0.00000000000E+00 -0.25455158231E+03  0.25455158231E+03  0.00000000000E+00 0. -1.
         25    2    1    2    0    0 -0.18642492763E+03  0.16344077589E+03  0.31955691783E+02  0.27948920496E+03  0.12500363431E+03 0.  0.
          2    1    1    2  501    0  0.16340023200E+02 -0.22750946486E+02 -0.12375410228E+03  0.12688451345E+03  0.00000000000E+00 0. -1.
          1    1    1    2  502    0  0.17008490443E+03 -0.14068982940E+03  0.22231660634E+04  0.22340970991E+04  0.00000000000E+00 0. -1.
         22    1    3    3    0    0 -0.76197175504E+02 -0.32763924328E+00  0.30498962234E+02  0.82074987661E+02  0.00000000000E+00 0.  1.
         22    1    3    3    0    0 -0.11022775212E+03  0.16376841513E+03  0.14567295492E+01  0.19741421730E+03  0.00000000000E+00 0.  1.
</event>
<event>
 7    1  0.6358809E-006  0.7003666E+02  0.7818608E-02  0.1374262E+00
          2   -1    0    0  502    0  0.00000000000E+00  0.00000000000E+00  0.88457679374E+02  0.88457679374E+02  0.00000000000E+00 0. -1.
          1   -1    0    0  501    0 -0.00000000000E+00 -0.00000000000E+00 -0.22876964135E+04  0.22876964135E+04  0.00000000000E+00 0. -1.
         25    2    1    2    0    0  0.48334018628E+02 -0.45224648304E+02 -0.19391480094E+01  0.14145786320E+03  0.12500048238E+03 0.  0.
          2    1    1    2  501    0 -0.63255977544E+02 -0.30063514147E+02 -0.21341636533E+04  0.21353125375E+04  0.00000000000E+00 0. -1.
          1    1    1    2  502    0  0.14921958916E+02  0.75288162451E+02 -0.63135932783E+02  0.99383692181E+02  0.00000000000E+00 0. -1.
         22    1    3    3    0    0  0.47554413250E+02 -0.64289732566E+02  0.44313733070E+02  0.91423732540E+02  0.00000000000E+00 0. -1.
         22    1    3    3    0    0  0.77960537788E+00  0.19065084263E+02 -0.46252881079E+02  0.50034130657E+02  0.00000000000E+00 0. -1.
</event>
<event>
 7    1  0.6358809E-006  0.5155168E+02  0.7818608E-02  0.1445805E+00
          2   -1    0    0  502    0  0.00000000000E+00  0.00000000000E+00  0.44602158803E+03  0.44602158803E+03  0.00000000000E+00 0. -1.
          1   -1    0    0  501    0 -0.00000000000E+00 -0.00000000000E+00 -0.50083728727E+03  0.50083728727E+03  0.00000000000E+00 0. -1.
         25    2    1    2    0    0 -0.53578885582E+02  0.34799717962E+02 -0.26587119393E+03  0.30065625772E+03  0.12499990477E+03 0.  0.
          2    1    1    2  501    0  0.50769389250E+02  0.13447287832E+02 -0.21301148118E+03  0.21939063688E+03  0.00000000000E+00 0. -1.
          1    1    1    2  502    0  0.28094963317E+01 -0.48247005794E+02  0.42406697587E+03  0.42681198069E+03  0.00000000000E+00 0. -1.
         22    1    3    3    0    0 -0.37132923936E+02  0.11350584611E+02 -0.60932410907E+01  0.39304165149E+02  0.00000000000E+00 0.  1.
         22    1    3    3    0    0 -0.16445961646E+02  0.23449133351E+02 -0.25977795284E+03  0.26135209257E+03  0.00000000000E+00 0.  1.
</event>
<event>
 7    1  0.6358809E-006  0.6926891E+02  0.7818608E-02  0.1470050E+00
          2   -1    0    0  502    0  0.00000000000E+00  0.00000000000E+00  0.31741606489E+02  0.31741606489E+02  0.00000000000E+00 0. -1.
          1   -1    0    0  501    0 -0.00000000000E+00 -0.00000000000E+00 -0.33866079494E+04  0.33866079494E+04  0.00000000000E+00 0. -1.
         25    2    1    2    0    0  0.17460765721E+02  0.69074505223E+02 -0.40099260880E+03  0.42602557305E+03  0.12500620372E+03 0.  0.
          2    1    1    2  501    0  0.12671456164E+02 -0.68243548402E+02 -0.29606208890E+04  0.29614344152E+04  0.00000000000E+00 0. -1.
          1    1    1    2  502    0 -0.30132221884E+02 -0.83095682074E+00  0.67471548783E+01  0.30889567557E+02  0.00000000000E+00 0. -1.
         22    1    3    3    0    0  0.60736225170E+02  0.48364985176E+02 -0.33823045229E+03  0.34702723192E+03  0.00000000000E+00 0. -1.
         22    1    3    3    0    0 -0.43275459449E+02  0.20709520046E+02 -0.62762156511E+02  0.78998341128E+02  0.00000000000E+00 0. -1.
</event>
<event>
 7    1  0.6358809E-006  0.1315025E+03  0.7818608E-02  0.1350870E+00
          2   -1    0    0  502    0  0.00000000000E+00  0.00000000000E+00  0.28150326874E+03  0.28150326874E+03  0.00000000000E+00 0. -1.
          1   -1    0    0  501    0 -0.00000000000E+00 -0.00000000000E+00 -0.86861417234E+03  0.86861417234E+03  0.00000000000E+00 0. -1.
         25    2    1    2    0    0  0.94845065822E+02 -0.47246330030E+02 -0.88462722010E+02  0.18622166403E+03  0.12500021102E+03 0.  0.
          2    1    1    2  501    0  0.96150794478E+01 -0.39121733455E+02 -0.71090954038E+03  0.71205009261E+03  0.00000000000E+00 0. -1.
          1    1    1    2  502    0 -0.10446014527E+03  0.86368063485E+02  0.21226135879E+03  0.25184568445E+03  0.00000000000E+00 0. -1.
         22    1    3    3    0    0  0.52912015913E+01  0.25032795601E+02  0.16513415965E+02  0.30452102994E+02  0.00000000000E+00 0.  1.
         22    1    3    3    0    0  0.89553864231E+02 -0.72279125631E+02 -0.10497613798E+03  0.15576956103E+03  0.00000000000E+00 0.  1.
</event>
<event>
 7    1  0.6358809E-006  0.5206971E+02  0.7818608E-02  0.1560016E+00
          2   -1    0    0  502    0  0.00000000000E+00  0.00000000000E+00  0.64688059127E+03  0.64688059127E+03  0.00000000000E+00 0. -1.
          1   -1    0    0  501    0 -0.00000000000E+00 -0.00000000000E+00 -0.57695770133E+03  0.57695770133E+03  0.00000000000E+00 0. -1.
         25    2    1    2    0    0 -0.44197478002E+02 -0.22290744247E+02  0.35198498245E+03  0.37678721143E+03  0.12499952196E+03 0.  0.
          2    1    1    2  501    0 -0.90878221232E+01  0.19894735685E+02 -0.56182409142E+03  0.56224967650E+03  0.00000000000E+00 0. -1.
          1    1    1    2  502    0  0.53285300126E+02  0.23960085624E+01  0.27976199891E+03  0.28480140467E+03  0.00000000000E+00 0. -1.
         22    1    3    3    0    0  0.88678231693E+00 -0.17369139918E+01 -0.10627604205E+02  0.10805055494E+02  0.00000000000E+00 0.  1.
         22    1    3    3    0    0 -0.45084260319E+02 -0.20553830255E+02  0.36261258665E+03  0.36598215594E+03  0.00000000000E+00 0.  1.
</event>
<event>
 7    1  0.6358809E-006  0.1623608E+03  0.7818608E-02  0.1214525E+00
          2   -1    0    0  502    0  0.00000000000E+00  0.00000000000E+00  0.26910148679E+04  0.26910148679E+04  0.00000000000E+00 0. -1.
          1   -1    0    0  501    0 -0.00000000000E+00 -0.00000000000E+00 -0.99462155511E+02  0.99462155511E+02  0.00000000000E+00 0. -1.
         25    2    1    2    0    0 -0.16272208892E+03  0.35256218680E+02  0.63322401836E+02  0.21761400031E+03  0.12499858950E+03 0.  0.
          2    1    1    2  501    0  0.67701717409E+02  0.98104620486E+02  0.16280130798E+03  0.20177290448E+03  0.00000000000E+00 0. -1.
          1    1    1    2  502    0  0.95020371515E+02 -0.13336083917E+03  0.23654290026E+04  0.23710901186E+04  0.00000000000E+00 0. -1.
         22    1    3    3    0    0 -0.17956813802E+03  0.25183344776E+02  0.73318144515E+02  0.19558749286E+03  0.00000000000E+00 0. -1.
         22    1    3    3    0    0  0.16846049098E+02  0.10072873904E+02 -0.99957426786E+01  0.22026507453E+02  0.00000000000E+00 0. -1.
</event>
<event>
 7    1  0.6358809E-006  0.1044183E+03  0.7818608E-02  0.1288166E+00
          2   -1    0    0  502    0  0.00000000000E+00  0.00000000000E+00  0.11674308421E+04  0.11674308421E+04  0.00000000000E+00 0. -1.
          1   -1    0    0  501    0 -0.00000000000E+00 -0.00000000000E+00 -0.17461039777E+03  0.17461039777E+03  0.00000000000E+00 0. -1.
         25    2    1    2    0    0 -0.38823847367E+00  0.88104319615E+01  0.37554581507E+02  0.13081793353E+03  0.12500084280E+03 0.  0.
          2    1    1    2  501    0 -0.21643518129E+01 -0.11319757305E+03 -0.99846949785E+02  0.15095624646E+03  0.00000000000E+00 0. -1.
          1    1    1    2  502    0  0.25525902866E+01  0.10438714109E+03  0.10551128126E+04  0.10602670599E+04  0.00000000000E+00 0. -1.
         22    1    3    3    0    0 -0.22327267867E+02  0.26821271644E+02  0.75649302598E+02  0.83310890564E+02  0.00000000000E+00 0.  1.
         22    1    3    3    0    0  0.21939029394E+02 -0.18010839682E+02 -0.38094721091E+02  0.47507042971E+02  0.00000000000E+00 0.  1.
</event>
<event>
 7    1  0.6358809E-006  0.1174552E+03  0.7818608E-02  0.1324114E+00
          2   -1    0    0  502    0  0.00000000000E+00  0.00000000000E+00  0.64100470367E+03  0.64100470367E+03  0.00000000000E+00 0. -1.
          1   -1    0    0  501    0 -0.00000000000E+00 -0.00000000000E+00 -0.40709375211E+03  0.40709375211E+03  0.00000000000E+00 0. -1.
         25    2    1    2    0    0  0.41399364808E+02 -0.68388784071E+02 -0.12542085893E+03  0.19428388541E+03  0.12499961233E+03 0.  0.
          2    1    1    2  501    0  0.56908597963E+02  0.11693085250E+01 -0.23800746125E+03  0.24471924202E+03  0.00000000000E+00 0. -1.
          1    1    1    2  502    0 -0.98307962771E+02  0.67219475546E+02  0.59733927174E+03  0.60909532834E+03  0.00000000000E+00 0. -1.
         22    1    3    3    0    0  0.67704500015E+02 -0.90618924597E+02 -0.87138076274E+02  0.14278912127E+03  0.00000000000E+00 0. -1.
         22    1    3    3    0    0 -0.26305135207E+02  0.22230140525E+02 -0.38282782655E+02  0.51494764140E+02  0.00000000000E+00 0. -1.
</event>
<event>
 7    1  0.6358809E-006  0.4207724E+02  0.7818608E-02  0.1521683E+00
          2   -1    0    0  502    0  0.00000000000E+00  0.00000000000E+00  0.14785395155E+04  0.14785395155E+04  0.00000000000E+00 0. -1.
          1   -1    0    0  501    0 -0.00000000000E+00 -0.00000000000E+00 -0.41928437701E+03  0.41928437701E+03  0.00000000000E+00 0. -1.
         25    2    1    2    0    0  0.19561958718E+02  0.14738160151E+02 -0.31953607328E+03  0.34400068859E+03  0.12503314772E+03 0.  0.
          2    1    1    2  501    0 -0.39940439865E+02  0.22075042893E+02 -0.81243179582E+02  0.93182619001E+02  0.00000000000E+00 0. -1.
          1    1    1    2  502    0  0.20378481147E+02 -0.36813203044E+02  0.14600343913E+04  0.14606405849E+04  0.00000000000E+00 0. -1.
         22    1    3    3    0    0 -0.21683312922E+02  0.52691743024E+02 -0.24017909404E+03  0.24684526136E+03  0.00000000000E+00 0. -1.
         22    1    3    3    0    0  0.41245271640E+02 -0.37953582873E+02 -0.79356979232E+02  0.97155427221E+02  0.00000000000E+00 0. -1.
</event>
<event>
 7    1  0.6358809E-006  0.1685240E+03  0.7818608E-02  0.1325959E+00
          2   -1    0    0  502    0  0.00000000000E+00  0.00000000000E+00  0.14068462735E+04  0.14068462735E+04  0.00000000000E+00 0. -1.
          1   -1    0    0  501    0 -0.00000000000E+00 -0.00000000000E+00 -0.12713336852E+04  0.12713336852E+04  0.00000000000E+00 0. -1.
         25    2    1    2    0    0 -0.97424750860E+02  0.16943276323E+03 -0.61074368257E+03  0.65332378798E+03  0.12500033122E+03 0.  0.
          2    1    1    2  501    0  0.77634511227E+02 -0.13579430312E+03 -0.62945108929E+03  0.64859531597E+03  0.00000000000E+00 0. -1.
          1    1    1    2  502    0  0.19790239633E+02 -0.33638460110E+02  0.13757073601E+04  0.13762608547E+04  0.00000000000E+00 0. -1.
         22    1    3    3    0    0  0.18894321676E+02  0.25796024719E+01 -0.12900343862E+03  0.13040527948E+03  0.00000000000E+00 0.  1.
         22    1    3    3    0    0 -0.11631907254E+03  0.16685316076E+03 -0.48174024395E+03  0.52291850850E+03  0.00000000000E+00 0.  1.
</event>
<event>
 7    1  0.6358809E-006  0.7009527E+02  0.7818608E-02  0.1395084E+00
          2   -1    0    0  502    0  0.00000000000E+00  0.00000000000E+00  0.15956171028E+04  0.15956171028E+04  0.00000000000E+00 0. -1.
          1   -1    0    0  501    0 -0.00000000000E+00 -0.00000000000E+00 -0.31694956538E+03  0.31694956538E+03  0.00000000000E+00 0. -1.
         25    2    1    2    0    0 -0.64435632233E+02  0.27427279107E+02 -0.37463574216E+02  0.14809826976E+03  0.12500148708E+03 0.  0.
          2    1    1    2  501    0  0.28762666498E+02 -0.65938059879E+02 -0.21793666195E+03  0.22950273930E+03  0.00000000000E+00 0. -1.
          1    1    1    2  502    0  0.35672965735E+02  0.38510780771E+02  0.15340677736E+04  0.15349656592E+04  0.00000000000E+00 0. -1.
         22    1    3    3    0    0 -0.35246774702E+02 -0.23903246651E+02  0.34643150996E+02  0.54898526741E+02  0.00000000000E+00 0. -1.
         22    1    3    3    0    0 -0.29188857531E+02  0.51330525758E+02 -0.72106725212E+02  0.93199743023E+02  0.00000000000E+00 0. -1.
</event>
<event>
 7    1  0.6358809E-006  0.1652092E+03  0.7818608E-02  0.1267357E+00
          2   -1    0    0  502    0  0.00000000000E+00  0.00000000000E+00  0.44979745582E+03  0.44979745582E+03  0.00000000000E+00 0. -1.
          1   -1    0    0  501    0 -0.00000000000E+00 -0.00000000000E+00 -0.24710411805E+03  0.24710411805E+03  0.00000000000E+00 0. -1.
         25    2    1    2    0    0  0.22809528845E+01  0.16630453888E+03  0.50856612180E+02  0.21418308834E+03  0.12500239170E+03 0.  0.
          2    1    1    2  501    0 -0.67567451153E+02 -0.11529867288E+02 -0.13437821210E+03  0.15085026411E+03  0.00000000000E+00 0. -1.
          1    1    1    2  502    0  0.65286498269E+02 -0.15477467160E+03  0.28621493769E+03  0.33186822141E+03  0.00000000000E+00 0. -1.
         22    1    3    3    0    0  0.18074845491E+02  0.18226512023E+03  0.55234113635E+02  0.19130625029E+03  0.00000000000E+00 0.  1.
         22    1    3    3    0    0 -0.15793892606E+02 -0.15960581342E+02 -0.43775014555E+01  0.22876838056E+02  0.00000000000E+00 0.  1.
</event>
<event>
 7    1  0.6358809E-006  0.7501548E+02  0.7818608E-02  0.1359927E+00
          2   -1    0    0  502    0  0.00000000000E+00  0.00000000000E+00  0.64544338815E+03  0.64544338815E+03  0.00000000000E+00 0. -1.
          1   -1    0    0  501    0 -0.00000000000E+00 -0.00000000000E+00 -0.45049599587E+02  0.45049599587E+02  0.00000000000E+00 0. -1.
         25    2    1    2    0    0  0.16071113701E+02  0.75102848320E+01  0.40818143306E+03  0.42725801646E+03  0.12499058067E+03 0.  0.
          2    1    1    2  501    0 -0.74340549453E+02 -0.37229886612E+02  0.30098551885E+02  0.88422308134E+02  0.00000000000E+00 0. -1.
          1    1    1    2  502    0  0.58269435752E+02  0.29719601780E+02  0.16211380361E+03  0.17481266314E+03  0.00000000000E+00 0. -1.
         22    1    3    3    0    0  0.27705165046E+02  0.56310515429E+02  0.12726682077E+03  0.14189888649E+03  0.00000000000E+00 0. -1.
         22    1    3    3    0    0 -0.11634051345E+02 -0.48800230597E+02  0.28091461229E+03  0.28535912997E+03  0.00000000000E+00 0. -1.
</event>
<event>
 7    1  0.6358809E-006  0.6345285E+02  0.7818608E-02  0.1401937E+00
          2   -1    0    0  502    0  0.00000000000E+00  0.00000000000E+00  0.40265156353E+03  0.40265156353E+03  0.00000000000E+00 0. -1.
          1   -1    0    0  501    0 -0.00000000000E+00 -0.00000000000E+00 -0.20556596731E+03  0.20556596731E+03  0.00000000000E+00 0. -1.
         25    2    1    2    0    0 -0.89246198284E+01  0.65412585969E+02  0.17876944173E+02  0.14248865178E+03  0.12499990205E+03 0.  0.
          2    1    1    2  501    0 -0.43391282268E+02 -0.48700816359E+02 -0.13331488790E+03  0.14841641495E+03  0.00000000000E+00 0. -1.
          1    1    1    2  502    0  0.52315902097E+02 -0.16711769610E+02  0.31252353994E+03  0.31731246410E+03  0.00000000000E+00 0. -1.
         22    1    3    3    0    0 -0.34042527804E+02 -0.17648144417E+02  0.37378157936E+02  0.53548831840E+02  0.00000000000E+00 0. -1.
         22    1    3    3    0    0  0.25117907976E+02  0.83060730387E+02 -0.19501213764E+02  0.88939819945E+02  0.00000000000E+00 0. -1.
</event>
<event>
 7    1  0.6358809E-006  0.6008028E+02  0.7818608E-02  0.1443528E+00
          2   -1    0    0  502    0  0.00000000000E+00  0.00000000000E+00  0.11480451713E+04  0.11480451713E+04  0.00000000000E+00 0. -1.
          1   -1    0    0  501    0 -0.00000000000E+00 -0.00000000000E+00 -0.22264100073E+03  0.22264100073E+03  0.00000000000E+00 0. -1.
         25    2    1    2    0    0 -0.72298288037E+02  0.59055518978E+02  0.33716657284E+03  0.37151424315E+03  0.12500775273E+03 0.  0.
          2    1    1    2  501    0  0.56274145377E+02 -0.20043079684E+02 -0.20054993148E+03  0.20925768683E+03  0.00000000000E+00 0. -1.
          1    1    1    2  502    0  0.16024142660E+02 -0.39012439295E+02  0.78878752922E+03  0.78991424206E+03  0.00000000000E+00 0. -1.
         22    1    3    3    0    0 -0.15305056333E+02  0.49406961072E+02  0.29615847756E+03  0.30064120872E+03  0.00000000000E+00 0.  1.
         22    1    3    3    0    0 -0.56993231704E+02  0.96485579060E+01  0.41008095284E+02  0.70873034425E+02  0.00000000000E+00 0.  1.
</event>
<event>
 7    1  0.6358809E-006  0.7863379E+02  0.7818608E-02  0.1389521E+00
          2   -1    0    0  502    0  0.00000000000E+00  0.00000000000E+00  0.15068577159E+04  0.15068577159E+04  0.00000000000E+00 0. -1.
          1   -1    0    0  501    0 -0.00000000000E+00 -0.00000000000E+00 -0.16041260952E+03  0.16041260952E+03  0.00000000000E+00 0. -1.
         25    2    1    2    0    0 -0.20106548060E+02 -0.60390182733E+02  0.48895978175E+02  0.14854993828E+03  0.12500008015E+03 0.  0.
          2    1    1    2  501    0 -0.46004923126E+02  0.16651305212E+02 -0.10399882733E+03  0.11493248019E+03  0.00000000000E+00 0. -1.
          1    1    1    2  502    0  0.66111471187E+02  0.43738877522E+02  0.14015479555E+04  0.14037879069E+04  0.00000000000E+00 0. -1.
         22    1    3    3    0    0 -0.66777443649E+02 -0.10412865892E+02  0.60494028942E+01  0.67854624248E+02  0.00000000000E+00 0. -1.
         22    1    3    3    0    0  0.46670895589E+02 -0.49977316842E+02  0.42846575280E+02  0.80695314034E+02  0.00000000000E+00 0. -1.
</event>
<event>
 7    1  0.6358809E-006  0.1390481E+03  0.7818608E-02  0.1369022E+00
          2   -1    0    0  502    0  0.00000000000E+00  0.00000000000E+00  0.94344423354E+03  0.94344423354E+03  0.00000000000E+00 0. -1.
          1   -1    0    0  501    0 -0.00000000000E+00 -0.00000000000E+00 -0.18585142463E+03  0.18585142463E+03  0.00000000000E+00 0. -1.
         25    2    1    2    0    0  0.14488040718E+03  0.52708371479E+02  0.38486364476E+03  0.43302865227E+03  0.12500113527E+03 0.  0.
          2    1    1    2  501    0 -0.28953488443E+02  0.15217677494E+02 -0.15155258203E+03  0.15504214691E+03  0.00000000000E+00 0. -1.
          1    1    1    2  502    0 -0.11592691874E+03 -0.67926048973E+02  0.52428174617E+03  0.54122485899E+03  0.00000000000E+00 0. -1.
         22    1    3    3    0    0  0.12912579911E+03  0.19760402835E+02  0.16647718638E+03  0.21160954398E+03  0.00000000000E+00 0. -1.
         22    1    3    3    0    0  0.15754608066E+02  0.32947968644E+02  0.21838645838E+03  0.22141910829E+03  0.00000000000E+00 0. -1.
</event>
<event>
 7    1  0.6358809E-006  0.1197954E+03  0.7818608E-02  0.1399024E+00
          2   -1    0    0  502    0  0.00000000000E+00  0.00000000000E+00  0.19801535402E+04  0.19801535402E+04  0.00000000000E+00 0. -1.
          1   -1    0    0  501    0 -0.00000000000E+00 -0.00000000000E+00 -0.29645372793E+02  0.29645372793E+02  0.00000000000E+00 0. -1.
         25    2    1    2    0    0  0.60809637618E+02  0.71470110413E+02  0.14150752545E+04  0.14236813753E+04  0.12499957438E+03 0.  0.
          2    1    1    2  501    0 -0.85948765390E+02 -0.87413050153E+02  0.12668691842E+03  0.17628898691E+03  0.00000000000E+00 0. -1.
          1    1    1    2  502    0  0.25139127772E+02  0.15942939741E+02  0.40874599448E+03  0.40982855083E+03  0.00000000000E+00 0. -1.
         22    1    3    3    0    0 -0.21800416219E+02  0.70165906608E+02  0.62952164497E+03  0.63379493063E+03  0.00000000000E+00 0.  1.
         22    1    3    3    0    0  0.82610053837E+02  0.13042038042E+01  0.78555360956E+03  0.78988644465E+03  0.00000000000E+00 0.  1.
</event>
<event>
 7    1  0.6358809E-006  0.7480869E+02  0.7818608E-02  0.1445572E+00
          2   -1    0    0  502    0  0.00000000000E+00  0.00000000000E+00  0.15347866396E+04  0.15347866396E+04  0.00000000000E+00 0. -1.
          1   -1    0    0  501    0 -0.00000000000E+00 -0.00000000000E+00 -0.32817497258E+02  0.32817497258E+02  0.00000000000E+00 0. -1.
         25    2    1    2    0    0  0.23308567328E+02 -0.42855939180E+02  0.10623854075E+04  0.10708251278E+04  0.12499511757E+03 0.  0.
          2    1    1    2  501    0 -0.55260947242E+02  0.52449555836E+02  0.24030318202E+02  0.79888574843E+02  0.00000000000E+00 0. -1.
          1    1    1    2  502    0  0.31952379914E+02 -0.95936166561E+01  0.41555341666E+03  0.41689043424E+03  0.00000000000E+00 0. -1.
         22    1    3    3    0    0 -0.50091871818E+02 -0.31035805945E+02  0.53221733666E+03  0.53546961661E+03  0.00000000000E+00 0.  1.
         22    1    3    3    0    0  0.73400439146E+02 -0.11820133236E+02  0.53016807084E+03  0.53535551118E+03  0.00000000000E+00 0.  1.
</event>
<event>
 7    1  0.6358809E-006  0.8097347E+02  0.7818608E-02  0.1426361E+00
          2   -1    0    0  502    0  0.00000000000E+00  0.00000000000E+00  0.33141466256E+03  0.33141466256E+03  0.00000000000E+00 0. -1.
          1   -1    0    0  501    0 -0.00000000000E+00 -0.00000000000E+00 -0.10278672263E+04  0.10278672263E+04  0.00000000000E+00 0. -1.
         25    2    1    2    0    0 -0.86250951166E+01  0.58166616147E+02  0.13426601428E+03  0.19264088529E+03  0.12500160237E+03 0.  0.
          2    1    1    2  501    0  0.42460229097E+02 -0.69267121319E+02 -0.99511806302E+03  0.99842914846E+03  0.00000000000E+00 0. -1.
          1    1    1    2  502    0 -0.33835133980E+02  0.11100505172E+02  0.16439948503E+03  0.16821185507E+03  0.00000000000E+00 0. -1.
         22    1    3    3    0    0  0.14807622452E+02 -0.66735278496E+01 -0.18752022558E+02  0.24808063339E+02  0.00000000000E+00 0.  1.
         22    1    3    3    0    0 -0.23432717568E+02  0.64840143997E+02  0.15301803684E+03  0.16783282195E+03  0.00000000000E+00 0.  1.
</event>
<event>
 7    1  0.6358809E-006  0.5534956E+02  0.7818608E-02  0.1552112E+00
          2   -1    0    0  502    0  0.00000000000E+00  0.00000000000E+00  0.14868339495E+04  0.14868339495E+04  0.00000000000E+00 0. -1.
          1   -1    0    0  501    0 -0.00000000000E+00 -0.00000000000E+00 -0.62223400032E+03  0.62223400032E+03  0.00000000000E+00 0. -1.
         25    2    1    2    0    0  0.54895843899E+02  0.44968453931E+01  0.11016663331E+04  0.11101022791E+04  0.12499834082E+03 0.  0.
          2    1    1    2  501    0 -0.49197596463E+02 -0.25371801181E+02 -0.61646762115E+03  0.61894786511E+03  0.00000000000E+00 0. -1.
          1    1    1    2  502    0 -0.56982474361E+01  0.20874955788E+02  0.37940123718E+03  0.38001780561E+03  0.00000000000E+00 0. -1.
         22    1    3    3    0    0  0.41880182625E+02 -0.54066024355E+02  0.39343836359E+03  0.39933799047E+03  0.00000000000E+00 0.  1.
         22    1    3    3    0    0  0.13015661274E+02  0.58562869748E+02  0.70822796952E+03  0.71076428861E+03  0.00000000000E+00 0.  1.
</event>
<event>
 7    1  0.6358809E-006  0.9772944E+02  0.7818608E-02  0.1286918E+00
          2   -1    0    0  502    0  0.00000000000E+00  0.00000000000E+00  0.17294851594E+04  0.17294851594E+04  0.00000000000E+00 0. -1.
          1   -1    0    0  501    0 -0.00000000000E+00 -0.00000000000E+00 -0.66196472528E+02  0.66196472528E+02  0.00000000000E+00 0. -1.
         25    2    1    2    0    0  0.98028199879E+01 -0.10129229461E+02  0.94212173431E+02  0.15715907921E+03  0.12499738392E+03 0.  0.
          2    1    1    2  501    0  0.90302020474E+02  0.32901861894E+02  0.36961041871E+02  0.10297138454E+03  0.00000000000E+00 0. -1.
          1    1    1    2  502    0 -0.10010484046E+03 -0.22772632433E+02  0.15321154716E+04  0.15355511682E+04  0.00000000000E+00 0. -1.
         22    1    3    3    0    0  0.56813585610E+02  0.26841760492E+02  0.65675168823E+02  0.90892746773E+02  0.00000000000E+00 0. -1.
         22    1    3    3    0    0 -0.47010765622E+02 -0.36970989953E+02  0.28537004609E+02  0.66266332436E+02  0.00000000000E+00 0. -1.
</event>
<event>
 7    1  0.6358809E-006  0.3889817E+02  0.7818608E-02  0.1521166E+00
          2   -1    0    0  502    0  0.00000000000E+00  0.00000000000E+00  0.75099670196E+03  0.75099670196E+03  0.00000000000E+00 0. -1.
          1   -1    0    0  501    0 -0.00000000000E+00 -0.00000000000E+00 -0.21935295780E+03  0.21935295780E+03  0.00000000000E+00 0. -1.
         25    2    1    2    0    0 -0.14318763648E+01  0.52597906122E+01  0.94573373143E+02  0.15683990521E+03  0.12499966917E+03 0.  0.
          2    1    1    2  501    0  0.31868628719E+02  0.20134790133E+02 -0.18569577487E+03  0.18948335039E+03  0.00000000000E+00 0. -1.
          1    1    1    2  502    0 -0.30436752354E+02 -0.25394580745E+02  0.62276614588E+03  0.62402640416E+03  0.00000000000E+00 0. -1.
         22    1    3    3    0    0 -0.41457829378E+02 -0.29335013594E+02  0.90503128560E+02  0.10377914491E+03  0.00000000000E+00 0.  1.
         22    1    3    3    0    0  0.40025953013E+02  0.34594804206E+02  0.40702445824E+01  0.53060760300E+02  0.00000000000E+00 0.  1.
</event>
<event>
 7    1  0.6358809E-006  0.6112504E+02  0.7818608E-02  0.1400769E+00
          2   -1    0    0  502    0  0.00000000000E+00  0.00000000000E+00  0.19447354728E+04  0.19447354728E+04  0.00000000000E+00 0. -1.
          1   -1    0    0  501    0 -0.00000000000E+00 -0.00000000000E+00 -0.76757065769E+02  0.76757065769E+02  0.00000000000E+00 0. -1.
         25    2    1    2    0    0  0.24374652139E+02  0.53021277921E+01  0.15988741167E+03  0.20447148184E+03  0.12498946455E+03 0.  0.
          2    1    1    2  501    0 -0.45975361155E+02  0.48029761788E+02 -0.33520367223E+02  0.74459431031E+02  0.00000000000E+00 0. -1.
          1    1    1    2  502    0  0.21600709017E+02 -0.53331889580E+02  0.17416113626E+04  0.17425616257E+04  0.00000000000E+00 0. -1.
         22    1    3    3    0    0  0.58090792033E+02 -0.24630783112E+02  0.14304391253E+03  0.15634185782E+03  0.00000000000E+00 0.  1.
         22    1    3    3    0    0 -0.33716139894E+02  0.29932910904E+02  0.16843499139E+02  0.48129624015E+02  0.00000000000E+00 0.  1.
</event>
<event>
 7    1  0.6358809E-006  0.1360457E+03  0.7818608E-02  0.1284411E+00
          2   -1    0    0  502    0  0.00000000000E+00  0.00000000000E+00  0.10450746350E+03  0.10450746350E+03  0.00000000000E+00 0. -1.
          1   -1    0    0  501    0 -0.00000000000E+00 -0.00000000000E+00 -0.11005149299E+04  0.11005149299E+04  0.00000000000E+00 0. -1.
         25    2    1    2    0    0 -0.61367941210E+02  0.50696421677E+02 -0.18375390498E+03  0.23606549757E+03  0.12500108066E+03 0.  0.
          2    1    1    2  501    0  0.12125505340E+03 -0.88259045147E+02 -0.86679248552E+03  0.87967133634E+03  0.00000000000E+00 0. -1.
          1    1    1    2  502    0 -0.59887112189E+02  0.37562623470E+02  0.54538924108E+02  0.89285559477E+02  0.00000000000E+00 0. -1.
         22    1    3    3    0    0 -0.61283832910E+02 -0.24634357165E+02 -0.12169593016E+03  0.13846464944E+03  0.00000000000E+00 0. -1.
         22    1    3    3    0    0 -0.84108299443E-01  0.75330778842E+02 -0.62057974826E+02  0.97600848125E+02  0.00000000000E+00 0. -1.
</event>
<event>
 7    1  0.6358809E-006  0.5180723E+02  0.7818608E-02  0.1453208E+00
          2   -1    0    0  502    0  0.00000000000E+00  0.00000000000E+00  0.76182968859E+03  0.76182968859E+03  0.00000000000E+00 0. -1.
          1   -1    0    0  501    0 -0.00000000000E+00 -0.00000000000E+00 -0.76769318082E+03  0.76769318082E+03  0.00000000000E+00 0. -1.
         25    2    1    2    0    0  0.77786938760E+02  0.56604188166E+02  0.89324860297E+02  0.18126348824E+03  0.12499071782E+03 0.  0.
          2    1    1    2  501    0 -0.35188432866E+02 -0.28901785197E+02 -0.71997310447E+03  0.72141167869E+03  0.00000000000E+00 0. -1.
          1    1    1    2  502    0 -0.42598505895E+02 -0.27702402969E+02  0.62478475194E+03  0.62684770247E+03  0.00000000000E+00 0. -1.
         22    1    3    3    0    0  0.22047839546E+02 -0.40237560702E+02  0.22995515954E+02  0.51322142140E+02  0.00000000000E+00 0. -1.
         22    1    3    3    0    0  0.55739099215E+02  0.96841748868E+02  0.66329344344E+02  0.12994134610E+03  0.00000000000E+00 0. -1.
</event>
<event>
 7    1  0.6358809E-006  0.1610768E+03  0.7818608E-02  0.1245768E+00
          2   -1    0    0  502    0  0.00000000000E+00  0.00000000000E+00  0.13674698773E+04  0.13674698773E+04  0.00000000000E+00 0. -1.
          1   -1    0    0  501    0 -0.00000000000E+00 -0.00000000000E+00 -0.48731559542E+03  0.48731559542E+03  0.00000000000E+00 0. -1.
         25    2    1    2    0    0 -0.95150541389E+02 -0.62235078537E+02 -0.12765103493E+03  0.21177405159E+03  0.12500652654E+03 0.  0.
          2    1    1    2  501    0  0.23088425842E+02 -0.83904314559E+02 -0.30651522586E+03  0.31862924080E+03  0.00000000000E+00 0. -1.
          1    1    1    2  502    0  0.72062115547E+02  0.14613939310E+03  0.13143205427E+04  0.13243821803E+04  0.00000000000E+00 0. -1.
         22    1    3    3    0    0 -0.80379844145E+02  0.14317126134E+02 -0.30379367471E+02  0.87113749853E+02  0.00000000000E+00 0. -1.
         22    1    3    3    0    0 -0.14770697244E+02 -0.76552204671E+02 -0.97271667463E+02  0.12466030173E+03  0.00000000000E+00 0. -1.
</event>
<event>
 7    1  0.6358809E-006  0.6133026E+02  0.7818608E-02  0.1425586E+00
          2   -1    0    0  502    0  0.00000000000E+00  0.00000000000E+00  0.21073700840E+03  0.21073700840E+03  0.00000000000E+00 0. -1.
          1   -1    0    0  501    0 -0.00000000000E+00 -0.00000000000E+00 -0.12366325904E+04  0.12366325904E+04  0.00000000000E+00 0. -1.
         25    2    1    2    0    0 -0.19167659992E+02  0.22690962686E+02 -0.38632503474E+02  0.13416618359E+03  0.12500326203E+03 0.  0.
          2    1    1    2  501    0 -0.77657678804E+01 -0.61565556761E+02 -0.11459449799E+04  0.11476238590E+04  0.00000000000E+00 0. -1.
          1    1    1    2  502    0  0.26933427872E+02  0.38874594075E+02  0.15868190135E+03  0.16557955616E+03  0.00000000000E+00 0. -1.
         22    1    3    3    0    0  0.33238932534E+02 -0.36540055241E+02 -0.14693431141E+02  0.51535416868E+02  0.00000000000E+00 0. -1.
         22    1    3    3    0    0 -0.52406592526E+02  0.59231017927E+02 -0.23939072333E+02  0.82630766721E+02  0.00000000000E+00 0. -1.
</event>
<event>
 7    1  0.6358809E-006  0.1327185E+03  0.7818608E-02  0.1237685E+00
          2   -1    0    0  502    0  0.00000000000E+00  0.00000000000E+00  0.48172523142E+03  0.48172523142E+03  0.00000000000E+00 0. -1.
          1   -1    0    0  501    0 -0.00000000000E+00 -0.00000000000E+00 -0.13656404917E+04  0.13656404917E+04  0.00000000000E+00 0. -1.
         25    2    1    2    0    0  0.28253908071E+02 -0.11010150293E+02  0.25775186143E+03  0.28806298913E+03  0.12499902762E+03 0.  0.
          2    1    1    2  501    0 -0.54142256259E+02  0.12267464233E+03 -0.13311282099E+04  0.13378650017E+04  0.00000000000E+00 0. -1.
          1    1    1    2  502    0  0.25888348187E+02 -0.11166449203E+03  0.18946108814E+03  0.22143773227E+03  0.00000000000E+00 0. -1.
         22    1    3    3    0    0  0.20802646362E+02 -0.60061757581E+02  0.20920717377E+03  0.21864996313E+03  0.00000000000E+00 0.  1.
         22    1    3    3    0    0  0.74512617089E+01  0.49051607288E+02  0.48544687657E+02  0.69413025999E+02  0.00000000000E+00 0.  1.
</event>
<event>
 7    1  0.6358809E-006  0.4855114E+02  0.7818608E-02  0.1455747E+00
          2   -1    0    0  502    0  0.00000000000E+00  0.00000000000E+00  0.69134762357E+03  0.69134762357E+03  0.00000000000E+00 0. -1.
          1   -1    0    0  501    0 -0.00000000000E+00 -0.00000000000E+00 -0.15960434657E+04  0.15960434657E+04  0.00000000000E+00 0. -1.
         25    2    1    2    0    0  0.22409960082E+02 -0.12142757458E+02  0.10039062865E+03  0.16233423210E+03  0.12499788688E+03 0.  0.
          2    1    1    2  501    0  0.12163478569E+02  0.47002793586E+02 -0.15636179812E+04  0.15643715684E+04  0.00000000000E+00 0. -1.
          1    1    1    2  502    0 -0.34573438651E+02 -0.34860036129E+02  0.55853151049E+03  0.56068528872E+03  0.00000000000E+00 0. -1.
         22    1    3    3    0    0  0.29863393918E+01  0.35643844247E+00 -0.29880395711E+02  0.30031372250E+02  0.00000000000E+00 0. -1.
         22    1    3    3    0    0  0.19423620690E+02 -0.12499195900E+02  0.13027102436E+03  0.13230285986E+03  0.00000000000E+00 0. -1.
</event>
<event>
 7    1  0.6358809E-006  0.7770982E+02  0.7818608E-02  0.1335750E+00
          2   -1    0    0  502    0  0.00000000000E+00  0.00000000000E+00  0.26139182949E+03  0.26139182949E+03  0.00000000000E+00 0. -1.
          1   -1    0    0  501    0 -0.00000000000E+00 -0.00000000000E+00 -0.17944563236E+04  0.17944563236E+04  0.00000000000E+00 0. -1.
         25    2    1    2    0    0  0.12400346253E+02 -0.25545485864E+02 -0.76971990146E+03  0.78032106976E+03  0.12500361900E+03 0.  0.
          2    1    1    2  501    0 -0.47313150004E+01  0.10287596376E+03 -0.10108636146E+04  0.10160960075E+04  0.00000000000E+00 0. -1.
          1    1    1    2  502    0 -0.76690312526E+01 -0.77330477899E+02  0.24751902194E+03  0.25943107577E+03  0.00000000000E+00 0. -1.
         22    1    3    3    0    0 -0.45474446923E+02 -0.46566755181E+02 -0.45529321241E+03  0.45992205565E+03  0.00000000000E+00 0. -1.
         22    1    3    3    0    0  0.57874793176E+02  0.21021269318E+02 -0.31442668906E+03  0.32039901411E+03  0.00000000000E+00 0. -1.
</event>
<event>
 7    1  0.6358809E-006  0.6295838E+02  0.7818608E-02  0.1442031E+00
          2   -1    0    0  502    0  0.00000000000E+00  0.00000000000E+00  0.15366738337E+04  0.15366738337E+04  0.00000000000E+00 0. -1.
          1   -1    0    0  501    0 -0.00000000000E+00 -0.00000000000E+00 -0.25508968499E+04  0.25508968499E+04  0.00000000000E+00 0. -1.
         25    2    1    2    0    0  0.10180204702E+03 -0.71830410650E+01  0.28736657771E+03  0.32957598818E+03  0.12500211656E+03 0.  0.
          2    1    1    2  501    0 -0.61534161101E+02  0.13085160207E+02 -0.25290637318E+04  0.25298460494E+04  0.00000000000E+00 0. -1.
          1    1    1    2  502    0 -0.40267885921E+02 -0.59021191419E+01  0.12274741378E+04  0.12281486460E+04  0.00000000000E+00 0. -1.
         22    1    3    3    0    0  0.56146590690E+02 -0.18718150987E+02  0.27118012900E+02  0.65101424302E+02  0.00000000000E+00 0.  1.
         22    1    3    3    0    0  0.45655456332E+02  0.11535109922E+02  0.26024856481E+03  0.26447456388E+03  0.00000000000E+00 0.  1.
</event>
<event>
 7    1  0.6358809E-006  0.1056661E+03  0.7818608E-02  0.1399484E+00
          2   -1    0    0  502    0  0.00000000000E+00  0.00000000000E+00  0.17700731615E+04  0.17700731615E+04  0.00000000000E+00 0. -1.
          1   -1    0    0  501    0 -0.00000000000E+00 -0.00000000000E+00 -0.29003819287E+03  0.29003819287E+03  0.00000000000E+00 0. -1.
         25    2    1    2    0    0 -0.97380828642E+02 -0.80112784016E+02  0.12687033004E+03  0.21822658748E+03  0.12500271552E+03 0.  0.
          2    1    1    2  501    0  0.32992615126E+01  0.33463706586E+02 -0.24146805591E+03  0.24379812716E+03  0.00000000000E+00 0. -1.
          1    1    1    2  502    0  0.94081567130E+02  0.46649077430E+02  0.15946326945E+04  0.15980866397E+04  0.00000000000E+00 0. -1.
         22    1    3    3    0    0 -0.48928606143E+02 -0.11010826535E+03  0.89214334893E+02  0.14992343429E+03  0.00000000000E+00 0.  1.
         22    1    3    3    0    0 -0.48452222500E+02  0.29995481334E+02  0.37655995149E+02  0.68303153194E+02  0.00000000000E+00 0.  1.
</event>
<event>
 7    1  0.6358809E-006  0.3482876E+02  0.7818608E-02  0.1557908E+00
          2   -1    0    0  502    0  0.00000000000E+00  0.00000000000E+00  0.27187729711E+02  0.27187729711E+02  0.00000000000E+00 0. -1.
          1   -1    0    0  501    0 -0.00000000000E+00 -0.00000000000E+00 -0.85772666386E+03  0.85772666386E+03  0.00000000000E+00 0. -1.
         25    2    1    2    0    0 -0.27102837241E+02 -0.38894662834E+02 -0.43187193547E+03  0.45209137796E+03  0.12500354711E+03 0.  0.
          2    1    1    2  501    0  0.34198243101E+02  0.65236559309E+01 -0.39816043898E+03  0.39967963807E+03  0.00000000000E+00 0. -1.
          1    1    1    2  502    0 -0.70954058604E+01  0.32371006903E+02 -0.50655969420E+00  0.33143377543E+02  0.00000000000E+00 0. -1.
         22    1    3    3    0    0 -0.65711609144E+02 -0.55325327451E+02 -0.22145304501E+03  0.23752970042E+03  0.00000000000E+00 0. -1.
         22    1    3    3    0    0  0.38608771903E+02  0.16430664617E+02 -0.21041889046E+03  0.21456167754E+03  0.00000000000E+00 0. -1.
</event>
<event>
 7    1  0.6358809E-006  0.9626445E+02  0.7818608E-02  0.1341038E+00
          2   -1    0    0  502    0  0.00000000000E+00  0.00000000000E+00  0.25597816844E+03  0.25597816844E+03  0.00000000000E+00 0. -1.
          1   -1    0    0  501    0 -0.00000000000E+00 -0.00000000000E+00 -0.15729709891E+03  0.15729709891E+03  0.00000000000E+00 0. -1.
         25    2    1    2    0    0  0.26968861570E+02  0.90754544349E+02  0.11211273581E+03  0.19276162046E+03  0.12499627986E+03 0.  0.
          2    1    1    2  501    0  0.54535917939E+02 -0.24725598622E+02 -0.77243060198E+02  0.97734394772E+02  0.00000000000E+00 0. -1.
          1    1    1    2  502    0 -0.81504779509E+02 -0.66028945728E+02  0.63811393914E+02  0.12277925211E+03  0.00000000000E+00 0. -1.
         22    1    3    3    0    0  0.69829102737E+02  0.18682966535E+02  0.43084310204E+02  0.84151141486E+02  0.00000000000E+00 0.  1.
         22    1    3    3    0    0 -0.42860241168E+02  0.72071577814E+02  0.69028425608E+02  0.10861047898E+03  0.00000000000E+00 0.  1.
</event>
<event>
 7    1  0.6358809E-006  0.3631884E+03  0.7818608E-02  0.1133391E+00
          2   -1    0    0  502    0  0.00000000000E+00  0.00000000000E+00  0.21728588738E+04  0.21728588738E+04  0.00000000000E+00 0. -1.
          1   -1    0    0  501    0 -0.00000000000E+00 -0.00000000000E+00 -0.83512026760E+03  0.83512026760E+03  0.00000000000E+00 0. -1.
         25    2    1    2    0    0  0.26485641163E+03  0.92299203546E+01  0.32252526689E+03  0.43575387282E+03  0.12499911874E+03 0.  0.
          2    1    1    2  501    0 -0.36172992496E+03 -0.10190753921E+03 -0.73043136872E+03  0.82143999754E+03  0.00000000000E+00 0. -1.
          1    1    1    2  502    0  0.96873513333E+02  0.92677618858E+02  0.17456447080E+04  0.17507852710E+04  0.00000000000E+00 0. -1.
         22    1    3    3    0    0  0.46287979181E+02 -0.46588799929E+02  0.93760961017E+02  0.11447362625E+03  0.00000000000E+00 0.  1.
         22    1    3    3    0    0  0.21856843245E+03  0.55818720283E+02  0.22876430587E+03  0.32128024657E+03  0.00000000000E+00 0.  1.
</event>
<event>
 7    1  0.6358809E-006  0.2057621E+03  0.7818608E-02  0.1189292E+00
          2   -1    0    0  502    0  0.00000000000E+00  0.00000000000E+00  0.13805166557E+04  0.13805166557E+04  0.00000000000E+00 0. -1.
          1   -1    0    0  501    0 -0.00000000000E+00 -0.00000000000E+00 -0.24400841812E+04  0.24400841812E+04  0.00000000000E+00 0. -1.
         25    2    1    2    0    0 -0.14232842182E+03  0.22478628065E+03  0.89214374802E+03  0.93932537670E+03  0.12500177820E+03 0.  0.
          2    1    1    2  501    0  0.10991949560E+03 -0.56517954345E+02 -0.23990534311E+04  0.24022351966E+04  0.00000000000E+00 0. -1.
          1    1    1    2  502    0  0.32408926213E+02 -0.16826832630E+03  0.44734215756E+03  0.47904026351E+03  0.00000000000E+00 0. -1.
         22    1    3    3    0    0 -0.72037812803E+02  0.20975703779E+02  0.29718308043E+03  0.30650809111E+03  0.00000000000E+00 0. -1.
         22    1    3    3    0    0 -0.70290609014E+02  0.20381057687E+03  0.59496066760E+03  0.63281728559E+03  0.00000000000E+00 0. -1.
</event>
<event>
 7    1  0.6358809E-006  0.1648708E+03  0.7818608E-02  0.1228665E+00
          2   -1    0    0  502    0  0.00000000000E+00  0.00000000000E+00  0.85186005405E+03  0.85186005405E+03  0.00000000000E+00 0. -1.
          1   -1    0    0  501    0 -0.00000000000E+00 -0.00000000000E+00 -0.10991286241E+04  0.10991286241E+04  0.00000000000E+00 0. -1.
         25    2    1    2    0    0  0.14277178425E+03  0.16353306574E+03 -0.74998250503E+03  0.79071734964E+03  0.12503328841E+03 0.  0.
          2    1    1    2  501    0 -0.49505931470E+02 -0.12418049075E+03 -0.31192592261E+03  0.33936619268E+03  0.00000000000E+00 0. -1.
          1    1    1    2  502    0 -0.93265852782E+02 -0.39352574987E+02  0.81463985759E+03  0.82090513583E+03  0.00000000000E+00 0. -1.
         22    1    3    3    0    0  0.15511494803E+03  0.17050611734E+03 -0.73404941134E+03  0.76939035700E+03  0.00000000000E+00 0. -1.
         22    1    3    3    0    0 -0.12343163782E+02 -0.69730516025E+01 -0.15933093690E+02  0.21326992646E+02  0.00000000000E+00 0. -1.
</event>
<event>
 7    1  0.6358809E-006  0.1278105E+03  0.7818608E-02  0.1294486E+00
          2   -1    0    0  502    0  0.00000000000E+00  0.00000000000E+00  0.24993659524E+03  0.24993659524E+03  0.00000000000E+00 0. -1.
          1   -1    0    0  501    0 -0.00000000000E+00 -0.00000000000E+00 -0.24449429410E+04  0.24449429410E+04  0.00000000000E+00 0. -1.
         25    2    1    2    0    0 -0.29124069558E+02 -0.71382307021E+02 -0.16753199762E+03  0.22279082925E+03  0.12500055275E+03 0.  0.
          2    1    1    2  501    0 -0.63960004120E+02 -0.24429844899E+02 -0.22291408457E+04  0.22301920566E+04  0.00000000000E+00 0. -1.
          1    1    1    2  502    0  0.93084073678E+02  0.95812151920E+02  0.20166649756E+03  0.24189665038E+03  0.00000000000E+00 0. -1.
         22    1    3    3    0    0 -0.30162156969E+02 -0.74962798324E+02 -0.31528919861E+02  0.86736668331E+02  0.00000000000E+00 0. -1.
         22    1    3    3    0    0  0.10380874113E+01  0.35804913025E+01 -0.13600307776E+03  0.13605416092E+03  0.00000000000E+00 0. -1.
</event>
<event>
 7    1  0.6980979E-006  0.1079304E+03  0.7818608E-02  0.1338771E+00
          2   -1    0    0  502    0  0.00000000000E+00  0.00000000000E+00  0.10886245643E+04  0.10886245643E+04  0.00000000000E+00 0. -1.
          1   -1    0    0  501    0 -0.00000000000E+00 -0.00000000000E+00 -0.77583402606E+03  0.77583402606E+03  0.00000000000E+00 0. -1.
         25    2    1    2    0    0 -0.38659766146E+02 -0.89575143057E+02 -0.11618389751E+03  0.19657326809E+03  0.12499627161E+03 0.  0.
          2    1    1    2  501    0  0.88148134984E+02  0.66827053819E+02 -0.61380084681E+03  0.62368856680E+03  0.00000000000E+00 0. -1.
          1    1    1    2  502    0 -0.49488368838E+02  0.22748089238E+02  0.10427752826E+04  0.10441967555E+04  0.00000000000E+00 0. -1.
         22    1    3    3    0    0 -0.46362940296E+02 -0.11126189894E+03 -0.57519487786E+02  0.13355607012E+03  0.00000000000E+00 0.  1.
         22    1    3    3    0    0  0.77031741507E+01  0.21686755888E+02 -0.58664409721E+02  0.63017197976E+02  0.00000000000E+00 0.  1.
</event>
<event>
 7    1  0.6358809E-006  0.1745655E+03  0.7818608E-02  0.1373092E+00
          2   -1    0    0  502    0  0.00000000000E+00  0.00000000000E+00  0.12791275148E+04  0.12791275148E+04  0.00000000000E+00 0. -1.
          1   -1    0    0  501    0 -0.00000000000E+00 -0.00000000000E+00 -0.63798686857E+03  0.63798686857E+03  0.00000000000E+00 0. -1.
         25    2    1    2    0    0 -0.15961641764E+03  0.11092359282E+03  0.56447317779E+03  0.60994718826E+03  0.12499663913E+03 0.  0.
          2    1    1    2  501    0  0.15065780415E+03 -0.87378157793E+02 -0.60268635275E+03  0.62734644033E+03  0.00000000000E+00 0. -1.
          1    1    1    2  502    0  0.89586134891E+01 -0.23545435027E+02  0.67935382117E+03  0.67982075476E+03  0.00000000000E+00 0. -1.
         22    1    3    3    0    0 -0.11742442285E+03  0.13541039542E+03  0.39846330783E+03  0.43691815933E+03  0.00000000000E+00 0. -1.
         22    1    3    3    0    0 -0.42191994787E+02 -0.24486802598E+02  0.16600986996E+03  0.17302902892E+03  0.00000000000E+00 0. -1.
</event>
<event>
 7    1  0.6358809E-006  0.5957914E+02  0.7818608E-02  0.1438696E+00
          2   -1    0    0  502    0  0.00000000000E+00  0.00000000000E+00  0.31192698110E+04  0.31192698110E+04  0.00000000000E+00 0. -1.
          1   -1    0    0  501    0 -0.00000000000E+00 -0.00000000000E+00 -0.13774147315E+04  0.13774147315E+04  0.00000000000E+00 0. -1.
         25    2    1    2    0    0  0.80464640277E+02 -0.24261881972E+02  0.25023522998E+03  0.29207146421E+03  0.12499949052E+03 0.  0.
          2    1    1    2  501    0 -0.22654232020E+02  0.37826015809E+02 -0.13558287085E+04  0.13565454317E+04  0.00000000000E+00 0. -1.
          1    1    1    2  502    0 -0.57810408257E+02 -0.13564133837E+02  0.28474485580E+04  0.28480676465E+04  0.00000000000E+00 0. -1.
         22    1    3    3    0    0  0.50212739667E+02  0.21366410181E+02  0.22547876224E+03  0.23198817843E+03  0.00000000000E+00 0. -1.
         22    1    3    3    0    0  0.30251900610E+02 -0.45628292154E+02  0.24756467739E+02  0.60083285781E+02  0.00000000000E+00 0. -1.
</event>
<event>
 7    1  0.6358809E-006  0.1115990E+03  0.7818608E-02  0.1451962E+00
          2   -1    0    0  502    0  0.00000000000E+00  0.00000000000E+00  0.19547856173E+04  0.19547856173E+04  0.00000000000E+00 0. -1.
          1   -1    0    0  501    0 -0.00000000000E+00 -0.00000000000E+00 -0.43498725859E+03  0.43498725859E+03  0.00000000000E+00 0. -1.
         25    2    1    2    0    0 -0.10284112495E+02 -0.10171805174E+03  0.32723730885E+03  0.36491264454E+03  0.12499862726E+03 0.  0.
          2    1    1    2  501    0 -0.20219231184E+02 -0.68038091858E+01 -0.41389975713E+03  0.41444917431E+03  0.00000000000E+00 0. -1.
          1    1    1    2  502    0  0.30503343679E+02  0.10852186092E+03  0.16064608070E+04  0.16104110571E+04  0.00000000000E+00 0. -1.
         22    1    3    3    0    0 -0.62781561263E+02 -0.56553176801E+02  0.23386668349E+03  0.24866324997E+03  0.00000000000E+00 0.  1.
         22    1    3    3    0    0  0.52497448768E+02 -0.45164874935E+02  0.93370625367E+02  0.11624939456E+03  0.00000000000E+00 0.  1.
</event>
<event>
 7    1  0.6358809E-006  0.7926496E+02  0.7818608E-02  0.1459695E+00
          2   -1    0    0  502    0  0.00000000000E+00  0.00000000000E+00  0.22266109849E+02  0.22266109849E+02  0.00000000000E+00 0. -1.
          1   -1    0    0  501    0 -0.00000000000E+00 -0.00000000000E+00 -0.17340644654E+04  0.17340644654E+04  0.00000000000E+00 0. -1.
         25    2    1    2    0    0  0.55184659763E+02  0.21031824948E+02 -0.61805515275E+03  0.63332821449E+03  0.12499908440E+03 0.  0.
          2    1    1    2  501    0  0.27188811586E+02 -0.81553162595E+01 -0.98770325657E+03  0.98811105838E+03  0.00000000000E+00 0. -1.
          1    1    1    2  502    0 -0.82373471349E+02 -0.12876508688E+02 -0.10603994622E+03  0.13489130236E+03  0.00000000000E+00 0. -1.
         22    1    3    3    0    0  0.33423194384E+02 -0.50989879442E+02 -0.33154287060E+03  0.33710199165E+03  0.00000000000E+00 0. -1.
         22    1    3    3    0    0  0.21761465379E+02  0.72021704390E+02 -0.28651228215E+03  0.29622622285E+03  0.00000000000E+00 0. -1.
</event>
<event>
 7    1  0.6358809E-006  0.1393172E+03  0.7818608E-02  0.1365856E+00
          2   -1    0    0  502    0  0.00000000000E+00  0.00000000000E+00  0.12944506947E+04  0.12944506947E+04  0.00000000000E+00 0. -1.
          1   -1    0    0  501    0 -0.00000000000E+00 -0.00000000000E+00 -0.13568024799E+03  0.13568024799E+03  0.00000000000E+00 0. -1.
         25    2    1    2    0    0 -0.10133816176E+03 -0.12213044068E+03  0.13927438472E+03  0.24536760237E+03  0.12499055358E+03 0.  0.
          2    1    1    2  501    0  0.33452135953E+02  0.20714197227E+01 -0.74718137182E+02  0.81891001968E+02  0.00000000000E+00 0. -1.
          1    1    1    2  502    0  0.67886025810E+02  0.12005902096E+03  0.10942141991E+04  0.11028723383E+04  0.00000000000E+00 0. -1.
         22    1    3    3    0    0 -0.12973127722E+03 -0.88634233941E+02  0.11847081010E+03  0.19677795751E+03  0.00000000000E+00 0.  1.
         22    1    3    3    0    0  0.28393115456E+02 -0.33496206737E+02  0.20803574621E+02  0.48589644865E+02  0.00000000000E+00 0.  1.
</event>
<event>
 7    1  0.6358809E-006  0.2612819E+02  0.7818608E-02  0.1656126E+00
          2   -1    0    0  502    0  0.00000000000E+00  0.00000000000E+00  0.46580275433E+03  0.46580275433E+03  0.00000000000E+00 0. -1.
          1   -1    0    0  501    0 -0.00000000000E+00 -0.00000000000E+00 -0.42663608894E+03  0.42663608894E+03  0.00000000000E+00 0. -1.
         25    2    1    2    0    0  0.27330660705E+02  0.15151613323E+01 -0.64113750317E+02  0.14312441639E+03  0.12499905943E+03 0.  0.
          2    1    1    2  501    0 -0.16410548359E+02  0.20507109518E+02 -0.32212771674E+03  0.32319671027E+03  0.00000000000E+00 0. -1.
          1    1    1    2  502    0 -0.10920112346E+02 -0.22022270850E+02  0.42540813244E+03  0.42611771662E+03  0.00000000000E+00 0. -1.
         22    1    3    3    0    0 -0.36782198214E+02 -0.28289553910E+01  0.16179698836E+02  0.40282946125E+02  0.00000000000E+00 0.  1.
         22    1    3    3    0    0  0.64112858919E+02  0.43441167234E+01 -0.80293449153E+02  0.10284147026E+03  0.00000000000E+00 0.  1.
</event>
<event>
 7    1  0.6358809E-006  0.1039759E+03  0.7818608E-02  0.1413957E+00
          2   -1    0    0  502    0  0.00000000000E+00  0.00000000000E+00  0.15361724116E+04  0.15361724116E+04  0.00000000000E+00 0. -1.
          1   -1    0    0  501    0 -0.00000000000E+00 -0.00000000000E+00 -0.12164589771E+04  0.12164589771E+04  0.00000000000E+00 0. -1.
         25    2    1    2    0    0 -0.94917345625E+02  0.16776261347E+02  0.30531167590E+03  0.34370161034E+03  0.12499932825E+03 0.  0.
          2    1    1    2  501    0  0.10329739015E+03  0.12556865640E+02 -0.11948102735E+04  0.11993329877E+04  0.00000000000E+00 0. -1.
          1    1    1    2  502    0 -0.83800445250E+01 -0.29333126987E+02  0.12092120321E+04  0.12095967907E+04  0.00000000000E+00 0. -1.
         22    1    3    3    0    0 -0.77619929643E+02  0.33747684957E+02  0.77990569632E+02  0.11509252221E+03  0.00000000000E+00 0.  1.
         22    1    3    3    0    0 -0.17297415981E+02 -0.16971423610E+02  0.22732110626E+03  0.22860908812E+03  0.00000000000E+00 0.  1.
</event>
<event>
 7    1  0.6358809E-006  0.6982613E+02  0.7818608E-02  0.1366594E+00
          2   -1    0    0  502    0  0.00000000000E+00  0.00000000000E+00  0.16683885549E+04  0.16683885549E+04  0.00000000000E+00 0. -1.
          1   -1    0    0  501    0 -0.00000000000E+00 -0.00000000000E+00 -0.74416310227E+02  0.74416310227E+02  0.00000000000E+00 0. -1.
         25    2    1    2    0    0  0.71872326753E+01 -0.59657455634E+02  0.25910286164E+03  0.29388730368E+03  0.12499914412E+03 0.  0.
          2    1    1    2  501    0 -0.66621379960E+02  0.29912360580E+02 -0.32500104753E+02  0.79933812571E+02  0.00000000000E+00 0. -1.
          1    1    1    2  502    0  0.59434147284E+02  0.29745095054E+02  0.13673694878E+04  0.13689837489E+04  0.00000000000E+00 0. -1.
         22    1    3    3    0    0 -0.48644979310E+02 -0.58729618553E+02  0.10344075859E+03  0.12851261668E+03  0.00000000000E+00 0. -1.
         22    1    3    3    0    0  0.55832211986E+02 -0.92783708167E+00  0.15566210305E+03  0.16537468700E+03  0.00000000000E+00 0. -1.
</event>
<event>
 7    1  0.6358809E-006  0.1089667E+03  0.7818608E-02  0.1440492E+00
          2   -1    0    0  502    0  0.00000000000E+00  0.00000000000E+00  0.61147187756E+03  0.61147187756E+03  0.00000000000E+00 0. -1.
          1   -1    0    0  501    0 -0.00000000000E+00 -0.00000000000E+00 -0.52941392775E+03  0.52941392775E+03  0.00000000000E+00 0. -1.
         25    2    1    2    0    0 -0.68762481490E+02  0.51821975506E+02  0.22436830413E+03  0.27088788473E+03  0.12500125676E+03 0.  0.
          2    1    1    2  501    0  0.90226727878E+02 -0.62071572006E+02 -0.49983036806E+03  0.51168754070E+03  0.00000000000E+00 0. -1.
          1    1    1    2  502    0 -0.21464246388E+02  0.10249596500E+02  0.35752001374E+03  0.35831037988E+03  0.00000000000E+00 0. -1.
         22    1    3    3    0    0  0.11130269937E+02 -0.18935090750E+02  0.11866060937E+03  0.12067626439E+03  0.00000000000E+00 0.  1.
         22    1    3    3    0    0 -0.79892751427E+02  0.70757066256E+02  0.10570769475E+03  0.15021162034E+03  0.00000000000E+00 0.  1.
</event>
<event>
 7    1  0.6358809E-006  0.1483981E+03  0.7818608E-02  0.1369038E+00
          2   -1    0    0  502    0  0.00000000000E+00  0.00000000000E+00  0.13973889063E+04  0.13973889063E+04  0.00000000000E+00 0. -1.
          1   -1    0    0  501    0 -0.00000000000E+00 -0.00000000000E+00 -0.31166853079E+03  0.31166853079E+03  0.00000000000E+00 0. -1.
         25    2    1    2    0    0 -0.14687413308E+03 -0.52389256568E+02  0.11080318832E+02  0.20016103343E+03  0.12500008266E+03 0.  0.
          2    1    1    2  501    0  0.12647412552E+03  0.75256323774E+02 -0.19198326281E+03  0.24190244293E+03  0.00000000000E+00 0. -1.
          1    1    1    2  502    0  0.20400007563E+02 -0.22867067206E+02  0.12666233195E+04  0.12669939607E+04  0.00000000000E+00 0. -1.
         22    1    3    3    0    0 -0.11475645727E+03  0.23473922350E+02  0.12244657853E+02  0.11777096910E+03  0.00000000000E+00 0.  1.
         22    1    3    3    0    0 -0.32117675810E+02 -0.75863178918E+02 -0.11643390207E+01  0.82390064330E+02  0.00000000000E+00 0.  1.
</event>
<event>
 7    1  0.6358809E-006  0.5210101E+02  0.7818608E-02  0.1474319E+00
          2   -1    0    0  502    0  0.00000000000E+00  0.00000000000E+00  0.13665060750E+02  0.13665060750E+02  0.00000000000E+00 0. -1.
          1   -1    0    0  501    0 -0.00000000000E+00 -0.00000000000E+00 -0.14166136164E+04  0.14166136164E+04  0.00000000000E+00 0. -1.
         25    2    1    2    0    0  0.70501781080E+02 -0.23287670228E+01 -0.82058327728E+03  0.83304127513E+03  0.12499970728E+03 0.  0.
          2    1    1    2  501    0 -0.26580862703E+02  0.28365188697E+02 -0.49129741900E+03  0.49283291297E+03  0.00000000000E+00 0. -1.
          1    1    1    2  502    0 -0.43920918377E+02 -0.26036421675E+02 -0.91067859396E+02  0.10440448908E+03  0.00000000000E+00 0. -1.
         22    1    3    3    0    0 -0.19383701037E+02  0.39783329639E+02 -0.24763987525E+03  0.25156301198E+03  0.00000000000E+00 0.  1.
         22    1    3    3    0    0  0.89885482118E+02 -0.42112096662E+02 -0.57294340203E+03  0.58147826315E+03  0.00000000000E+00 0.  1.
</event>
<event>
 7    1  0.6358809E-006  0.1979823E+03  0.7818608E-02  0.1289198E+00
          2   -1    0    0  502    0  0.00000000000E+00  0.00000000000E+00  0.14601107335E+04  0.14601107335E+04  0.00000000000E+00 0. -1.
          1   -1    0    0  501    0 -0.00000000000E+00 -0.00000000000E+00 -0.13631331773E+04  0.13631331773E+04  0.00000000000E+00 0. -1.
         25    2    1    2    0    0  0.80521206476E+02 -0.16100870832E+03  0.70841546194E+02  0.23032696928E+03  0.12499807703E+03 0.  0.
          2    1    1    2  501    0 -0.32445788954E+02 -0.33221577333E+02 -0.12753220765E+04  0.12761672309E+04  0.00000000000E+00 0. -1.
          1    1    1    2  502    0 -0.48075417523E+02  0.19423028565E+03  0.13014580865E+04  0.13167497107E+04  0.00000000000E+00 0. -1.
         22    1    3    3    0    0  0.10756101196E+03 -0.14256540594E+03  0.80937667762E+02  0.19607440508E+03  0.00000000000E+00 0. -1.
         22    1    3    3    0    0 -0.27039805483E+02 -0.18443302378E+02 -0.10096121568E+02  0.34252564194E+02  0.00000000000E+00 0. -1.
</event>
<event>
 7    1  0.6358809E-006  0.5996285E+02  0.7818608E-02  0.1399869E+00
          2   -1    0    0  502    0  0.00000000000E+00  0.00000000000E+00  0.12226806918E+04  0.12226806918E+04  0.00000000000E+00 0. -1.
          1   -1    0    0  501    0 -0.00000000000E+00 -0.00000000000E+00 -0.25700343226E+02  0.25700343226E+02  0.00000000000E+00 0. -1.
         25    2    1    2    0    0 -0.16578977363E+02 -0.94106993430E+01  0.51537683397E+03  0.53066187168E+03  0.12500126919E+03 0.  0.
          2    1    1    2  501    0 -0.50373718624E+02  0.32527407988E+02  0.39687654081E+02  0.71907257526E+02  0.00000000000E+00 0. -1.
          1    1    1    2  502    0  0.66952695986E+02 -0.23116708645E+02  0.64191586048E+03  0.64581190579E+03  0.00000000000E+00 0. -1.
         22    1    3    3    0    0 -0.36545324997E+02 -0.40074193937E+02  0.46631063310E+03  0.46945405349E+03  0.00000000000E+00 0. -1.
         22    1    3    3    0    0  0.19966347635E+02  0.30663494594E+02  0.49066200880E+02  0.61207818188E+02  0.00000000000E+00 0. -1.
</event>
<event>
 7    1  0.6358809E-006  0.7594568E+02  0.7818608E-02  0.1405353E+00
          2   -1    0    0  502    0  0.00000000000E+00  0.00000000000E+00  0.43661170143E+03  0.43661170143E+03  0.00000000000E+00 0. -1.
          1   -1    0    0  501    0 -0.00000000000E+00 -0.00000000000E+00 -0.72753782543E+03  0.72753782543E+03  0.00000000000E+00 0. -1.
         25    2    1    2    0    0  0.33241628872E+02 -0.16751331655E+02 -0.22748132044E+03  0.26221318596E+03  0.12498956253E+03 0.  0.
          2    1    1    2  501    0  0.43127934945E+02  0.11627506405E+02 -0.47814742666E+03  0.48022929866E+03  0.00000000000E+00 0. -1.
          1    1    1    2  502    0 -0.76369563817E+02  0.51238252499E+01  0.41470262310E+03  0.42170704223E+03  0.00000000000E+00 0. -1.
         22    1    3    3    0    0  0.38233211175E+02 -0.67098708775E+02 -0.16197464627E+03  0.17944303049E+03  0.00000000000E+00 0. -1.
         22    1    3    3    0    0 -0.49915823028E+01  0.50347377120E+02 -0.65506674169E+02  0.82770155476E+02  0.00000000000E+00 0. -1.
</event>
<event>
 7    1  0.6358809E-006  0.3300381E+02  0.7818608E-02  0.1575518E+00
          2   -1    0    0  502    0  0.00000000000E+00  0.00000000000E+00  0.12838970977E+03  0.12838970977E+03  0.00000000000E+00 0. -1.
          1   -1    0    0  501    0 -0.00000000000E+00 -0.00000000000E+00 -0.96583753855E+03  0.96583753855E+03  0.00000000000E+00 0. -1.
         25    2    1    2    0    0 -0.26357071874E+01  0.63867577177E+02  0.17522912718E+02  0.14147627453E+03  0.12498987726E+03 0.  0.
          2    1    1    2  501    0 -0.16135111469E+01 -0.32848183194E+02 -0.89851642014E+03  0.89911810338E+03  0.00000000000E+00 0. -1.
          1    1    1    2  502    0  0.42492183343E+01 -0.31019393984E+02  0.43545678652E+02  0.53632870414E+02  0.00000000000E+00 0. -1.
         22    1    3    3    0    0  0.59025027587E+02  0.35682625523E+02 -0.71211597994E+01  0.69339127213E+02  0.00000000000E+00 0.  1.
         22    1    3    3    0    0 -0.61660734774E+02  0.28184951654E+02  0.24644072518E+02  0.72137147316E+02  0.00000000000E+00 0.  1.
</event>
<event>
 7    1  0.6358809E-006  0.5299600E+02  0.7818608E-02  0.1441938E+00
          2   -1    0    0  502    0  0.00000000000E+00  0.00000000000E+00  0.46210916039E+03  0.46210916039E+03  0.00000000000E+00 0. -1.
          1   -1    0    0  501    0 -0.00000000000E+00 -0.00000000000E+00 -0.62067894693E+03  0.62067894693E+03  0.00000000000E+00 0. -1.
         25    2    1    2    0    0  0.40588170936E+02  0.13071774856E+02 -0.48641596442E+02  0.14074493309E+03  0.12499944148E+03 0.  0.
          2    1    1    2  501    0 -0.31590956869E+00 -0.48381183113E+02 -0.52314109538E+03  0.52537362358E+03  0.00000000000E+00 0. -1.
          1    1    1    2  502    0 -0.40272261367E+02  0.35309408256E+02  0.41321290528E+03  0.41666955065E+03  0.00000000000E+00 0. -1.
         22    1    3    3    0    0  0.10144848738E+02  0.65217110503E+02 -0.48972336903E+01  0.66182870564E+02  0.00000000000E+00 0.  1.
         22    1    3    3    0    0  0.30443322198E+02 -0.52145335647E+02 -0.43744362752E+02  0.74562062530E+02  0.00000000000E+00 0.  1.
</event>
<event>
 7    1  0.6358809E-006  0.6311901E+02  0.7818608E-02  0.1389496E+00
          2   -1    0    0  502    0  0.00000000000E+00  0.00000000000E+00  0.36314907668E+04  0.36314907668E+04  0.00000000000E+00 0. -1.
          1   -1    0    0  501    0 -0.00000000000E+00 -0.00000000000E+00 -0.19975464931E+02  0.19975464931E+02  0.00000000000E+00 0. -1.
         25    2    1    2    0    0  0.13100617093E+02  0.16691880642E+02  0.11724963948E+04  0.11793316041E+04  0.12499996601E+03 0.  0.
          2    1    1    2  501    0  0.53055283096E+02 -0.34192778659E+02  0.45915036782E+02  0.78052544990E+02  0.00000000000E+00 0. -1.
          1    1    1    2  502    0 -0.66155900188E+02  0.17500898017E+02  0.23931038703E+04  0.23940820826E+04  0.00000000000E+00 0. -1.
         22    1    3    3    0    0  0.18575788743E+02  0.54032029323E+02  0.10399179302E+04  0.10414863522E+04  0.00000000000E+00 0. -1.
         22    1    3    3    0    0 -0.54751716504E+01 -0.37340148682E+02  0.13257846462E+03  0.13784525196E+03  0.00000000000E+00 0. -1.
</event>
<event>
 7    1  0.6358809E-006  0.3974669E+02  0.7818608E-02  0.1554605E+00
          2   -1    0    0  502    0  0.00000000000E+00  0.00000000000E+00  0.57550674484E+03  0.57550674484E+03  0.00000000000E+00 0. -1.
          1   -1    0    0  501    0 -0.00000000000E+00 -0.00000000000E+00 -0.21955825609E+04  0.21955825609E+04  0.00000000000E+00 0. -1.
         25    2    1    2    0    0 -0.96017582509E+01 -0.55966815901E+02 -0.47204280780E+02  0.14518401161E+03  0.12500269941E+03 0.  0.
          2    1    1    2  501    0  0.25162019529E+02  0.30720121039E+02 -0.20987828419E+04  0.20991584672E+04  0.00000000000E+00 0. -1.
          1    1    1    2  502    0 -0.15560261278E+02  0.25246694862E+02  0.52591130657E+03  0.52674682696E+03  0.00000000000E+00 0. -1.
         22    1    3    3    0    0 -0.49508446618E+01  0.32955965916E+02 -0.45148580063E+02  0.56115958818E+02  0.00000000000E+00 0.  1.
         22    1    3    3    0    0 -0.46509135891E+01 -0.88922781817E+02 -0.20557007167E+01  0.89068052795E+02  0.00000000000E+00 0.  1.
</event>
<event>
 7    1  0.6358809E-006  0.9109781E+02  0.7818608E-02  0.1427319E+00
          2   -1    0    0  502    0  0.00000000000E+00  0.00000000000E+00  0.54966343191E+03  0.54966343191E+03  0.00000000000E+00 0. -1.
          1   -1    0    0  501    0 -0.00000000000E+00 -0.00000000000E+00 -0.39450053242E+03  0.39450053242E+03  0.00000000000E+00 0. -1.
         25    2    1    2    0    0 -0.15633618015E+02  0.11982849095E+03  0.88705485416E+02  0.19517644627E+03  0.12498761851E+03 0.  0.
          2    1    1    2  501    0  0.16088789985E+02 -0.88409900198E+02 -0.33472445115E+03  0.34657700128E+03  0.00000000000E+00 0. -1.
          1    1    1    2  502    0 -0.45517197027E+00 -0.31418590752E+02  0.40118186522E+03  0.40241051677E+03  0.00000000000E+00 0. -1.
         22    1    3    3    0    0 -0.30303028915E+02  0.41240695437E+01 -0.19344950939E+02  0.36187133596E+02  0.00000000000E+00 0.  1.
         22    1    3    3    0    0  0.14669410901E+02  0.11570442141E+03  0.10805043635E+03  0.15898931268E+03  0.00000000000E+00 0.  1.
</event>
<event>
 7    1  0.6358809E-006  0.1708501E+03  0.7818608E-02  0.1222872E+00
          2   -1    0    0  502    0  0.00000000000E+00  0.00000000000E+00  0.32825593629E+03  0.32825593629E+03  0.00000000000E+00 0. -1.
          1   -1    0    0  501    0 -0.00000000000E+00 -0.00000000000E+00 -0.33846254405E+03  0.33846254405E+03  0.00000000000E+00 0. -1.
         25    2    1    2    0    0  0.71771412858E+02 -0.22637155458E+03 -0.70254251785E+01  0.26845589470E+03  0.12499597744E+03 0.  0.
          2    1    1    2  501    0  0.47751853360E+01  0.15633649898E+03 -0.15117329530E+03  0.21752532846E+03  0.00000000000E+00 0. -1.
          1    1    1    2  502    0 -0.76546598194E+02  0.70035055593E+02  0.14799211272E+03  0.18073725718E+03  0.00000000000E+00 0. -1.
         22    1    3    3    0    0 -0.27531331446E+02 -0.50778268523E+02  0.27200001233E+02  0.63845491873E+02  0.00000000000E+00 0.  1.
         22    1    3    3    0    0  0.99302744304E+02 -0.17559328605E+03 -0.34225426411E+02  0.20461040283E+03  0.00000000000E+00 0.  1.
</event>
<event>
 7    1  0.6358809E-006  0.1456727E+03  0.7818608E-02  0.1357277E+00
          2   -1    0    0  502    0  0.00000000000E+00  0.00000000000E+00  0.11214351569E+04  0.11214351569E+04  0.00000000000E+00 0. -1.
          1   -1    0    0  501    0 -0.00000000000E+00 -0.00000000000E+00 -0.21936823175E+04  0.21936823175E+04  0.00000000000E+00 0. -1.
         25    2    1    2    0    0 -0.12951399396E+03  0.47595191459E+02  0.16213610406E+03  0.24688296914E+03  0.12499562925E+03 0.  0.
          2    1    1    2  501    0 -0.16655758284E+02 -0.30149457054E+02 -0.21452614269E+04  0.21455379264E+04  0.00000000000E+00 0. -1.
          1    1    1    2  502    0  0.14616975224E+03 -0.17445734405E+02  0.91087816222E+03  0.92269657880E+03  0.00000000000E+00 0. -1.
         22    1    3    3    0    0 -0.18320432007E+02  0.48440445218E+02  0.11497090402E+03  0.12609688233E+03  0.00000000000E+00 0.  1.
         22    1    3    3    0    0 -0.11119356195E+03 -0.84525375843E+00  0.47165200039E+02  0.12078608681E+03  0.00000000000E+00 0.  1.
</event>
<event>
 7    1  0.6358809E-006  0.1105935E+03  0.7818608E-02  0.1297068E+00
          2   -1    0    0  502    0  0.00000000000E+00  0.00000000000E+00  0.16160232371E+04  0.16160232371E+04  0.00000000000E+00 0. -1.
          1   -1    0    0  501    0 -0.00000000000E+00 -0.00000000000E+00 -0.20024622680E+04  0.20024622680E+04  0.00000000000E+00 0. -1.
         25    2    1    2    0    0  0.43239370418E+02 -0.85231897205E+01  0.53526466360E+02  0.14293902535E+03  0.12499677776E+03 0.  0.
          2    1    1    2  501    0  0.46684968418E+02 -0.61550281517E+02 -0.19548512667E+04  0.19563771105E+04  0.00000000000E+00 0. -1.
          1    1    1    2  502    0 -0.89924338835E+02  0.70073471237E+02  0.15148857694E+04  0.15191693693E+04  0.00000000000E+00 0. -1.
         22    1    3    3    0    0 -0.33430306074E+02 -0.89702110758E+01  0.56445080031E+02  0.66212514759E+02  0.00000000000E+00 0.  1.
         22    1    3    3    0    0  0.76669676492E+02  0.44702135529E+00 -0.29186136705E+01  0.76726510590E+02  0.00000000000E+00 0.  1.
</event>
<event>
 7    1  0.6358809E-006  0.1220015E+03  0.7818608E-02  0.1364961E+00
          2   -1    0    0  502    0  0.00000000000E+00  0.00000000000E+00  0.44570741374E+03  0.44570741374E+03  0.00000000000E+00 0. -1.
          1   -1    0    0  501    0 -0.00000000000E+00 -0.00000000000E+00 -0.99240095310E+03  0.99240095310E+03  0.00000000000E+00 0. -1.
         25    2    1    2    0    0  0.82028419484E+02  0.29927560810E+02  0.87319369664E+02  0.17570986945E+03  0.12499986162E+03 0.  0.
          2    1    1    2  501    0 -0.10865710097E+03 -0.57815709332E+02 -0.94300820814E+03  0.95100657330E+03  0.00000000000E+00 0. -1.
          1    1    1    2  502    0  0.26628681488E+02  0.27888148521E+02  0.30899529912E+03  0.31139192408E+03  0.00000000000E+00 0. -1.
         22    1    3    3    0    0  0.12533390752E+02  0.70645452183E+02  0.45445494598E+02  0.84930317185E+02  0.00000000000E+00 0. -1.
         22    1    3    3    0    0  0.69495028732E+02 -0.40717891373E+02  0.41873875066E+02  0.90779552265E+02  0.00000000000E+00 0. -1.
</event>
<event>
 7    1  0.8397425E-006  0.5006879E+02  0.7818608E-02  0.1567809E+00
          2   -1    0    0  502    0  0.00000000000E+00  0.00000000000E+00  0.16946543622E+04  0.16946543622E+04  0.00000000000E+00 0. -1.
          1   -1    0    0  501    0 -0.00000000000E+00 -0.00000000000E+00 -0.12797202100E+04  0.12797202100E+04  0.00000000000E+00 0. -1.
         25    2    1    2    0    0 -0.11603081765E+02  0.66725528861E+02 -0.34322865383E+03  0.37150826126E+03  0.12500220664E+03 0.  0.
          2    1    1    2  501    0 -0.73098758603E+01 -0.20384373216E+02 -0.92185187993E+03  0.92210620076E+03  0.00000000000E+00 0. -1.
          1    1    1    2  502    0  0.18912957625E+02 -0.46341155645E+02  0.16800146860E+04  0.16807601101E+04  0.00000000000E+00 0. -1.
         22    1    3    3    0    0  0.30361539218E+02  0.78075653298E+02 -0.13569422725E+03  0.15946960215E+03  0.00000000000E+00 0.  1.
         22    1    3    3    0    0 -0.41964620983E+02 -0.11350124437E+02 -0.20753442658E+03  0.21203865911E+03  0.00000000000E+00 0.  1.
</event>
<event>
 7    1  0.6358809E-006  0.8068231E+02  0.7818608E-02  0.1389343E+00
          2   -1    0    0  502    0  0.00000000000E+00  0.00000000000E+00  0.23804562530E+04  0.23804562530E+04  0.00000000000E+00 0. -1.
          1   -1    0    0  501    0 -0.00000000000E+00 -0.00000000000E+00 -0.38663694502E+03  0.38663694502E+03  0.00000000000E+00 0. -1.
         25    2    1    2    0    0 -0.86503669479E+02 -0.83309999148E+00 -0.97636442766E+02  0.18066950026E+03  0.12500005792E+03 0.  0.
          2    1    1    2  501    0  0.68196791752E+02  0.44936370201E+02 -0.24049499087E+03  0.25398409479E+03  0.00000000000E+00 0. -1.
          1    1    1    2  502    0  0.18306877727E+02 -0.44103270209E+02  0.23319507416E+04  0.23324396029E+04  0.00000000000E+00 0. -1.
         22    1    3    3    0    0 -0.81781727304E+02  0.16911075448E+01  0.10816003337E+01  0.81806360540E+02  0.00000000000E+00 0.  1.
         22    1    3    3    0    0 -0.47219421750E+01 -0.25242075363E+01 -0.98718043099E+02  0.98863139718E+02  0.00000000000E+00 0.  1.
</event>
<event>
 7    1  0.6358809E-006  0.7675794E+02  0.7818608E-02  0.1397580E+00
          2   -1    0    0  502    0  0.00000000000E+00  0.00000000000E+00  0.33044394209E+04  0.33044394209E+04  0.00000000000E+00 0. -1.
          1   -1    0    0  501    0 -0.00000000000E+00 -0.00000000000E+00 -0.33524264718E+02  0.33524264718E+02  0.00000000000E+00 0. -1.
         25    2    1    2    0    0  0.10649834317E+03  0.58612712698E+02  0.16158014791E+04  0.16251820505E+04  0.12499972085E+03 0.  0.
          2    1    1    2  501    0 -0.69102666862E+02 -0.30151185421E+02  0.21372768862E+02  0.78364965377E+02  0.00000000000E+00 0. -1.
          1    1    1    2  502    0 -0.37395676305E+02 -0.28461527277E+02  0.16337409082E+04  0.16344166697E+04  0.00000000000E+00 0. -1.
         22    1    3    3    0    0  0.11156458215E+03  0.85704414328E+02  0.11512999275E+04  0.11598635376E+04  0.00000000000E+00 0.  1.
         22    1    3    3    0    0 -0.50662389798E+01 -0.27091701630E+02  0.46450155158E+03  0.46531851295E+03  0.00000000000E+00 0.  1.
</event>
<event>
 7    1  0.6358809E-006  0.6363540E+02  0.7818608E-02  0.1415835E+00
          2   -1    0    0  502    0  0.00000000000E+00  0.00000000000E+00  0.13118097382E+04  0.13118097382E+04  0.00000000000E+00 0. -1.
          1   -1    0    0  501    0 -0.00000000000E+00 -0.00000000000E+00 -0.14805255994E+04  0.14805255994E+04  0.00000000000E+00 0. -1.
         25    2    1    2    0    0  0.77163653112E+01  0.80792020184E+02  0.39881618888E+03  0.42575197426E+03  0.12499399289E+03 0.  0.
          2    1    1    2  501    0  0.35296321276E+02 -0.34169180169E+02 -0.14655273157E+04  0.14663504616E+04  0.00000000000E+00 0. -1.
          1    1    1    2  502    0 -0.43012686587E+02 -0.46622840016E+02  0.89799526554E+03  0.90023290172E+03  0.00000000000E+00 0. -1.
         22    1    3    3    0    0 -0.12005634106E+02  0.33723573434E+01  0.29248972350E+03  0.29275543786E+03  0.00000000000E+00 0.  1.
         22    1    3    3    0    0  0.19721999417E+02  0.77419662841E+02  0.10632646538E+03  0.13299653640E+03  0.00000000000E+00 0.  1.
</event>
<event>
 7    1  0.6358809E-006  0.6278910E+02  0.7818608E-02  0.1436289E+00
          2   -1    0    0  502    0  0.00000000000E+00  0.00000000000E+00  0.93169001844E+03  0.93169001844E+03  0.00000000000E+00 0. -1.
          1   -1    0    0  501    0 -0.00000000000E+00 -0.00000000000E+00 -0.24382994875E+03  0.24382994875E+03  0.00000000000E+00 0. -1.
         25    2    1    2    0    0 -0.18974499505E+02  0.10032068155E+02  0.72232412391E+03  0.73337428347E+03  0.12500010264E+03 0.  0.
          2    1    1    2  501    0  0.61336625933E+02 -0.14520726554E+02 -0.23182417759E+03  0.24024046806E+03  0.00000000000E+00 0. -1.
          1    1    1    2  502    0 -0.42362126427E+02  0.44886583993E+01  0.19736012337E+03  0.20190521565E+03  0.00000000000E+00 0. -1.
         22    1    3    3    0    0 -0.28538451583E+02  0.62328458291E+02  0.50553168377E+03  0.51015837073E+03  0.00000000000E+00 0. -1.
         22    1    3    3    0    0  0.95639520780E+01 -0.52296390137E+02  0.21679244014E+03  0.22321591274E+03  0.00000000000E+00 0. -1.
</event>
<event>
 7    1  0.6358809E-006  0.2400303E+03  0.7818608E-02  0.1282569E+00
          2   -1    0    0  502    0  0.00000000000E+00  0.00000000000E+00  0.12460194143E+04  0.12460194143E+04  0.00000000000E+00 0. -1.
          1   -1    0    0  501    0 -0.00000000000E+00 -0.00000000000E+00 -0.23203860632E+04  0.23203860632E+04  0.00000000000E+00 0. -1.
         25    2    1    2    0    0 -0.51764946454E+02  0.24565399581E+03 -0.70630279874E+03  0.75994323372E+03  0.12499831849E+03 0.  0.
          2    1    1    2  501    0  0.11955261492E+02 -0.23684792067E+03 -0.15780597703E+04  0.15957795915E+04  0.00000000000E+00 0. -1.
          1    1    1    2  502    0  0.39809684961E+02 -0.88060751423E+01  0.12099959201E+04  0.12106826524E+04  0.00000000000E+00 0. -1.
         22    1    3    3    0    0 -0.56970143252E+02  0.50048892597E+02 -0.12100423542E+03  0.14280235944E+03  0.00000000000E+00 0.  1.
         22    1    3    3    0    0  0.52051967982E+01  0.19560510321E+03 -0.58529856333E+03  0.61714087428E+03  0.00000000000E+00 0.  1.
</event>
<event>
 7    1  0.6358809E-006  0.7388470E+02  0.7818608E-02  0.1403830E+00
          2   -1    0    0  502    0  0.00000000000E+00  0.00000000000E+00  0.39882179617E+03  0.39882179617E+03  0.00000000000E+00 0. -1.
          1   -1    0    0  501    0 -0.00000000000E+00 -0.00000000000E+00 -0.67792386242E+03  0.67792386242E+03  0.00000000000E+00 0. -1.
         25    2    1    2    0    0  0.69443542028E+02 -0.73663117937E+02  0.24834862773E+03  0.29589032375E+03  0.12500152927E+03 0.  0.
          2    1    1    2  501    0 -0.44639031529E+02  0.12905793678E+02 -0.64476273472E+03  0.64643498260E+03  0.00000000000E+00 0. -1.
          1    1    1    2  502    0 -0.24804510499E+02  0.60757324259E+02  0.11731204074E+03  0.13442035224E+03  0.00000000000E+00 0. -1.
         22    1    3    3    0    0 -0.19562692229E+02  0.13330496612E+02  0.97467797409E+02  0.10030140876E+03  0.00000000000E+00 0. -1.
         22    1    3    3    0    0  0.89006234257E+02 -0.86993614549E+02  0.15088083032E+03  0.19558891499E+03  0.00000000000E+00 0. -1.
</event>
<event>
 7    1  0.6358809E-006  0.2144015E+03  0.7818608E-02  0.1162536E+00
          2   -1    0    0  502    0  0.00000000000E+00  0.00000000000E+00  0.14182563503E+04  0.14182563503E+04  0.00000000000E+00 0. -1.
          1   -1    0    0  501    0 -0.00000000000E+00 -0.00000000000E+00 -0.11739437286E+04  0.11739437286E+04  0.00000000000E+00 0. -1.
         25    2    1    2    0    0  0.53587145874E+01  0.70715829752E+02  0.28741810428E+03  0.32134717427E+03  0.12500158138E+03 0.  0.
          2    1    1    2  501    0  0.88532083811E+02 -0.20098985865E+03 -0.11406611215E+04  0.11616120898E+04  0.00000000000E+00 0. -1.
          1    1    1    2  502    0 -0.93890798399E+02  0.13027402890E+03  0.10975556389E+04  0.11092408148E+04  0.00000000000E+00 0. -1.
         22    1    3    3    0    0 -0.32444486591E+02  0.90761361459E+02  0.15842192345E+03  0.18543941133E+03  0.00000000000E+00 0.  1.
         22    1    3    3    0    0  0.37803201178E+02 -0.20045531707E+02  0.12899618082E+03  0.13590776294E+03  0.00000000000E+00 0.  1.
</event>
<event>
 7    1  0.6358809E-006  0.1538346E+03  0.7818608E-02  0.1224814E+00
          2   -1    0    0  502    0  0.00000000000E+00  0.00000000000E+00  0.51054866388E+03  0.51054866388E+03  0.00000000000E+00 0. -1.
          1   -1    0    0  501    0 -0.00000000000E+00 -0.00000000000E+00 -0.22249966773E+04  0.22249966773E+04  0.00000000000E+00 0. -1.
         25    2    1    2    0    0 -0.40883666996E+02  0.49814274766E+02 -0.65446543672E+02  0.15512214795E+03  0.12500677785E+03 0.  0.
          2    1    1    2  501    0  0.15722148362E+02 -0.15989083059E+03 -0.21047612075E+04  0.21108841760E+04  0.00000000000E+00 0. -1.
          1    1    1    2  502    0  0.25161518634E+02  0.11007655583E+03  0.45575973777E+03  0.46953901727E+03  0.00000000000E+00 0. -1.
         22    1    3    3    0    0 -0.76824113845E+02  0.20172990891E+02 -0.73057304671E+02  0.10791785670E+03  0.00000000000E+00 0.  1.
         22    1    3    3    0    0  0.35940446848E+02  0.29641283875E+02  0.76107609993E+01  0.47204291250E+02  0.00000000000E+00 0.  1.
</event>
<event>
 7    1  0.6358809E-006  0.8641539E+02  0.7818608E-02  0.1338554E+00
          2   -1    0    0  502    0  0.00000000000E+00  0.00000000000E+00  0.61577139236E+03  0.61577139236E+03  0.00000000000E+00 0. -1.
          1   -1    0    0  501    0 -0.00000000000E+00 -0.00000000000E+00 -0.33509616194E+04  0.33509616194E+04  0.00000000000E+00 0. -1.
         25    2    1    2    0    0 -0.12558796376E+03 -0.16953896646E+02 -0.12336720153E+03  0.21657342985E+03  0.12499925139E+03 0.  0.
          2    1    1    2  501    0  0.46250063055E+02  0.50060095891E+02 -0.31773775852E+04  0.31781084627E+04  0.00000000000E+00 0. -1.
          1    1    1    2  502    0  0.79337900703E+02 -0.33106199245E+02  0.56555455975E+03  0.57205111919E+03  0.00000000000E+00 0. -1.
         22    1    3    3    0    0 -0.79389801909E+02 -0.57914499808E+02 -0.26632125618E+02  0.10181404643E+03  0.00000000000E+00 0.  1.
         22    1    3    3    0    0 -0.46198161849E+02  0.40960603162E+02 -0.96735075916E+02  0.11475938342E+03  0.00000000000E+00 0.  1.
</event>
<event>
 7    1  0.6358809E-006  0.8496583E+02  0.7818608E-02  0.1316433E+00
          2   -1    0    0  502    0  0.00000000000E+00  0.00000000000E+00  0.16929895838E+04  0.16929895838E+04  0.00000000000E+00 0. -1.
          1   -1    0    0  501    0 -0.00000000000E+00 -0.00000000000E+00 -0.27114722927E+03  0.27114722927E+03  0.00000000000E+00 0. -1.
         25    2    1    2    0    0  0.27326684890E+02  0.79908539356E+02  0.10517707191E+04  0.10625297734E+04  0.12496300061E+03 0.  0.
          2    1    1    2  501    0  0.68925331015E+02 -0.49683911367E+02 -0.25482617873E+03  0.26861789529E+03  0.00000000000E+00 0. -1.
          1    1    1    2  502    0 -0.96252015905E+02 -0.30224627988E+02  0.62489781420E+03  0.63298914437E+03  0.00000000000E+00 0. -1.
         22    1    3    3    0    0  0.63963866345E+02  0.27085669602E+02  0.78729934725E+03  0.79035768604E+03  0.00000000000E+00 0.  1.
         22    1    3    3    0    0 -0.36637181455E+02  0.52822869754E+02  0.26447137185E+03  0.27217208740E+03  0.00000000000E+00 0.  1.
</event>
<event>
 7    1  0.6358809E-006  0.1008938E+03  0.7818608E-02  0.1387642E+00
          2   -1    0    0  502    0  0.00000000000E+00  0.00000000000E+00  0.20181983131E+04  0.20181983131E+04  0.00000000000E+00 0. -1.
          1   -1    0    0  501    0 -0.00000000000E+00 -0.00000000000E+00 -0.17177272382E+03  0.17177272382E+03  0.00000000000E+00 0. -1.
         25    2    1    2    0    0  0.26909020507E+02  0.12494233520E+03  0.76450379388E+01  0.17893748960E+03  0.12500198426E+03 0.  0.
          2    1    1    2  501    0  0.17285030552E+02 -0.34639675358E+02 -0.80393010977E+02  0.89228446160E+02  0.00000000000E+00 0. -1.
          1    1    1    2  502    0 -0.44194051059E+02 -0.90302659843E+02  0.19191735623E+04  0.19218051011E+04  0.00000000000E+00 0. -1.
         22    1    3    3    0    0  0.11895283886E+02  0.12145403166E+03  0.51496828705E+02  0.13245566410E+03  0.00000000000E+00 0.  1.
         22    1    3    3    0    0  0.15013736621E+02  0.34883035441E+01 -0.43851790766E+02  0.46481825505E+02  0.00000000000E+00 0.  1.
</event>
<event>
 7    1  0.6358809E-006  0.6983513E+02  0.7818608E-02  0.1383467E+00
          2   -1    0    0  502    0  0.00000000000E+00  0.00000000000E+00  0.41614718500E+03  0.41614718500E+03  0.00000000000E+00 0. -1.
          1   -1    0    0  501    0 -0.00000000000E+00 -0.00000000000E+00 -0.10313957650E+04  0.10313957650E+04  0.00000000000E+00 0. -1.
         25    2    1    2    0    0 -0.40187190518E+02  0.35572424172E+02  0.57134156015E+02  0.14754328700E+03  0.12499720841E+03 0.  0.
          2    1    1    2  501    0 -0.62916589064E+01 -0.70017508452E+02 -0.98225803036E+03  0.98477046801E+03  0.00000000000E+00 0. -1.
          1    1    1    2  502    0  0.46478849425E+02  0.34445084281E+02  0.30987529439E+03  0.31522919495E+03  0.00000000000E+00 0. -1.
         22    1    3    3    0    0  0.38061899013E+02  0.41215945839E+02  0.34620260910E+02  0.65924387091E+02  0.00000000000E+00 0. -1.
         22    1    3    3    0    0 -0.78249089531E+02 -0.56435216675E+01  0.22513895105E+02  0.81618899907E+02  0.00000000000E+00 0. -1.
</event>
<event>
 7    1  0.6358809E-006  0.6985596E+02  0.7818608E-02  0.1427057E+00
          2   -1    0    0  502    0  0.00000000000E+00  0.00000000000E+00  0.57706501491E+03  0.57706501491E+03  0.00000000000E+00 0. -1.
          1   -1    0    0  501    0 -0.00000000000E+00 -0.00000000000E+00 -0.12456046270E+03  0.12456046270E+03  0.00000000000E+00 0. -1.
         25    2    1    2    0    0  0.49103957811E+02 -0.16827421150E+02 -0.28079225861E+02  0.13822991249E+03  0.12499882002E+03 0.  0.
          2    1    1    2  501    0 -0.86484731174E+02 -0.15711913948E+00  0.56273549784E+01  0.86667759500E+02  0.00000000000E+00 0. -1.
          1    1    1    2  502    0  0.37380773363E+02  0.16984540289E+02  0.47495642309E+03  0.47672780563E+03  0.00000000000E+00 0. -1.
         22    1    3    3    0    0  0.79876098685E+02  0.16910899622E+02  0.50676418383E+01  0.81803732562E+02  0.00000000000E+00 0.  1.
         22    1    3    3    0    0 -0.30772140874E+02 -0.33738320772E+02 -0.33146867700E+02  0.56426179924E+02  0.00000000000E+00 0.  1.
</event>
<event>
 7    1  0.6358809E-006  0.8511538E+02  0.7818608E-02  0.1420665E+00
          2   -1    0    0  502    0  0.00000000000E+00  0.00000000000E+00  0.21647585532E+03  0.21647585532E+03  0.00000000000E+00 0. -1.
          1   -1    0    0  501    0 -0.00000000000E+00 -0.00000000000E+00 -0.12773959846E+04  0.12773959846E+04  0.00000000000E+00 0. -1.
         25    2    1    2    0    0 -0.98295054319E+02  0.58713433220E+02 -0.30385905556E+03  0.34794280210E+03  0.12499873178E+03 0.  0.
          2    1    1    2  501    0  0.77025268095E+02 -0.30433650133E+02 -0.94806470040E+03  0.95167524667E+03  0.00000000000E+00 0. -1.
          1    1    1    2  502    0  0.21269786224E+02 -0.28279783087E+02  0.19100362672E+03  0.19425379110E+03  0.00000000000E+00 0. -1.
         22    1    3    3    0    0 -0.10670538167E+03  0.60020286258E+01 -0.14344729936E+03  0.17888317562E+03  0.00000000000E+00 0. -1.
         22    1    3    3    0    0  0.84103273562E+01  0.52711404595E+02 -0.16041175620E+03  0.16905962648E+03  0.00000000000E+00 0. -1.
</event>
<event>
 7    1  0.6358809E-006  0.9304952E+02  0.7818608E-02  0.1387915E+00
          2   -1    0    0  502    0  0.00000000000E+00  0.00000000000E+00  0.14970500509E+04  0.14970500509E+04  0.00000000000E+00 0. -1.
          1   -1    0    0  501    0 -0.00000000000E+00 -0.00000000000E+00 -0.89813333568E+03  0.89813333568E+03  0.00000000000E+00 0. -1.
         25    2    1    2    0    0  0.33821989052E+02 -0.72418556324E+02  0.28024192562E+03  0.31709376561E+03  0.12499818026E+03 0.  0.
          2    1    1    2  501    0 -0.73096164150E+02  0.57864832340E+02 -0.87686969724E+03  0.88181168850E+03  0.00000000000E+00 0. -1.
          1    1    1    2  502    0  0.39274175098E+02  0.14553723984E+02  0.11955444868E+04  0.11962779325E+04  0.00000000000E+00 0. -1.
         22    1    3    3    0    0  0.40496780392E+02  0.24492656649E+02  0.12832653710E+03  0.13677565418E+03  0.00000000000E+00 0.  1.
         22    1    3    3    0    0 -0.66747913407E+01 -0.96911212973E+02  0.15191538852E+03  0.18031811142E+03  0.00000000000E+00 0.  1.
</event>
<event>
 7    1  0.6358809E-006  0.3600623E+02  0.7818608E-02  0.1609107E+00
          2   -1    0    0  502    0  0.00000000000E+00  0.00000000000E+00  0.38371305583E+03  0.38371305583E+03  0.00000000000E+00 0. -1.
          1   -1    0    0  501    0 -0.00000000000E+00 -0.00000000000E+00 -0.51233059773E+03  0.51233059773E+03  0.00000000000E+00 0. -1.
         25    2    1    2    0    0 -0.41844588669E+02  0.30876111271E+02  0.12567699809E+03  0.18472120982E+03  0.12499165436E+03 0.  0.
          2    1    1    2  501    0  0.23391023364E+02 -0.63192400085E+00 -0.48114918400E+03  0.48171783916E+03  0.00000000000E+00 0. -1.
          1    1    1    2  502    0  0.18453565305E+02 -0.30244187271E+02  0.22685464401E+03  0.22960460458E+03  0.00000000000E+00 0. -1.
         22    1    3    3    0    0 -0.57273507179E+02  0.38166097875E+02  0.12113839699E+02  0.69883122167E+02  0.00000000000E+00 0. -1.
         22    1    3    3    0    0  0.15428918510E+02 -0.72899866037E+01  0.11356315839E+03  0.11483808765E+03  0.00000000000E+00 0. -1.
</event>
<event>
 7    1  0.6358809E-006  0.1313636E+03  0.7818608E-02  0.1326843E+00
          2   -1    0    0  502    0  0.00000000000E+00  0.00000000000E+00  0.80451029561E+03  0.80451029561E+03  0.00000000000E+00 0. -1.
          1   -1    0    0  501    0 -0.00000000000E+00 -0.00000000000E+00 -0.10069994241E+04  0.10069994241E+04  0.00000000000E+00 0. -1.
         25    2    1    2    0    0 -0.52518703133E+02 -0.16910969048E+03 -0.32043233328E+02  0.21910775853E+03  0.12500055781E+03 0.  0.
          2    1    1    2  501    0  0.48591372910E+02  0.11958654684E+03 -0.87581972628E+03  0.88528089138E+03  0.00000000000E+00 0. -1.
          1    1    1    2  502    0  0.39273302235E+01  0.49523143639E+02  0.70537383113E+03  0.70712106978E+03  0.00000000000E+00 0. -1.
         22    1    3    3    0    0 -0.62261736850E+02 -0.39684492551E+02 -0.48409558395E+02  0.88288550609E+02  0.00000000000E+00 0.  1.
         22    1    3    3    0    0  0.97430337168E+01 -0.12942519793E+03  0.16366325066E+02  0.13081920792E+03  0.00000000000E+00 0.  1.
</event>
<event>
 7    1  0.6358809E-006  0.1788440E+03  0.7818608E-02  0.1255505E+00
          2   -1    0    0  502    0  0.00000000000E+00  0.00000000000E+00  0.10966815573E+04  0.10966815573E+04  0.00000000000E+00 0. -1.
          1   -1    0    0  501    0 -0.00000000000E+00 -0.00000000000E+00 -0.21362698681E+03  0.21362698681E+03  0.00000000000E+00 0. -1.
         25    2    1    2    0    0 -0.13019384553E+03 -0.11269570169E+03  0.47437042363E+02  0.21800420416E+03  0.12499920580E+03 0.  0.
          2    1    1    2  501    0  0.84116205107E+02  0.16687114243E+03 -0.58150193559E+02  0.19571141803E+03  0.00000000000E+00 0. -1.
          1    1    1    2  502    0  0.46077640420E+02 -0.54175440740E+02  0.89376772172E+03  0.89659292197E+03  0.00000000000E+00 0. -1.
         22    1    3    3    0    0  0.11713523750E+02 -0.60059343310E+02  0.90424629031E+01  0.61855456452E+02  0.00000000000E+00 0. -1.
         22    1    3    3    0    0 -0.14190736928E+03 -0.52636358377E+02  0.38394579460E+02  0.15614874771E+03  0.00000000000E+00 0. -1.
</event>
<event>
 7    1  0.6358809E-006  0.5853643E+02  0.7818608E-02  0.1442540E+00
          2   -1    0    0  502    0  0.00000000000E+00  0.00000000000E+00  0.37712676715E+02  0.37712676715E+02  0.00000000000E+00 0. -1.
          1   -1    0    0  501    0 -0.00000000000E+00 -0.00000000000E+00 -0.23323061796E+04  0.23323061796E+04  0.00000000000E+00 0. -1.
         25    2    1    2    0    0 -0.26409143147E+02  0.73573192106E+01 -0.12474342688E+03  0.17871051515E+03  0.12499981075E+03 0.  0.
          2    1    1    2  501    0 -0.11729683040E+02 -0.57349179930E+02 -0.20843729702E+04  0.20851947614E+04  0.00000000000E+00 0. -1.
          1    1    1    2  502    0  0.38138826188E+02  0.49991860720E+02 -0.85477105780E+02  0.10611357978E+03  0.00000000000E+00 0. -1.
         22    1    3    3    0    0  0.12635964415E+02  0.38501988816E+02 -0.12215225323E+03  0.12869826614E+03  0.00000000000E+00 0. -1.
         22    1    3    3    0    0 -0.39045107563E+02 -0.31144669605E+02 -0.25911736468E+01  0.50012249002E+02  0.00000000000E+00 0. -1.
</event>
<event>
 7    1  0.6358809E-006  0.4036840E+02  0.7818608E-02  0.1541562E+00
          2   -1    0    0  502    0  0.00000000000E+00  0.00000000000E+00  0.46092363245E+03  0.46092363245E+03  0.00000000000E+00 0. -1.
          1   -1    0    0  501    0 -0.00000000000E+00 -0.00000000000E+00 -0.52146086942E+03  0.52146086942E+03  0.00000000000E+00 0. -1.
         25    2    1    2    0    0 -0.70184028994E+02  0.84190324982E+01 -0.91936693494E+02  0.17050906051E+03  0.12499722425E+03 0.  0.
          2    1    1    2  501    0  0.38444678660E+02 -0.95158257270E+01 -0.38863213245E+03  0.39064495213E+03  0.00000000000E+00 0. -1.
          1    1    1    2  502    0  0.31739350334E+02  0.10967932288E+01  0.42003158897E+03  0.42123048922E+03  0.00000000000E+00 0. -1.
         22    1    3    3    0    0  0.27176250717E+01 -0.49291347309E+02 -0.21415269986E+02  0.53811115898E+02  0.00000000000E+00 0.  1.
         22    1    3    3    0    0 -0.72901654066E+02  0.57710379807E+02 -0.70521423508E+02  0.11669794461E+03  0.00000000000E+00 0.  1.
</event>
<event>
 7    1  0.6358809E-006  0.1020193E+03  0.7818608E-02  0.1398228E+00
          2   -1    0    0  502    0  0.00000000000E+00  0.00000000000E+00  0.16323639099E+04  0.16323639099E+04  0.00000000000E+00 0. -1.
          1   -1    0    0  501    0 -0.00000000000E+00 -0.00000000000E+00 -0.13337661878E+04  0.13337661878E+04  0.00000000000E+00 0. -1.
         25    2    1    2    0    0 -0.10654589975E+03  0.14220045858E+02  0.15209187297E+04  0.15298275569E+04  0.12499733171E+03 0.  0.
          2    1    1    2  501    0  0.29293761973E+02  0.19474724716E+02 -0.13124417084E+04  0.13129130312E+04  0.00000000000E+00 0. -1.
          1    1    1    2  502    0  0.77252137781E+02 -0.33694770574E+02  0.90120700932E+02  0.12338950965E+03  0.00000000000E+00 0. -1.
         22    1    3    3    0    0 -0.12412621184E+03 -0.67394203955E+01  0.92938070980E+03  0.93765731480E+03  0.00000000000E+00 0.  1.
         22    1    3    3    0    0  0.17580312088E+02  0.20959466254E+02  0.59153801988E+03  0.59217024205E+03  0.00000000000E+00 0.  1.
</event>
<event>
 7    1  0.6358809E-006  0.1335043E+03  0.7818608E-02  0.1281239E+00
          2   -1    0    0  502    0  0.00000000000E+00  0.00000000000E+00  0.14232348872E+04  0.14232348872E+04  0.00000000000E+00 0. -1.
          1   -1    0    0  501    0 -0.00000000000E+00 -0.00000000000E+00 -0.58210448898E+03  0.58210448898E+03  0.00000000000E+00 0. -1.
         25    2    1    2    0    0  0.71400442686E+02 -0.52350501795E+02  0.24717219612E+03  0.29078894575E+03  0.12500207271E+03 0.  0.
          2    1    1    2  501    0  0.70188841368E+02  0.24175977792E+02 -0.55329341349E+03  0.55825133477E+03  0.00000000000E+00 0. -1.
          1    1    1    2  502    0 -0.14158928405E+03  0.28174524003E+02  0.11472516156E+04  0.11562990956E+04  0.00000000000E+00 0. -1.
         22    1    3    3    0    0 -0.18184331794E+02 -0.11768534192E+01 -0.45179079035E+01  0.18774088489E+02  0.00000000000E+00 0. -1.
         22    1    3    3    0    0  0.89584774480E+02 -0.51173648376E+02  0.25169010403E+03  0.27201485726E+03  0.00000000000E+00 0. -1.
</event>
<event>
 7    1  0.6358809E-006  0.1107500E+03  0.7818608E-02  0.1318809E+00
          2   -1    0    0  502    0  0.00000000000E+00  0.00000000000E+00  0.14980645008E+04  0.14980645008E+04  0.00000000000E+00 0. -1.
          1   -1    0    0  501    0 -0.00000000000E+00 -0.00000000000E+00 -0.78387692570E+03  0.78387692570E+03  0.00000000000E+00 0. -1.
         25    2    1    2    0    0 -0.14092499263E+03  0.18825164050E+02  0.45344816328E+03  0.49138005287E+03  0.12499951688E+03 0.  0.
          2    1    1    2  501    0  0.10538763417E+03  0.33545810393E+02 -0.75992785432E+03  0.76793373321E+03  0.00000000000E+00 0. -1.
          1    1    1    2  502    0  0.35537358462E+02 -0.52370974442E+02  0.10206672662E+04  0.10226276405E+04  0.00000000000E+00 0. -1.
         22    1    3    3    0    0 -0.12213684622E+03  0.26379523671E+02  0.19156253634E+03  0.22871268833E+03  0.00000000000E+00 0.  1.
         22    1    3    3    0    0 -0.18788146415E+02 -0.75543596211E+01  0.26188562694E+03  0.26266736454E+03  0.00000000000E+00 0.  1.
</event>
<event>
 7    1  0.6358809E-006  0.7027060E+02  0.7818608E-02  0.1428284E+00
          2   -1    0    0  502    0  0.00000000000E+00  0.00000000000E+00  0.73741982654E+02  0.73741982654E+02  0.00000000000E+00 0. -1.
          1   -1    0    0  501    0 -0.00000000000E+00 -0.00000000000E+00 -0.13603023802E+04  0.13603023802E+04  0.00000000000E+00 0. -1.
         25    2    1    2    0    0  0.25750996779E+02 -0.87252277724E+02 -0.19769411165E+03  0.25096550513E+03  0.12499859672E+03 0.  0.
          2    1    1    2  501    0  0.19456318060E+02  0.35448526013E+02 -0.11103183214E+04  0.11110544186E+04  0.00000000000E+00 0. -1.
          1    1    1    2  502    0 -0.45207314839E+02  0.51803751712E+02  0.21452035472E+02  0.72024439132E+02  0.00000000000E+00 0. -1.
         22    1    3    3    0    0  0.18248045431E+02  0.30976330007E+02 -0.41024892316E+02  0.54548748586E+02  0.00000000000E+00 0. -1.
         22    1    3    3    0    0  0.75029513485E+01 -0.11822860773E+03 -0.15666921934E+03  0.19641675655E+03  0.00000000000E+00 0. -1.
</event>
<event>
 7    1  0.6358809E-006  0.1174789E+03  0.7818608E-02  0.1311789E+00
          2   -1    0    0  502    0  0.00000000000E+00  0.00000000000E+00  0.30345938823E+03  0.30345938823E+03  0.00000000000E+00 0. -1.
          1   -1    0    0  501    0 -0.00000000000E+00 -0.00000000000E+00 -0.12185894731E+04  0.12185894731E+04  0.00000000000E+00 0. -1.
         25    2    1    2    0    0 -0.10914407956E+03  0.33961464172E+02 -0.38567357256E+03  0.42122606046E+03  0.12498591235E+03 0.  0.
          2    1    1    2  501    0  0.80933061861E+02 -0.90913015513E+02 -0.80698354548E+03  0.81611137694E+03  0.00000000000E+00 0. -1.
          1    1    1    2  502    0  0.28211017701E+02  0.56951551341E+02  0.27752703322E+03  0.28471142388E+03  0.00000000000E+00 0. -1.
         22    1    3    3    0    0 -0.79391562061E+02 -0.39979780243E+02 -0.18307976956E+03  0.20351807039E+03  0.00000000000E+00 0. -1.
         22    1    3    3    0    0 -0.29752517501E+02  0.73941244415E+02 -0.20259380301E+03  0.21770799007E+03  0.00000000000E+00 0. -1.
</event>
<event>
 7    1  0.6358809E-006  0.9279641E+02  0.7818608E-02  0.1308050E+00
          2   -1    0    0  502    0  0.00000000000E+00  0.00000000000E+00  0.78938153317E+03  0.78938153317E+03  0.00000000000E+00 0. -1.
          1   -1    0    0  501    0 -0.00000000000E+00 -0.00000000000E+00 -0.12885533056E+03  0.12885533056E+03  0.00000000000E+00 0. -1.
         25    2    1    2    0    0 -0.23185021482E+02  0.56286805021E+01  0.41560837332E+02  0.13387093487E+03  0.12499958696E+03 0.  0.
          2    1    1    2  501    0  0.10398536349E+03  0.40005506777E+02 -0.40391537065E+02  0.11851106555E+03  0.00000000000E+00 0. -1.
          1    1    1    2  502    0 -0.80800342006E+02 -0.45634187279E+02  0.65935690234E+03  0.66585486330E+03  0.00000000000E+00 0. -1.
         22    1    3    3    0    0 -0.36699292106E+02  0.56514228500E+02  0.97123262054E+00  0.67391686111E+02  0.00000000000E+00 0.  1.
         22    1    3    3    0    0  0.13514270624E+02 -0.50885547998E+02  0.40589604711E+02  0.66479248764E+02  0.00000000000E+00 0.  1.
</event>
<event>
 7    1  0.6358809E-006  0.6447358E+02  0.7818608E-02  0.1499132E+00
          2   -1    0    0  502    0  0.00000000000E+00  0.00000000000E+00  0.26421104791E+03  0.26421104791E+03  0.00000000000E+00 0. -1.
          1   -1    0    0  501    0 -0.00000000000E+00 -0.00000000000E+00 -0.52515320053E+03  0.52515320053E+03  0.00000000000E+00 0. -1.
         25    2    1    2    0    0  0.36527670415E+02 -0.47914460983E+02 -0.13193240259E+02  0.13938653894E+03  0.12499791747E+03 0.  0.
          2    1    1    2  501    0 -0.14911190010E+02  0.63079743527E+02 -0.44564174277E+03  0.45033094556E+03  0.00000000000E+00 0. -1.
          1    1    1    2  502    0 -0.21616480405E+02 -0.15165282544E+02  0.19789283042E+03  0.19964676393E+03  0.00000000000E+00 0. -1.
         22    1    3    3    0    0  0.58320890390E+02  0.17574669356E+02 -0.30657154510E+02  0.68191321893E+02  0.00000000000E+00 0. -1.
         22    1    3    3    0    0 -0.21793219975E+02 -0.65489130339E+02  0.17463914252E+02  0.71195217048E+02  0.00000000000E+00 0. -1.
</event>
<event>
 7    1  0.6358809E-006  0.8399663E+02  0.7818608E-02  0.1383642E+00
          2   -1    0    0  502    0  0.00000000000E+00  0.00000000000E+00  0.10012193126E+04  0.10012193126E+04  0.00000000000E+00 0. -1.
          1   -1    0    0  501    0 -0.00000000000E+00 -0.00000000000E+00 -0.13762431618E+03  0.13762431618E+03  0.00000000000E+00 0. -1.
         25    2    1    2    0    0 -0.46917581613E+02 -0.27378316258E+02  0.95770015415E+02  0.16657778814E+03  0.12500172792E+03 0.  0.
          2    1    1    2  501    0 -0.39320064891E+02  0.27581364876E+02 -0.94306222877E+02  0.10583223925E+03  0.00000000000E+00 0. -1.
          1    1    1    2  502    0  0.86237646504E+02 -0.20304861824E+00  0.86213120391E+03  0.86643360142E+03  0.00000000000E+00 0. -1.
         22    1    3    3    0    0  0.44794445865E+01 -0.45120374346E+02  0.10221845140E+03  0.11182363530E+03  0.00000000000E+00 0.  1.
         22    1    3    3    0    0 -0.51397026200E+02  0.17742058088E+02 -0.64484359803E+01  0.54754152847E+02  0.00000000000E+00 0.  1.
</event>
<event>
 7    1  0.6358809E-006  0.8663267E+02  0.7818608E-02  0.1341252E+00
          2   -1    0    0  502    0  0.00000000000E+00  0.00000000000E+00  0.41975884436E+04  0.41975884436E+04  0.00000000000E+00 0. -1.
          1   -1    0    0  501    0 -0.00000000000E+00 -0.00000000000E+00 -0.13588260782E+02  0.13588260782E+02  0.00000000000E+00 0. -1.
         25    2    1    2    0    0  0.35976148645E+02  0.10809300078E+02  0.79107742686E+03  0.80177212623E+03  0.12499569140E+03 0.  0.
          2    1    1    2  501    0  0.22093301935E+02  0.62630882660E+02  0.13814032327E+03  0.15327586361E+03  0.00000000000E+00 0. -1.
          1    1    1    2  502    0 -0.58069450580E+02 -0.73440182738E+02  0.32547824327E+04  0.32561287145E+04  0.00000000000E+00 0. -1.
         22    1    3    3    0    0 -0.40406935997E+02  0.13387045739E+02  0.46105600258E+03  0.46301681501E+03  0.00000000000E+00 0.  1.
         22    1    3    3    0    0  0.76383084642E+02 -0.25777456603E+01  0.33002142428E+03  0.33875531122E+03  0.00000000000E+00 0.  1.
</event>
<event>
 7    1  0.6358809E-006  0.6394245E+02  0.7818608E-02  0.1410676E+00
          2   -1    0    0  502    0  0.00000000000E+00  0.00000000000E+00  0.15871725208E+04  0.15871725208E+04  0.00000000000E+00 0. -1.
          1   -1    0    0  501    0 -0.00000000000E+00 -0.00000000000E+00 -0.73956277388E+02  0.73956277388E+02  0.00000000000E+00 0. -1.
         25    2    1    2    0    0 -0.30374499598E+02 -0.33315248733E+02  0.32065489157E+02  0.13669514383E+03  0.12499940291E+03 0.  0.
          2    1    1    2  501    0  0.64095807338E+02 -0.21012552141E+02  0.33394709018E+02  0.75266237160E+02  0.00000000000E+00 0. -1.
          1    1    1    2  502    0 -0.33721307740E+02  0.54327800874E+02  0.14477560452E+04  0.14491674172E+04  0.00000000000E+00 0. -1.
         22    1    3    3    0    0 -0.25698026107E+02  0.23802043163E+02  0.62619561784E+02  0.71750507473E+02  0.00000000000E+00 0. -1.
         22    1    3    3    0    0 -0.46764734917E+01 -0.57117291896E+02 -0.30554072627E+02  0.64944636360E+02  0.00000000000E+00 0. -1.
</event>
<event>
 7    1  0.6358809E-006  0.1035114E+03  0.7818608E-02  0.1353823E+00
          2   -1    0    0  502    0  0.00000000000E+00  0.00000000000E+00  0.19154311519E+03  0.19154311519E+03  0.00000000000E+00 0. -1.
          1   -1    0    0  501    0 -0.00000000000E+00 -0.00000000000E+00 -0.59240565702E+03  0.59240565702E+03  0.00000000000E+00 0. -1.
         25    2    1    2    0    0  0.73689209690E+02 -0.10336023835E+03 -0.16241333515E+02  0.17888082600E+03  0.12498452104E+03 0.  0.
          2    1    1    2  501    0 -0.86458309477E+02  0.55110440046E+02 -0.48352942256E+03  0.49428018609E+03  0.00000000000E+00 0. -1.
          1    1    1    2  502    0  0.12769099787E+02  0.48249798304E+02  0.98908214252E+02  0.11078776012E+03  0.00000000000E+00 0. -1.
         22    1    3    3    0    0  0.71156848781E+02 -0.81926152305E+02  0.42316056321E+02  0.11647248680E+03  0.00000000000E+00 0. -1.
         22    1    3    3    0    0  0.25323609096E+01 -0.21434086045E+02 -0.58557389836E+02  0.62408339192E+02  0.00000000000E+00 0. -1.
</event>
<event>
 7    1  0.6358809E-006  0.1322180E+03  0.7818608E-02  0.1413183E+00
          2   -1    0    0  502    0  0.00000000000E+00  0.00000000000E+00  0.82276654841E+03  0.82276654841E+03  0.00000000000E+00 0. -1.
          1   -1    0    0  501    0 -0.00000000000E+00 -0.00000000000E+00 -0.37508845125E+03  0.37508845125E+03  0.00000000000E+00 0. -1.
         25    2    1    2    0    0  0.13816479877E+03  0.70680386275E+02  0.35626636667E+03  0.40821067248E+03  0.12500000195E+03 0.  0.
          2    1    1    2  501    0 -0.11886268863E+03 -0.56191472822E+02 -0.33638582281E+03  0.36116650198E+03  0.00000000000E+00 0. -1.
          1    1    1    2  502    0 -0.19302110141E+02 -0.14488913453E+02  0.42779755330E+03  0.42847782519E+03  0.00000000000E+00 0. -1.
         22    1    3    3    0    0  0.47540386976E+02 -0.27254821536E+02  0.17330364963E+03  0.18176102075E+03  0.00000000000E+00 0. -1.
         22    1    3    3    0    0  0.90624411793E+02  0.97935207811E+02  0.18296271704E+03  0.22644965173E+03  0.00000000000E+00 0. -1.
</event>
<event>
 7    1  0.6358809E-006  0.5767103E+02  0.7818608E-02  0.1452789E+00
          2   -1    0    0  502    0  0.00000000000E+00  0.00000000000E+00  0.19189081771E+04  0.19189081771E+04  0.00000000000E+00 0. -1.
          1   -1    0    0  501    0 -0.00000000000E+00 -0.00000000000E+00 -0.21657607535E+03  0.21657607535E+03  0.00000000000E+00 0. -1.
         25    2    1    2    0    0 -0.32711974888E+02  0.81809587655E+02 -0.48077105158E+02  0.16031242428E+03  0.12500313359E+03 0.  0.
          2    1    1    2  501    0  0.36120077097E+02 -0.40919450593E+02 -0.10551402106E+03  0.11879507585E+03  0.00000000000E+00 0. -1.
          1    1    1    2  502    0 -0.34081022086E+01 -0.40890137062E+02  0.18559232279E+04  0.18563767523E+04  0.00000000000E+00 0. -1.
         22    1    3    3    0    0  0.75176881496E+01  0.95293797701E+02 -0.63952667850E+02  0.11501029189E+03  0.00000000000E+00 0.  1.
         22    1    3    3    0    0 -0.40229663037E+02 -0.13484210047E+02  0.15875562692E+02  0.45302132394E+02  0.00000000000E+00 0.  1.
</event>
<event>
 7    1  0.6358809E-006  0.7429308E+02  0.7818608E-02  0.1394015E+00
          2   -1    0    0  502    0  0.00000000000E+00  0.00000000000E+00  0.61789232338E+02  0.61789232338E+02  0.00000000000E+00 0. -1.
          1   -1    0    0  501    0 -0.00000000000E+00 -0.00000000000E+00 -0.15866535610E+04  0.15866535610E+04  0.00000000000E+00 0. -1.
         25    2    1    2    0    0 -0.31760927324E+02 -0.68069448453E+02 -0.72701381315E+03  0.74149572257E+03  0.12499846301E+03 0.  0.
          2    1    1    2  501    0 -0.17666333809E+02  0.75295008991E+02 -0.83879826293E+03  0.84235619760E+03  0.00000000000E+00 0. -1.
          1    1    1    2  502    0  0.49427261133E+02 -0.72255605385E+01  0.40947747471E+02  0.64590873126E+02  0.00000000000E+00 0. -1.
         22    1    3    3    0    0  0.33398367116E+02 -0.55423478985E+02 -0.52222875664E+03  0.52622246931E+03  0.00000000000E+00 0. -1.
         22    1    3    3    0    0 -0.65159294440E+02 -0.12645969468E+02 -0.20478505651E+03  0.21527325326E+03  0.00000000000E+00 0. -1.
</event>
<event>
 7    1  0.6358809E-006  0.7378846E+02  0.7818608E-02  0.1371390E+00
          2   -1    0    0  502    0  0.00000000000E+00  0.00000000000E+00  0.28132477935E+04  0.28132477935E+04  0.00000000000E+00 0. -1.
          1   -1    0    0  501    0 -0.00000000000E+00 -0.00000000000E+00 -0.92143285289E+01  0.92143285289E+01  0.00000000000E+00 0. -1.
         25    2    1    2    0    0  0.65357499388E+02 -0.31844716227E+02  0.88226585899E+03  0.89403712358E+03  0.12499457483E+03 0.  0.
          2    1    1    2  501    0 -0.28486427723E+02  0.79737024305E+02  0.69007370223E+03  0.69524900872E+03  0.00000000000E+00 0. -1.
          1    1    1    2  502    0 -0.36871071666E+02 -0.47892308078E+02  0.12316939038E+04  0.12331759897E+04  0.00000000000E+00 0. -1.
         22    1    3    3    0    0  0.60286276212E+02  0.39162458615E+02  0.50795487974E+03  0.51301685462E+03  0.00000000000E+00 0. -1.
         22    1    3    3    0    0  0.50712231764E+01 -0.71007174843E+02  0.37431097924E+03  0.38102026897E+03  0.00000000000E+00 0. -1.
</event>
<event>
 7    1  0.6358809E-006  0.8361106E+02  0.7818608E-02  0.1432937E+00
          2   -1    0    0  502    0  0.00000000000E+00  0.00000000000E+00  0.10880929094E+04  0.10880929094E+04  0.00000000000E+00 0. -1.
          1   -1    0    0  501    0 -0.00000000000E+00 -0.00000000000E+00 -0.14948027572E+04  0.14948027572E+04  0.00000000000E+00 0. -1.
         25    2    1    2    0    0 -0.63492171786E+02  0.40798646683E+02 -0.69001952407E+03  0.70529967998E+03  0.12499963809E+03 0.  0.
          2    1    1    2  501    0  0.50962904757E+02 -0.71120383331E+02 -0.79449192513E+03  0.79929515554E+03  0.00000000000E+00 0. -1.
          1    1    1    2  502    0  0.12529267029E+02  0.30321736648E+02  0.10778016014E+04  0.10783008311E+04  0.00000000000E+00 0. -1.
         22    1    3    3    0    0  0.18665808963E+02 -0.31214119703E+02 -0.15078846158E+03  0.15511251993E+03  0.00000000000E+00 0. -1.
         22    1    3    3    0    0 -0.82157980749E+02  0.72012766386E+02 -0.53923106249E+03  0.55018716004E+03  0.00000000000E+00 0. -1.
</event>
<event>
 7    1  0.6358809E-006  0.1843053E+03  0.7818608E-02  0.1320533E+00
          2   -1    0    0  502    0  0.00000000000E+00  0.00000000000E+00  0.21345026814E+04  0.21345026814E+04  0.00000000000E+00 0. -1.
          1   -1    0    0  501    0 -0.00000000000E+00 -0.00000000000E+00 -0.33917661122E+03  0.33917661122E+03  0.00000000000E+00 0. -1.
         25    2    1    2    0    0 -0.50309679236E+02 -0.16873012321E+03  0.57493949893E+03  0.61415209077E+03  0.12500577933E+03 0.  0.
          2    1    1    2  501    0  0.87304531148E+02  0.16291171501E+03 -0.29259403074E+03  0.34608319068E+03  0.00000000000E+00 0. -1.
          1    1    1    2  502    0 -0.36994851912E+02  0.58184082029E+01  0.15129806019E+04  0.15134440111E+04  0.00000000000E+00 0. -1.
         22    1    3    3    0    0 -0.14383533271E+02 -0.85626948064E+02  0.10828720608E+03  0.13879834028E+03  0.00000000000E+00 0. -1.
         22    1    3    3    0    0 -0.35926145965E+02 -0.83103175150E+02  0.46665229285E+03  0.47535375049E+03  0.00000000000E+00 0. -1.
</event>
<event>
 7    1  0.6358809E-006  0.3340826E+02  0.7818608E-02  0.1641804E+00
          2   -1    0    0  502    0  0.00000000000E+00  0.00000000000E+00  0.99786238230E+03  0.99786238230E+03  0.00000000000E+00 0. -1.
          1   -1    0    0  501    0 -0.00000000000E+00 -0.00000000000E+00 -0.18414375479E+03  0.18414375479E+03  0.00000000000E+00 0. -1.
         25    2    1    2    0    0 -0.88133191853E+01 -0.42121494871E+02  0.39389068651E+03  0.41548354487E+03  0.12499923288E+03 0.  0.
          2    1    1    2  501    0 -0.12511979242E+02  0.16673620340E+02 -0.17225382689E+03  0.17351063402E+03  0.00000000000E+00 0. -1.
          1    1    1    2  502    0  0.21325298427E+02  0.25447874531E+02  0.59208176790E+03  0.59301195819E+03  0.00000000000E+00 0. -1.
         22    1    3    3    0    0 -0.54114176485E+02  0.10546847211E+02  0.10781431059E+03  0.12109296284E+03  0.00000000000E+00 0.  1.
         22    1    3    3    0    0  0.45300857300E+02 -0.52668342082E+02  0.28607637592E+03  0.29439058203E+03  0.00000000000E+00 0.  1.
</event>
<event>
 7    1  0.6358809E-006  0.7121518E+02  0.7818608E-02  0.1453243E+00
          2   -1    0    0  502    0  0.00000000000E+00  0.00000000000E+00  0.21425563207E+04  0.21425563207E+04  0.00000000000E+00 0. -1.
          1   -1    0    0  501    0 -0.00000000000E+00 -0.00000000000E+00 -0.69905208519E+03  0.69905208519E+03  0.00000000000E+00 0. -1.
         25    2    1    2    0    0 -0.63093974576E+02 -0.77706840808E+02  0.34434981500E+03  0.37976423231E+03  0.12499949724E+03 0.  0.
          2    1    1    2  501    0  0.33607629049E+02  0.62628919747E+02 -0.67933666307E+03  0.68304476874E+03  0.00000000000E+00 0. -1.
          1    1    1    2  502    0  0.29486345527E+02  0.15077921061E+02  0.17784910836E+04  0.17787994048E+04  0.00000000000E+00 0. -1.
         22    1    3    3    0    0 -0.53994798277E+02 -0.82814542788E+02  0.35276681897E+03  0.36635790602E+03  0.00000000000E+00 0.  1.
         22    1    3    3    0    0 -0.90991762988E+01  0.51077019801E+01 -0.84170039638E+01  0.13406326289E+02  0.00000000000E+00 0.  1.
</event>
<event>
 7    1  0.6358809E-006  0.5467148E+02  0.7818608E-02  0.1455251E+00
          2   -1    0    0  502    0  0.00000000000E+00  0.00000000000E+00  0.74305930130E+03  0.74305930130E+03  0.00000000000E+00 0. -1.
          1   -1    0    0  501    0 -0.00000000000E+00 -0.00000000000E+00 -0.74545414927E+02  0.74545414927E+02  0.00000000000E+00 0. -1.
         25    2    1    2    0    0 -0.72899662416E+02 -0.51604580594E+02  0.39042252329E+03  0.41956278786E+03  0.12500317095E+03 0.  0.
          2    1    1    2  501    0  0.51697142195E+02  0.14760185201E+02 -0.46254614754E+02  0.70922119006E+02  0.00000000000E+00 0. -1.
          1    1    1    2  502    0  0.21202520221E+02  0.36844395393E+02  0.32434597783E+03  0.32711980935E+03  0.00000000000E+00 0. -1.
         22    1    3    3    0    0 -0.78858772252E+02 -0.56649564071E+02  0.14796066222E+03  0.17697524300E+03  0.00000000000E+00 0. -1.
         22    1    3    3    0    0  0.59591098359E+01  0.50449834767E+01  0.24246186107E+03  0.24258754486E+03  0.00000000000E+00 0. -1.
</event>
<event>
 7    1  0.6358809E-006  0.7815791E+02  0.7818608E-02  0.1336421E+00
          2   -1    0    0  502    0  0.00000000000E+00  0.00000000000E+00  0.13974727790E+04  0.13974727790E+04  0.00000000000E+00 0. -1.
          1   -1    0    0  501    0 -0.00000000000E+00 -0.00000000000E+00 -0.46814356673E+03  0.46814356673E+03  0.00000000000E+00 0. -1.
         25    2    1    2    0    0  0.53252686679E+01  0.12138579712E+03  0.11041704532E+03  0.20634842454E+03  0.12499951273E+03 0.  0.
          2    1    1    2  501    0 -0.50360349419E+02 -0.59216987168E+02 -0.41537978109E+03  0.42259103032E+03  0.00000000000E+00 0. -1.
          1    1    1    2  502    0  0.45035080751E+02 -0.62168809953E+02  0.12342919480E+04  0.12366768909E+04  0.00000000000E+00 0. -1.
         22    1    3    3    0    0 -0.31413839415E+02  0.10344502067E+03  0.12282003915E+03  0.16362293123E+03  0.00000000000E+00 0. -1.
         22    1    3    3    0    0  0.36739108083E+02  0.17940776450E+02 -0.12402993829E+02  0.42725493306E+02  0.00000000000E+00 0. -1.
</event>
<event>
 7    1  0.6358809E-006  0.8167121E+02  0.7818608E-02  0.1360793E+00
          2   -1    0    0  502    0  0.00000000000E+00  0.00000000000E+00  0.42478973587E+03  0.42478973587E+03  0.00000000000E+00 0. -1.
          1   -1    0    0  501    0 -0.00000000000E+00 -0.00000000000E+00 -0.25314927677E+03  0.25314927677E+03  0.00000000000E+00 0. -1.
         25    2    1    2    0    0 -0.51119135391E+02 -0.10961363716E+03 -0.40116499432E+01  0.17398017894E+03  0.12499877550E+03 0.  0.
          2    1    1    2  501    0  0.32722772269E+00  0.78344993487E+02 -0.15195678241E+03  0.17096464197E+03  0.00000000000E+00 0. -1.
          1    1    1    2  502    0  0.50791907668E+02  0.31268643669E+02  0.32760889146E+03  0.33299419173E+03  0.00000000000E+00 0. -1.
         22    1    3    3    0    0  0.41591869029E+02 -0.26328900287E+02 -0.35557143063E+01  0.49353193047E+02  0.00000000000E+00 0.  1.
         22    1    3    3    0    0 -0.92711004420E+02 -0.83284736869E+02 -0.45593563695E+00  0.12462698590E+03  0.00000000000E+00 0.  1.
</event>
<event>
 7    1  0.6358809E-006  0.1329485E+03  0.7818608E-02  0.1329321E+00
          2   -1    0    0  502    0  0.00000000000E+00  0.00000000000E+00  0.13030302835E+04  0.13030302835E+04  0.00000000000E+00 0. -1.
          1   -1    0    0  501    0 -0.00000000000E+00 -0.00000000000E+00 -0.17086104153E+03  0.17086104153E+03  0.00000000000E+00 0. -1.
         25    2    1    2    0    0  0.37990856967E+02 -0.93160945837E+02  0.42252266987E+03  0.45196549619E+03  0.12500054459E+03 0.  0.
          2    1    1    2  501    0 -0.84279159053E+02  0.10595868379E+03 -0.12597091962E+03  0.18492942413E+03  0.00000000000E+00 0. -1.
          1    1    1    2  502    0  0.46288302086E+02 -0.12797737950E+02  0.83561749174E+03  0.83699640472E+03  0.00000000000E+00 0. -1.
         22    1    3    3    0    0 -0.35469579669E+02 -0.35435355838E+02  0.63073948695E+02  0.80573435631E+02  0.00000000000E+00 0.  1.
         22    1    3    3    0    0  0.73460436637E+02 -0.57725589999E+02  0.35944872118E+03  0.37139206056E+03  0.00000000000E+00 0.  1.
</event>
<event>
 7    1  0.6358809E-006  0.2392157E+03  0.7818608E-02  0.1348478E+00
          2   -1    0    0  502    0  0.00000000000E+00  0.00000000000E+00  0.23140200522E+04  0.23140200522E+04  0.00000000000E+00 0. -1.
          1   -1    0    0  501    0 -0.00000000000E+00 -0.00000000000E+00 -0.14829534557E+04  0.14829534557E+04  0.00000000000E+00 0. -1.
         25    2    1    2    0    0  0.51768735907E+02  0.24981927021E+03 -0.23760152675E+03  0.37036367250E+03  0.12500037843E+03 0.  0.
          2    1    1    2  501    0 -0.18287838436E+02 -0.13283105093E+02 -0.11725138204E+04  0.11727316594E+04  0.00000000000E+00 0. -1.
          1    1    1    2  502    0 -0.33480897471E+02 -0.23653616512E+03  0.22411819436E+04  0.22538781760E+04  0.00000000000E+00 0. -1.
         22    1    3    3    0    0  0.67577091602E+01  0.15282645840E+03 -0.62617399123E+02  0.16529528636E+03  0.00000000000E+00 0.  1.
         22    1    3    3    0    0  0.45011026746E+02  0.96992811809E+02 -0.17498412762E+03  0.20506838613E+03  0.00000000000E+00 0.  1.
</event>
<event>
 7    1  0.6358809E-006  0.2394119E+03  0.7818608E-02  0.1299072E+00
          2   -1    0    0  502    0  0.00000000000E+00  0.00000000000E+00  0.41281575939E+03  0.41281575939E+03  0.00000000000E+00 0. -1.
          1   -1    0    0  501    0 -0.00000000000E+00 -0.00000000000E+00 -0.77535699661E+03  0.77535699661E+03  0.00000000000E+00 0. -1.
         25    2    1    2    0    0 -0.21312940228E+03 -0.36003279296E+02 -0.93846544339E+02  0.26674503145E+03  0.12500143872E+03 0.  0.
          2    1    1    2  501    0  0.23915992416E+03  0.59445898780E+02 -0.56848280890E+03  0.61959986138E+03  0.00000000000E+00 0. -1.
          1    1    1    2  502    0 -0.26030521876E+02 -0.23442619484E+02  0.29978811603E+03  0.30182786317E+03  0.00000000000E+00 0. -1.
         22    1    3    3    0    0 -0.62924604369E+02 -0.71447658103E+02 -0.31258850785E+02  0.10020673349E+03  0.00000000000E+00 0. -1.
         22    1    3    3    0    0 -0.15020479791E+03  0.35444378807E+02 -0.62587693554E+02  0.16653829797E+03  0.00000000000E+00 0. -1.
</event>
<event>
 7    1  0.6358809E-006  0.4961828E+02  0.7818608E-02  0.1460522E+00
          2   -1    0    0  502    0  0.00000000000E+00  0.00000000000E+00  0.29476498770E+03  0.29476498770E+03  0.00000000000E+00 0. -1.
          1   -1    0    0  501    0 -0.00000000000E+00 -0.00000000000E+00 -0.45288928586E+03  0.45288928586E+03  0.00000000000E+00 0. -1.
         25    2    1    2    0    0  0.97059281663E+00  0.21737726114E+02 -0.12355015980E+03  0.17709679522E+03  0.12500064840E+03 0.  0.
          2    1    1    2  501    0 -0.45797468548E+02 -0.26451831623E+02 -0.29832808762E+03  0.30297979369E+03  0.00000000000E+00 0. -1.
          1    1    1    2  502    0  0.44826875732E+02  0.47141055088E+01  0.26375394926E+03  0.26757768466E+03  0.00000000000E+00 0. -1.
         22    1    3    3    0    0  0.22255328599E+02  0.60787416171E+02 -0.25763772002E+02  0.69671956794E+02  0.00000000000E+00 0.  1.
         22    1    3    3    0    0 -0.21284735782E+02 -0.39049690057E+02 -0.97786387801E+02  0.10742483842E+03  0.00000000000E+00 0.  1.
</event>
<event>
 7    1  0.6358809E-006  0.1175018E+03  0.7818608E-02  0.1336760E+00
          2   -1    0    0  502    0  0.00000000000E+00  0.00000000000E+00  0.83073397112E+03  0.83073397112E+03  0.00000000000E+00 0. -1.
          1   -1    0    0  501    0 -0.00000000000E+00 -0.00000000000E+00 -0.31438190987E+03  0.31438190987E+03  0.00000000000E+00 0. -1.
         25    2    1    2    0    0  0.14709855393E+02 -0.12281881549E+03  0.27712025630E+02  0.17804910827E+03  0.12503074545E+03 0.  0.
          2    1    1    2  501    0  0.35166771205E+02  0.11260577938E+03 -0.22370511384E+03  0.25290460910E+03  0.00000000000E+00 0. -1.
          1    1    1    2  502    0 -0.49876626598E+02  0.10213036110E+02  0.71234514945E+03  0.71416216361E+03  0.00000000000E+00 0. -1.
         22    1    3    3    0    0  0.34407985063E+02  0.95505730974E+01  0.26068716405E+02  0.44211999022E+02  0.00000000000E+00 0.  1.
         22    1    3    3    0    0 -0.19698129670E+02 -0.13236938859E+03  0.16433092253E+01  0.13383710925E+03  0.00000000000E+00 0.  1.
</event>
<event>
 7    1  0.6358809E-006  0.1434965E+03  0.7818608E-02  0.1227712E+00
          2   -1    0    0  502    0  0.00000000000E+00  0.00000000000E+00  0.17735773822E+03  0.17735773822E+03  0.00000000000E+00 0. -1.
          1   -1    0    0  501    0 -0.00000000000E+00 -0.00000000000E+00 -0.19177860492E+04  0.19177860492E+04  0.00000000000E+00 0. -1.
         25    2    1    2    0    0  0.14395013143E+03 -0.16434284586E+03 -0.72172721856E+03  0.76435780613E+03  0.12498986541E+03 0.  0.
          2    1    1    2  501    0 -0.10777525572E+02  0.11696483609E+03 -0.11390817997E+04  0.11451219474E+04  0.00000000000E+00 0. -1.
          1    1    1    2  502    0 -0.13317260586E+03  0.47378009762E+02  0.12038070735E+03  0.18566403384E+03  0.00000000000E+00 0. -1.
         22    1    3    3    0    0  0.16095513477E+03 -0.12326927451E+03 -0.63972192284E+03  0.67107824284E+03  0.00000000000E+00 0. -1.
         22    1    3    3    0    0 -0.17005003336E+02 -0.41073571350E+02 -0.82005295719E+02  0.93279563292E+02  0.00000000000E+00 0. -1.
</event>
<event>
 7    1  0.6358809E-006  0.2431105E+03  0.7818608E-02  0.1181898E+00
          2   -1    0    0  502    0  0.00000000000E+00  0.00000000000E+00  0.23467206858E+04  0.23467206858E+04  0.00000000000E+00 0. -1.
          1   -1    0    0  501    0 -0.00000000000E+00 -0.00000000000E+00 -0.35025426741E+03  0.35025426741E+03  0.00000000000E+00 0. -1.
         25    2    1    2    0    0  0.17218044533E+03 -0.13943607109E+03  0.17540481640E+03  0.30900196943E+03  0.12500737505E+03 0.  0.
          2    1    1    2  501    0 -0.72370776272E+02 -0.87543484320E+02 -0.26443005940E+03  0.28779271572E+03  0.00000000000E+00 0. -1.
          1    1    1    2  502    0 -0.99809669057E+02  0.22697955541E+03  0.20854916614E+04  0.21001802681E+04  0.00000000000E+00 0. -1.
         22    1    3    3    0    0  0.85940735207E+02  0.50416079328E+01  0.56638650973E+02  0.10304933072E+03  0.00000000000E+00 0.  1.
         22    1    3    3    0    0  0.86239710122E+02 -0.14447767903E+03  0.11876616543E+03  0.20595263870E+03  0.00000000000E+00 0.  1.
</event>
<event>
 7    1  0.6358809E-006  0.3887197E+02  0.7818608E-02  0.1572049E+00
          2   -1    0    0  502    0  0.00000000000E+00  0.00000000000E+00  0.27291788361E+03  0.27291788361E+03  0.00000000000E+00 0. -1.
          1   -1    0    0  501    0 -0.00000000000E+00 -0.00000000000E+00 -0.39810253077E+02  0.39810253077E+02  0.00000000000E+00 0. -1.
         25    2    1    2    0    0  0.15826140736E+01 -0.41111072591E+01  0.17313259507E+03  0.21358782608E+03  0.12500183240E+03 0.  0.
          2    1    1    2  501    0  0.38428614019E+02  0.58542323301E+01  0.30671926402E+02  0.49515628652E+02  0.00000000000E+00 0. -1.
          1    1    1    2  502    0 -0.40011228093E+02 -0.17431250710E+01  0.29303109062E+02  0.49624681956E+02  0.00000000000E+00 0. -1.
         22    1    3    3    0    0  0.62913356557E+02 -0.29323476892E+00  0.76165002793E+02  0.98789088822E+02  0.00000000000E+00 0. -1.
         22    1    3    3    0    0 -0.61330742483E+02 -0.38178724902E+01  0.96967592279E+02  0.11479873726E+03  0.00000000000E+00 0. -1.
</event>
<event>
 7    1  0.6358809E-006  0.8734314E+02  0.7818608E-02  0.1411163E+00
          2   -1    0    0  502    0  0.00000000000E+00  0.00000000000E+00  0.10595082486E+04  0.10595082486E+04  0.00000000000E+00 0. -1.
          1   -1    0    0  501    0 -0.00000000000E+00 -0.00000000000E+00 -0.18707787752E+02  0.18707787752E+02  0.00000000000E+00 0. -1.
         25    2    1    2    0    0  0.64550943031E+02  0.71327754779E+01  0.57584494227E+03  0.59282365889E+03  0.12499916908E+03 0.  0.
          2    1    1    2  501    0 -0.10148033993E+03 -0.34400952582E+01  0.36111190316E+03  0.37511584911E+03  0.00000000000E+00 0. -1.
          1    1    1    2  502    0  0.36929396894E+02 -0.36926802197E+01  0.10384361537E+03  0.11027652831E+03  0.00000000000E+00 0. -1.
         22    1    3    3    0    0  0.49774658251E+02 -0.19177263355E+02  0.80550774401E+02  0.96611134402E+02  0.00000000000E+00 0. -1.
         22    1    3    3    0    0  0.14776284780E+02  0.26310038833E+02  0.49529416787E+03  0.49621252449E+03  0.00000000000E+00 0. -1.
</event>
<event>
 7    1  0.7781612E-006  0.6366804E+02  0.7818608E-02  0.1403430E+00
          2   -1    0    0  502    0  0.00000000000E+00  0.00000000000E+00  0.16129177139E+04  0.16129177139E+04  0.00000000000E+00 0. -1.
          1   -1    0    0  501    0 -0.00000000000E+00 -0.00000000000E+00 -0.10728442919E+04  0.10728442919E+04  0.00000000000E+00 0. -1.
         25    2    1    2    0    0  0.38844168000E+02 -0.53412842751E+02 -0.15667232101E+03  0.21102820371E+03  0.12499954173E+03 0.  0.
          2    1    1    2  501    0 -0.64258437499E+02  0.56608886599E+01 -0.88736156371E+03  0.88970317365E+03  0.00000000000E+00 0. -1.
          1    1    1    2  502    0  0.25414269499E+02  0.47751954091E+02  0.15841073067E+04  0.15850306285E+04  0.00000000000E+00 0. -1.
         22    1    3    3    0    0  0.37780084417E+02 -0.92134710264E+02 -0.13102279062E+03  0.16456947249E+03  0.00000000000E+00 0. -1.
         22    1    3    3    0    0  0.10640835833E+01  0.38721867513E+02 -0.25649530382E+02  0.46458731217E+02  0.00000000000E+00 0. -1.
</event>
<event>
 7    1  0.6358809E-006  0.1680930E+03  0.7818608E-02  0.1228515E+00
          2   -1    0    0  502    0  0.00000000000E+00  0.00000000000E+00  0.19280772726E+04  0.19280772726E+04  0.00000000000E+00 0. -1.
          1   -1    0    0  501    0 -0.00000000000E+00 -0.00000000000E+00 -0.97795445537E+03  0.97795445537E+03  0.00000000000E+00 0. -1.
         25    2    1    2    0    0 -0.15594640927E+02 -0.22039728845E+03  0.14258579085E+04  0.14482795829E+04  0.12499926899E+03 0.  0.
          2    1    1    2  501    0 -0.23052496696E+02  0.96733471971E+02 -0.95557142866E+03  0.96073177187E+03  0.00000000000E+00 0. -1.
          1    1    1    2  502    0  0.38647137623E+02  0.12366381648E+03  0.47983633738E+03  0.49702037324E+03  0.00000000000E+00 0. -1.
         22    1    3    3    0    0 -0.42173328763E+02 -0.13144395696E+03  0.11246040437E+04  0.11330447293E+04  0.00000000000E+00 0. -1.
         22    1    3    3    0    0  0.26578687836E+02 -0.88953331493E+02  0.30125386484E+03  0.31523485358E+03  0.00000000000E+00 0. -1.
</event>
<event>
 7    1  0.6358809E-006  0.1206794E+03  0.7818608E-02  0.1329517E+00
          2   -1    0    0  502    0  0.00000000000E+00  0.00000000000E+00  0.35430800233E+04  0.35430800233E+04  0.00000000000E+00 0. -1.
          1   -1    0    0  501    0 -0.00000000000E+00 -0.00000000000E+00 -0.44050294166E+03  0.44050294166E+03  0.00000000000E+00 0. -1.
         25    2    1    2    0    0 -0.31623078631E+02  0.14269088586E+03  0.33506686242E+02  0.19521407713E+03  0.12500051951E+03 0.  0.
          2    1    1    2  501    0  0.63678248594E+02 -0.10071439979E+03 -0.34957010787E+03  0.36932041642E+03  0.00000000000E+00 0. -1.
          1    1    1    2  502    0 -0.32055169963E+02 -0.41976486072E+02  0.34186405033E+04  0.34190484714E+04  0.00000000000E+00 0. -1.
         22    1    3    3    0    0  0.29541860315E+01  0.14939731204E+03  0.48261318193E+02  0.15702687316E+03  0.00000000000E+00 0.  1.
         22    1    3    3    0    0 -0.34577264662E+02 -0.67064261792E+01 -0.14754631951E+02  0.38187203977E+02  0.00000000000E+00 0.  1.
</event>
<event>
 7    1  0.6358809E-006  0.1047874E+03  0.7818608E-02  0.1433878E+00
          2   -1    0    0  502    0  0.00000000000E+00  0.00000000000E+00  0.12123608424E+04  0.12123608424E+04  0.00000000000E+00 0. -1.
          1   -1    0    0  501    0 -0.00000000000E+00 -0.00000000000E+00 -0.16620990047E+03  0.16620990047E+03  0.00000000000E+00 0. -1.
         25    2    1    2    0    0  0.79654252943E+02 -0.92959796453E+01  0.56171563408E+03  0.58101242192E+03  0.12497906066E+03 0.  0.
          2    1    1    2  501    0 -0.10389242610E+03  0.18684698442E+02 -0.13846666805E+03  0.17411425076E+03  0.00000000000E+00 0. -1.
          1    1    1    2  502    0  0.24238173157E+02 -0.93887187970E+01  0.62290197594E+03  0.62344407023E+03  0.00000000000E+00 0. -1.
         22    1    3    3    0    0  0.70580197182E+02  0.34979594466E+02  0.48965863110E+03  0.49595434394E+03  0.00000000000E+00 0. -1.
         22    1    3    3    0    0  0.90740557609E+01 -0.44275574111E+02  0.72057002983E+02  0.85058077981E+02  0.00000000000E+00 0. -1.
</event>
<event>
 7    1  0.6358809E-006  0.1599254E+03  0.7818608E-02  0.1423708E+00
          2   -1    0    0  502    0  0.00000000000E+00  0.00000000000E+00  0.21892564261E+03  0.21892564261E+03  0.00000000000E+00 0. -1.
          1   -1    0    0  501    0 -0.00000000000E+00 -0.00000000000E+00 -0.17824247177E+04  0.17824247177E+04  0.00000000000E+00 0. -1.
         25    2    1    2    0    0  0.12966963741E+02 -0.11610735328E+02 -0.16426352653E+04  0.16474759768E+04  0.12499411273E+03 0.  0.
          2    1    1    2  501    0 -0.12373174643E+03 -0.10374658508E+03 -0.24479893088E+02  0.16331614787E+03  0.00000000000E+00 0. -1.
          1    1    1    2  502    0  0.11076478269E+03  0.11535732041E+03  0.10361608325E+03  0.19055823562E+03  0.00000000000E+00 0. -1.
         22    1    3    3    0    0 -0.28751636530E+02 -0.49944678296E+01 -0.97742681521E+02  0.10200604444E+03  0.00000000000E+00 0.  1.
         22    1    3    3    0    0  0.41718600270E+02 -0.66162674984E+01 -0.15448925837E+04  0.15454699324E+04  0.00000000000E+00 0.  1.
</event>
<event>
 7    1  0.6358809E-006  0.7898707E+02  0.7818608E-02  0.1458644E+00
          2   -1    0    0  502    0  0.00000000000E+00  0.00000000000E+00  0.39798819238E+02  0.39798819238E+02  0.00000000000E+00 0. -1.
          1   -1    0    0  501    0 -0.00000000000E+00 -0.00000000000E+00 -0.81640086735E+03  0.81640086735E+03  0.00000000000E+00 0. -1.
         25    2    1    2    0    0 -0.38070289292E+02  0.67880144087E+02 -0.31133381397E+03  0.34439119470E+03  0.12497795958E+03 0.  0.
          2    1    1    2  501    0  0.11706624894E+02 -0.79232524654E+02 -0.47484250973E+03  0.48154983862E+03  0.00000000000E+00 0. -1.
          1    1    1    2  502    0  0.26363664398E+02  0.11352380566E+02  0.95742755785E+01  0.30258653272E+02  0.00000000000E+00 0. -1.
         22    1    3    3    0    0  0.14788454952E+02  0.34007611496E+02 -0.26182445902E+03  0.26443763609E+03  0.00000000000E+00 0.  1.
         22    1    3    3    0    0 -0.52858744244E+02  0.33872532592E+02 -0.49509354944E+02  0.79953558608E+02  0.00000000000E+00 0.  1.
</event>
<event>
 7    1  0.6358809E-006  0.8586729E+02  0.7818608E-02  0.1382216E+00
          2   -1    0    0  502    0  0.00000000000E+00  0.00000000000E+00  0.63423394844E+03  0.63423394844E+03  0.00000000000E+00 0. -1.
          1   -1    0    0  501    0 -0.00000000000E+00 -0.00000000000E+00 -0.11092258793E+04  0.11092258793E+04  0.00000000000E+00 0. -1.
         25    2    1    2    0    0 -0.13976437492E+02  0.10949094700E+03 -0.45493494591E+03  0.48453442703E+03  0.12499679072E+03 0.  0.
          2    1    1    2  501    0 -0.30708685927E+02 -0.36277620106E+02 -0.63563042681E+03  0.63740499574E+03  0.00000000000E+00 0. -1.
          1    1    1    2  502    0  0.44685123420E+02 -0.73213326889E+02  0.61557344185E+03  0.62152040497E+03  0.00000000000E+00 0. -1.
         22    1    3    3    0    0  0.55796854038E+02  0.49016217727E+02 -0.21320047336E+03  0.22576607443E+03  0.00000000000E+00 0. -1.
         22    1    3    3    0    0 -0.69773291530E+02  0.60474729268E+02 -0.24173447255E+03  0.25876835261E+03  0.00000000000E+00 0. -1.
</event>
<event>
 7    1  0.6358809E-006  0.1576494E+03  0.7818608E-02  0.1327480E+00
          2   -1    0    0  502    0  0.00000000000E+00  0.00000000000E+00  0.15334808896E+04  0.15334808896E+04  0.00000000000E+00 0. -1.
          1   -1    0    0  501    0 -0.00000000000E+00 -0.00000000000E+00 -0.19543163656E+04  0.19543163656E+04  0.00000000000E+00 0. -1.
         25    2    1    2    0    0  0.14679119755E+03  0.35324078098E+02  0.81821926338E+03  0.84137014037E+03  0.12500201589E+03 0.  0.
          2    1    1    2  501    0 -0.13838183291E+03 -0.75619047576E+02 -0.19389351176E+04  0.19453372876E+04  0.00000000000E+00 0. -1.
          1    1    1    2  502    0 -0.84093646361E+01  0.40294969478E+02  0.69988037831E+03  0.70108982729E+03  0.00000000000E+00 0. -1.
         22    1    3    3    0    0  0.21198650902E+02  0.27657610970E+02  0.46688812259E+03  0.46818676322E+03  0.00000000000E+00 0.  1.
         22    1    3    3    0    0  0.12559254664E+03  0.76664671278E+01  0.35133114079E+03  0.37318337715E+03  0.00000000000E+00 0.  1.
</event>
<event>
 7    1  0.6358809E-006  0.3072247E+02  0.7818608E-02  0.1663050E+00
          2   -1    0    0  502    0  0.00000000000E+00  0.00000000000E+00  0.32854815491E+02  0.32854815491E+02  0.00000000000E+00 0. -1.
          1   -1    0    0  501    0 -0.00000000000E+00 -0.00000000000E+00 -0.15413639069E+04  0.15413639069E+04  0.00000000000E+00 0. -1.
         25    2    1    2    0    0 -0.66720247729E+01  0.86965864833E+01 -0.16510244804E+03  0.20737393820E+03  0.12499994145E+03 0.  0.
          2    1    1    2  501    0  0.14981732125E+02 -0.27012692135E+02 -0.13461863187E+04  0.13465406576E+04  0.00000000000E+00 0. -1.
          1    1    1    2  502    0 -0.83097073518E+01  0.18316105652E+02  0.27796753447E+01  0.20304126613E+02  0.00000000000E+00 0. -1.
         22    1    3    3    0    0 -0.29846206838E+01 -0.58298793415E+02 -0.75668975154E+02  0.95569090584E+02  0.00000000000E+00 0.  1.
         22    1    3    3    0    0 -0.36874040891E+01  0.66995379898E+02 -0.89433472888E+02  0.11180484761E+03  0.00000000000E+00 0.  1.
</event>
<event>
 7    1  0.6358809E-006  0.9699204E+02  0.7818608E-02  0.1354967E+00
          2   -1    0    0  502    0  0.00000000000E+00  0.00000000000E+00  0.10726213016E+04  0.10726213016E+04  0.00000000000E+00 0. -1.
          1   -1    0    0  501    0 -0.00000000000E+00 -0.00000000000E+00 -0.19591323128E+04  0.19591323128E+04  0.00000000000E+00 0. -1.
         25    2    1    2    0    0 -0.51081436787E+02 -0.62797819940E+02  0.14799940925E+03  0.20995494913E+03  0.12499750458E+03 0.  0.
          2    1    1    2  501    0 -0.43000127700E+02  0.30557193981E+02 -0.19250251149E+04  0.19257477629E+04  0.00000000000E+00 0. -1.
          1    1    1    2  502    0  0.94081564487E+02  0.32240625959E+02  0.89051469447E+03  0.89605090247E+03  0.00000000000E+00 0. -1.
         22    1    3    3    0    0  0.13188754202E+02 -0.74562779232E+02  0.11246255307E+03  0.13557793747E+03  0.00000000000E+00 0.  1.
         22    1    3    3    0    0 -0.64270190988E+02  0.11764959292E+02  0.35536856175E+02  0.74377011661E+02  0.00000000000E+00 0.  1.
</event>
<event>
 7    1  0.6358809E-006  0.1063604E+03  0.7818608E-02  0.1365379E+00
          2   -1    0    0  502    0  0.00000000000E+00  0.00000000000E+00  0.11260451121E+04  0.11260451121E+04  0.00000000000E+00 0. -1.
          1   -1    0    0  501    0 -0.00000000000E+00 -0.00000000000E+00 -0.30897639470E+03  0.30897639470E+03  0.00000000000E+00 0. -1.
         25    2    1    2    0    0 -0.11868509209E+03  0.74943391112E+02  0.37859828808E+03  0.42268745207E+03  0.12500142179E+03 0.  0.
          2    1    1    2  501    0  0.25261225784E+02 -0.36119275811E+02 -0.28168219592E+03  0.28510978783E+03  0.00000000000E+00 0. -1.
          1    1    1    2  502    0  0.93423866301E+02 -0.38824115301E+02  0.72015262525E+03  0.72722426691E+03  0.00000000000E+00 0. -1.
         22    1    3    3    0    0 -0.30316364356E+02  0.76853243738E+02  0.96338863374E+02  0.12691209405E+03  0.00000000000E+00 0. -1.
         22    1    3    3    0    0 -0.88368727729E+02 -0.19098526261E+01  0.28225942470E+03  0.29577535802E+03  0.00000000000E+00 0. -1.
</event>
<event>
 7    1  0.6358809E-006  0.1202554E+03  0.7818608E-02  0.1325640E+00
          2   -1    0    0  502    0  0.00000000000E+00  0.00000000000E+00  0.16753851600E+03  0.16753851600E+03  0.00000000000E+00 0. -1.
          1   -1    0    0  501    0 -0.00000000000E+00 -0.00000000000E+00 -0.28189327299E+03  0.28189327299E+03  0.00000000000E+00 0. -1.
         25    2    1    2    0    0  0.70012463247E+02 -0.84880782296E+02  0.18377045727E+02  0.16753819942E+03  0.12499936097E+03 0.  0.
          2    1    1    2  501    0 -0.33135077764E+02 -0.43707746983E+02 -0.13750102131E+03  0.14803658800E+03  0.00000000000E+00 0. -1.
          1    1    1    2  502    0 -0.36877385484E+02  0.12858852928E+03  0.47692185991E+01  0.13385700157E+03  0.00000000000E+00 0. -1.
         22    1    3    3    0    0  0.89012167277E+02 -0.87269010752E+02 -0.18465863859E+02  0.12601600807E+03  0.00000000000E+00 0.  1.
         22    1    3    3    0    0 -0.18999704030E+02  0.23882284566E+01  0.36842909586E+02  0.41522191358E+02  0.00000000000E+00 0.  1.
</event>
<event>
 7    1  0.6358809E-006  0.2401326E+03  0.7818608E-02  0.1157811E+00
          2   -1    0    0  502    0  0.00000000000E+00  0.00000000000E+00  0.18204027126E+03  0.18204027126E+03  0.00000000000E+00 0. -1.
          1   -1    0    0  501    0 -0.00000000000E+00 -0.00000000000E+00 -0.16058518567E+04  0.16058518567E+04  0.00000000000E+00 0. -1.
         25    2    1    2    0    0 -0.36604847944E+00 -0.99954675388E+02 -0.52437075874E+03  0.54825155164E+03  0.12499600047E+03 0.  0.
          2    1    1    2  501    0 -0.22668754666E+03  0.17812322071E+03 -0.95125417707E+03  0.99398170756E+03  0.00000000000E+00 0. -1.
          1    1    1    2  502    0  0.22705359514E+03 -0.78168545320E+02  0.51813350332E+02  0.24565886880E+03  0.00000000000E+00 0. -1.
         22    1    3    3    0    0 -0.33540806457E+01 -0.12909710865E+03 -0.45442632632E+03  0.47241993964E+03  0.00000000000E+00 0.  1.
         22    1    3    3    0    0  0.29880321663E+01  0.29142433257E+02 -0.69944432425E+02  0.75831612007E+02  0.00000000000E+00 0.  1.
</event>
<event>
 7    1  0.6358809E-006  0.3285844E+03  0.7818608E-02  0.1219418E+00
          2   -1    0    0  502    0  0.00000000000E+00  0.00000000000E+00  0.78946060351E+03  0.78946060351E+03  0.00000000000E+00 0. -1.
          1   -1    0    0  501    0 -0.00000000000E+00 -0.00000000000E+00 -0.10446106219E+04  0.10446106219E+04  0.00000000000E+00 0. -1.
         25    2    1    2    0    0 -0.34345015134E+03  0.13352909353E+03 -0.10446860153E+03  0.40289749273E+03  0.12499870265E+03 0.  0.
          2    1    1    2  501    0  0.33503272385E+02 -0.44790520379E+02 -0.74923229785E+03  0.75131730721E+03  0.00000000000E+00 0. -1.
          1    1    1    2  502    0  0.30994687896E+03 -0.88738573153E+02  0.59855088098E+03  0.67985642548E+03  0.00000000000E+00 0. -1.
         22    1    3    3    0    0  0.85756916367E+01  0.14970988105E+02 -0.90747588800E+00  0.17277050801E+02  0.00000000000E+00 0.  1.
         22    1    3    3    0    0 -0.35202584298E+03  0.11855810543E+03 -0.10356112564E+03  0.38562044193E+03  0.00000000000E+00 0.  1.
</event>
<event>
 7    1  0.6358809E-006  0.1199662E+03  0.7818608E-02  0.1334025E+00
          2   -1    0    0  502    0  0.00000000000E+00  0.00000000000E+00  0.15768086005E+04  0.15768086005E+04  0.00000000000E+00 0. -1.
          1   -1    0    0  501    0 -0.00000000000E+00 -0.00000000000E+00 -0.17454696183E+03  0.17454696183E+03  0.00000000000E+00 0. -1.
         25    2    1    2    0    0  0.10763078903E+03  0.37822417754E+02  0.34577557523E+03  0.38496825632E+03  0.12499955165E+03 0.  0.
          2    1    1    2  501    0 -0.12043752657E+03  0.11615620515E+02 -0.13069704292E+03  0.17810625333E+03  0.00000000000E+00 0. -1.
          1    1    1    2  502    0  0.12806737541E+02 -0.49438038269E+02  0.11871831063E+04  0.11882810527E+04  0.00000000000E+00 0. -1.
         22    1    3    3    0    0  0.11523437596E+03  0.62061202722E+02  0.21466403397E+03  0.25141837993E+03  0.00000000000E+00 0. -1.
         22    1    3    3    0    0 -0.76035869331E+01 -0.24238784968E+02  0.13111154126E+03  0.13354987639E+03  0.00000000000E+00 0. -1.
</event>
<event>
 7    1  0.6358809E-006  0.1171434E+03  0.7818608E-02  0.1370523E+00
          2   -1    0    0  502    0  0.00000000000E+00  0.00000000000E+00  0.22759060680E+03  0.22759060680E+03  0.00000000000E+00 0. -1.
          1   -1    0    0  501    0 -0.00000000000E+00 -0.00000000000E+00 -0.13166573803E+04  0.13166573803E+04  0.00000000000E+00 0. -1.
         25    2    1    2    0    0  0.78138337244E+02 -0.37394464739E+02 -0.16641483743E+03  0.22545629746E+03  0.12503078904E+03 0.  0.
          2    1    1    2  501    0 -0.11617279980E+03  0.32517472150E+02 -0.11155829829E+04  0.11220868492E+04  0.00000000000E+00 0. -1.
          1    1    1    2  502    0  0.38034462557E+02  0.48769925892E+01  0.19293104686E+03  0.19670484041E+03  0.00000000000E+00 0. -1.
         22    1    3    3    0    0  0.95547605603E+02 -0.32231560753E+02 -0.59652570879E+02  0.11716077696E+03  0.00000000000E+00 0.  1.
         22    1    3    3    0    0 -0.17409268358E+02 -0.51629039857E+01 -0.10676226655E+03  0.10829552050E+03  0.00000000000E+00 0.  1.
</event>
<event>
 7    1  0.6358809E-006  0.4531971E+02  0.7818608E-02  0.1474840E+00
          2   -1    0    0  502    0  0.00000000000E+00  0.00000000000E+00  0.58657242969E+03  0.58657242969E+03  0.00000000000E+00 0. -1.
          1   -1    0    0  501    0 -0.00000000000E+00 -0.00000000000E+00 -0.14425277008E+03  0.14425277008E+03  0.00000000000E+00 0. -1.
         25    2    1    2    0    0 -0.13418986049E+02  0.30114469989E+02 -0.50695083508E+02  0.13885897418E+03  0.12499949091E+03 0.  0.
          2    1    1    2  501    0  0.52257077716E+02 -0.67589796563E+01 -0.34192869661E+02  0.62814316147E+02  0.00000000000E+00 0. -1.
          1    1    1    2  502    0 -0.38838091667E+02 -0.23355490332E+02  0.52720761278E+03  0.52915190944E+03  0.00000000000E+00 0. -1.
         22    1    3    3    0    0  0.34775822187E+02 -0.61928825172E+01  0.24098122179E+02  0.42760134415E+02  0.00000000000E+00 0.  1.
         22    1    3    3    0    0 -0.48194808236E+02  0.36307352506E+02 -0.74793205687E+02  0.96098839763E+02  0.00000000000E+00 0.  1.
</event>
<event>
 7    1  0.6358809E-006  0.6959309E+02  0.7818608E-02  0.1510977E+00
          2   -1    0    0  502    0  0.00000000000E+00  0.00000000000E+00  0.67248496856E+03  0.67248496856E+03  0.00000000000E+00 0. -1.
          1   -1    0    0  501    0 -0.00000000000E+00 -0.00000000000E+00 -0.76792642425E+03  0.76792642425E+03  0.00000000000E+00 0. -1.
         25    2    1    2    0    0  0.67494813518E+02 -0.46255791226E+02  0.19767642172E+03  0.24778274212E+03  0.12500068606E+03 0.  0.
          2    1    1    2  501    0 -0.32645302240E+01  0.22326169971E+02 -0.74008882130E+03  0.74043269677E+03  0.00000000000E+00 0. -1.
          1    1    1    2  502    0 -0.64230283294E+02  0.23929621254E+02  0.44697094389E+03  0.45219595392E+03  0.00000000000E+00 0. -1.
         22    1    3    3    0    0  0.97061983718E+02 -0.68090966638E+01  0.10738553627E+03  0.14491047540E+03  0.00000000000E+00 0. -1.
         22    1    3    3    0    0 -0.29567170200E+02 -0.39446694562E+02  0.90290885445E+02  0.10287226672E+03  0.00000000000E+00 0. -1.
</event>
<event>
 7    1  0.6358809E-006  0.4485599E+03  0.7818608E-02  0.1163480E+00
          2   -1    0    0  502    0  0.00000000000E+00  0.00000000000E+00  0.16483151117E+04  0.16483151117E+04  0.00000000000E+00 0. -1.
          1   -1    0    0  501    0 -0.00000000000E+00 -0.00000000000E+00 -0.31658442129E+04  0.31658442129E+04  0.00000000000E+00 0. -1.
         25    2    1    2    0    0 -0.43327496480E+03 -0.29191719051E+03  0.56247604612E+03  0.77778445288E+03  0.12500604560E+03 0.  0.
          2    1    1    2  501    0  0.37361537949E+03  0.24496340655E+03 -0.30403674191E+04  0.30730163627E+04  0.00000000000E+00 0. -1.
          1    1    1    2  502    0  0.59659585315E+02  0.46953783965E+02  0.96036227173E+03  0.96335850902E+03  0.00000000000E+00 0. -1.
         22    1    3    3    0    0 -0.36824959198E+03 -0.29450331236E+03  0.50561816521E+03  0.69136798593E+03  0.00000000000E+00 0. -1.
         22    1    3    3    0    0 -0.65025372828E+02  0.25861218476E+01  0.56857880912E+02  0.86416466946E+02  0.00000000000E+00 0. -1.
</event>
<event>
 7    1  0.6358809E-006  0.8712272E+02  0.7818608E-02  0.1394693E+00
          2   -1    0    0  502    0  0.00000000000E+00  0.00000000000E+00  0.36164928265E+04  0.36164928265E+04  0.00000000000E+00 0. -1.
          1   -1    0    0  501    0 -0.00000000000E+00 -0.00000000000E+00 -0.54901095474E+02  0.54901095474E+02  0.00000000000E+00 0. -1.
         25    2    1    2    0    0  0.56003977712E+02  0.24905990169E+02  0.73457646205E+03  0.74765040927E+03  0.12498720744E+03 0.  0.
          2    1    1    2  501    0 -0.58117670514E+02 -0.67219925649E+02 -0.72554383134E+01  0.89156174297E+02  0.00000000000E+00 0. -1.
          1    1    1    2  502    0  0.21136928012E+01  0.42313935480E+02  0.28342707072E+04  0.28345873384E+04  0.00000000000E+00 0. -1.
         22    1    3    3    0    0 -0.92696326943E+01 -0.33503388822E+02  0.79820936914E+02  0.87061961399E+02  0.00000000000E+00 0. -1.
         22    1    3    3    0    0  0.65273610407E+02  0.58409378991E+02  0.65475552513E+03  0.66058844787E+03  0.00000000000E+00 0. -1.
</event>
<event>
 7    1  0.6358809E-006  0.5922084E+02  0.7818608E-02  0.1444705E+00
          2   -1    0    0  502    0  0.00000000000E+00  0.00000000000E+00  0.51548125338E+02  0.51548125338E+02  0.00000000000E+00 0. -1.
          1   -1    0    0  501    0 -0.00000000000E+00 -0.00000000000E+00 -0.49056115498E+03  0.49056115498E+03  0.00000000000E+00 0. -1.
         25    2    1    2    0    0  0.46364057479E+02  0.80598226113E+02 -0.36049205782E+03  0.39271715624E+03  0.12500616457E+03 0.  0.
          2    1    1    2  501    0 -0.34434640729E+02 -0.24764002966E+02 -0.81864641205E+02  0.92199890481E+02  0.00000000000E+00 0. -1.
          1    1    1    2  502    0 -0.11929416750E+02 -0.55834223147E+02  0.33436693799E+01  0.57192233593E+02  0.00000000000E+00 0. -1.
         22    1    3    3    0    0  0.41838755381E+02 -0.96167893520E+01 -0.23024593186E+03  0.23421390485E+03  0.00000000000E+00 0. -1.
         22    1    3    3    0    0  0.45253020973E+01  0.90215015465E+02 -0.13024612596E+03  0.15850325139E+03  0.00000000000E+00 0. -1.
</event>
<event>
 7    1  0.6358809E-006  0.5305787E+02  0.7818608E-02  0.1457133E+00
          2   -1    0    0  502    0  0.00000000000E+00  0.00000000000E+00  0.77813616594E+02  0.77813616594E+02  0.00000000000E+00 0. -1.
          1   -1    0    0  501    0 -0.00000000000E+00 -0.00000000000E+00 -0.33665488443E+03  0.33665488443E+03  0.00000000000E+00 0. -1.
         25    2    1    2    0    0 -0.43066880090E+02 -0.41526859822E+02 -0.19781877866E+02  0.13997765723E+03  0.12499274213E+03 0.  0.
          2    1    1    2  501    0  0.15655056329E+01  0.53537398718E+02 -0.22145101118E+03  0.22783602485E+03  0.00000000000E+00 0. -1.
          1    1    1    2  502    0  0.41501374457E+02 -0.12010538896E+02 -0.17608378794E+02  0.46654818938E+02  0.00000000000E+00 0. -1.
         22    1    3    3    0    0  0.90544028495E+01  0.28202194349E+02 -0.40802040918E+02  0.50419763190E+02  0.00000000000E+00 0.  1.
         22    1    3    3    0    0 -0.52121282939E+02 -0.69729054172E+02  0.21020163052E+02  0.89557894044E+02  0.00000000000E+00 0.  1.
</event>
<event>
 7    1  0.6358809E-006  0.1825329E+03  0.7818608E-02  0.1278852E+00
          2   -1    0    0  502    0  0.00000000000E+00  0.00000000000E+00  0.16973766572E+04  0.16973766572E+04  0.00000000000E+00 0. -1.
          1   -1    0    0  501    0 -0.00000000000E+00 -0.00000000000E+00 -0.28874180226E+03  0.28874180226E+03  0.00000000000E+00 0. -1.
         25    2    1    2    0    0 -0.10343653235E+03  0.13955597164E+03  0.85626197862E+03  0.88260091713E+03  0.12499926982E+03 0.  0.
          2    1    1    2  501    0  0.14852298880E+03 -0.10711774827E+03 -0.24407649464E+03  0.30513378284E+03  0.00000000000E+00 0. -1.
          1    1    1    2  502    0 -0.45086456450E+02 -0.32438223378E+02  0.79644937094E+03  0.79838375945E+03  0.00000000000E+00 0. -1.
         22    1    3    3    0    0 -0.45924357798E+02  0.10913919456E+03  0.73964723448E+03  0.74906504518E+03  0.00000000000E+00 0.  1.
         22    1    3    3    0    0 -0.57512174553E+02  0.30416777085E+02  0.11661474413E+03  0.13353587196E+03  0.00000000000E+00 0.  1.
</event>
<event>
 7    1  0.6358809E-006  0.1272505E+03  0.7818608E-02  0.1383925E+00
          2   -1    0    0  502    0  0.00000000000E+00  0.00000000000E+00  0.13347211316E+04  0.13347211316E+04  0.00000000000E+00 0. -1.
          1   -1    0    0  501    0 -0.00000000000E+00 -0.00000000000E+00 -0.12784950759E+03  0.12784950759E+03  0.00000000000E+00 0. -1.
         25    2    1    2    0    0  0.74293345696E+02  0.88643316948E+02 -0.56905694458E+01  0.17039546003E+03  0.12500036546E+03 0.  0.
          2    1    1    2  501    0 -0.10018723568E+03 -0.10680982466E+03  0.95867431551E+02  0.17503252632E+03  0.00000000000E+00 0. -1.
          1    1    1    2  502    0  0.25893889983E+02  0.18166507714E+02  0.11166947619E+04  0.11171426529E+04  0.00000000000E+00 0. -1.
         22    1    3    3    0    0  0.71201353907E+02  0.85769700023E+01 -0.41250267619E+02  0.82733196428E+02  0.00000000000E+00 0.  1.
         22    1    3    3    0    0  0.30919917897E+01  0.80066346946E+02  0.35559698173E+02  0.87662263606E+02  0.00000000000E+00 0.  1.
</event>
<event>
 7    1  0.6358809E-006  0.9815682E+02  0.7818608E-02  0.1301775E+00
          2   -1    0    0  502    0  0.00000000000E+00  0.00000000000E+00  0.20104631296E+03  0.20104631296E+03  0.00000000000E+00 0. -1.
          1   -1    0    0  501    0 -0.00000000000E+00 -0.00000000000E+00 -0.22967070694E+04  0.22967070694E+04  0.00000000000E+00 0. -1.
         25    2    1    2    0    0 -0.81080174539E+02 -0.40245252846E+02 -0.48118922657E+03  0.50533288286E+03  0.12499830259E+03 0.  0.
          2    1    1    2  501    0  0.93759911755E+02 -0.42125493292E+02 -0.17927129909E+04  0.17956573576E+04  0.00000000000E+00 0. -1.
          1    1    1    2  502    0 -0.12679737216E+02  0.82370746138E+02  0.17824146105E+03  0.19676314186E+03  0.00000000000E+00 0. -1.
         22    1    3    3    0    0 -0.37288141614E+02  0.15001480560E+02 -0.37935062133E+03  0.38147390976E+03  0.00000000000E+00 0. -1.
         22    1    3    3    0    0 -0.43792032925E+02 -0.55246733406E+02 -0.10183860524E+03  0.12385897310E+03  0.00000000000E+00 0. -1.
</event>
<event>
 7    1  0.6358809E-006  0.8780534E+02  0.7818608E-02  0.1318383E+00
          2   -1    0    0  502    0  0.00000000000E+00  0.00000000000E+00  0.36744436852E+04  0.36744436852E+04  0.00000000000E+00 0. -1.
          1   -1    0    0  501    0 -0.00000000000E+00 -0.00000000000E+00 -0.17230184483E+04  0.17230184483E+04  0.00000000000E+00 0. -1.
         25    2    1    2    0    0 -0.14017988959E+02 -0.15257114428E+03  0.36974858687E+03  0.41930009037E+03  0.12499636080E+03 0.  0.
          2    1    1    2  501    0 -0.26626874802E+02  0.83510127985E+02 -0.16966217393E+04  0.16988844157E+04  0.00000000000E+00 0. -1.
          1    1    1    2  502    0  0.40644863761E+02  0.69061016294E+02  0.32782983893E+04  0.32792776275E+04  0.00000000000E+00 0. -1.
         22    1    3    3    0    0  0.27070407115E+02 -0.57476758734E+02  0.26294298579E+03  0.27050951649E+03  0.00000000000E+00 0. -1.
         22    1    3    3    0    0 -0.41088396073E+02 -0.95094385545E+02  0.10680560108E+03  0.14879057388E+03  0.00000000000E+00 0. -1.
</event>
<event>
 7    1  0.6358809E-006  0.1172360E+03  0.7818608E-02  0.1365217E+00
          2   -1    0    0  502    0  0.00000000000E+00  0.00000000000E+00  0.11435875200E+04  0.11435875200E+04  0.00000000000E+00 0. -1.
          1   -1    0    0  501    0 -0.00000000000E+00 -0.00000000000E+00 -0.77128634695E+03  0.77128634695E+03  0.00000000000E+00 0. -1.
         25    2    1    2    0    0 -0.91861397760E+02 -0.14638658155E+02  0.78164360847E+02  0.17432033327E+03  0.12500041829E+03 0.  0.
          2    1    1    2  501    0 -0.26392136981E+02  0.30112582309E+02 -0.71915430703E+03  0.72026816521E+03  0.00000000000E+00 0. -1.
          1    1    1    2  502    0  0.11825353474E+03 -0.15473924154E+02  0.10132911193E+04  0.10202853685E+04  0.00000000000E+00 0. -1.
         22    1    3    3    0    0  0.30096446018E+02 -0.12699046287E+01  0.26149918754E+01  0.30236516056E+02  0.00000000000E+00 0. -1.
         22    1    3    3    0    0 -0.12195784378E+03 -0.13368753526E+02  0.75549368972E+02  0.14408381721E+03  0.00000000000E+00 0. -1.
</event>
<event>
 7    1  0.6358809E-006  0.1958822E+03  0.7818608E-02  0.1253382E+00
          2   -1    0    0  502    0  0.00000000000E+00  0.00000000000E+00  0.39707204373E+03  0.39707204373E+03  0.00000000000E+00 0. -1.
          1   -1    0    0  501    0 -0.00000000000E+00 -0.00000000000E+00 -0.15520131909E+04  0.15520131909E+04  0.00000000000E+00 0. -1.
         25    2    1    2    0    0  0.17868651313E+03 -0.11489917364E+03 -0.76455388752E+02  0.25807281351E+03  0.12500184210E+03 0.  0.
          2    1    1    2  501    0 -0.12337137889E+03  0.15147906912E+03 -0.13741674945E+04  0.13879851254E+04  0.00000000000E+00 0. -1.
          1    1    1    2  502    0 -0.55315134242E+02 -0.36579895480E+02  0.29568173612E+03  0.30302729564E+03  0.00000000000E+00 0. -1.
         22    1    3    3    0    0  0.11511384058E+03 -0.11411530438E+03 -0.99792873694E+02  0.19034735781E+03  0.00000000000E+00 0. -1.
         22    1    3    3    0    0  0.63572672550E+02 -0.78386926108E+00  0.23337484942E+02  0.67725455699E+02  0.00000000000E+00 0. -1.
</event>
<event>
 7    1  0.6358809E-006  0.1364555E+03  0.7818608E-02  0.1249891E+00
          2   -1    0    0  502    0  0.00000000000E+00  0.00000000000E+00  0.14928141860E+04  0.14928141860E+04  0.00000000000E+00 0. -1.
          1   -1    0    0  501    0 -0.00000000000E+00 -0.00000000000E+00 -0.44372623183E+02  0.44372623183E+02  0.00000000000E+00 0. -1.
         25    2    1    2    0    0 -0.78634855773E+02 -0.28885573100E+02  0.26946906863E+03  0.30863817151E+03  0.12500450027E+03 0.  0.
          2    1    1    2  501    0 -0.71642633793E+02  0.67694632067E+02  0.10731906418E+03  0.14571414387E+03  0.00000000000E+00 0. -1.
          1    1    1    2  502    0  0.15027748957E+03 -0.38809058968E+02  0.10716534300E+04  0.10828344938E+04  0.00000000000E+00 0. -1.
         22    1    3    3    0    0 -0.22359775387E+02  0.36142447461E+02  0.24597492995E+02  0.49104711846E+02  0.00000000000E+00 0. -1.
         22    1    3    3    0    0 -0.56275080386E+02 -0.65028020561E+02  0.24487157563E+03  0.25953345966E+03  0.00000000000E+00 0. -1.
</event>
<event>
 7    1  0.6358809E-006  0.1364688E+03  0.7818608E-02  0.1249753E+00
          2   -1    0    0  502    0  0.00000000000E+00  0.00000000000E+00  0.53698354652E+03  0.53698354652E+03  0.00000000000E+00 0. -1.
          1   -1    0    0  501    0 -0.00000000000E+00 -0.00000000000E+00 -0.44094527771E+03  0.44094527771E+03  0.00000000000E+00 0. -1.
         25    2    1    2    0    0 -0.14236381291E+03 -0.34708765904E+02  0.24754939568E+03  0.31365252917E+03  0.12500020839E+03 0.  0.
          2    1    1    2  501    0  0.80389874121E+02  0.11151716157E+03 -0.38606176468E+03  0.40980763210E+03  0.00000000000E+00 0. -1.
          1    1    1    2  502    0  0.61973938791E+02 -0.76808395661E+02  0.23455063780E+03  0.25446866295E+03  0.00000000000E+00 0. -1.
         22    1    3    3    0    0 -0.16231133998E+03 -0.24789106653E+02  0.18552114229E+03  0.24774495985E+03  0.00000000000E+00 0.  1.
         22    1    3    3    0    0  0.19947527063E+02 -0.99196592502E+01  0.62028253393E+02  0.65907569327E+02  0.00000000000E+00 0.  1.
</event>
<event>
 7    1  0.6358809E-006  0.4235393E+02  0.7818608E-02  0.1494275E+00
          2   -1    0    0  502    0  0.00000000000E+00  0.00000000000E+00  0.81375862409E+03  0.81375862409E+03  0.00000000000E+00 0. -1.
          1   -1    0    0  501    0 -0.00000000000E+00 -0.00000000000E+00 -0.57660421715E+03  0.57660421715E+03  0.00000000000E+00 0. -1.
         25    2    1    2    0    0  0.31204271351E+02 -0.27587645191E+02  0.23160323151E+03  0.26645751774E+03  0.12499906879E+03 0.  0.
          2    1    1    2  501    0 -0.39973903864E+02 -0.13997954092E+02 -0.55757315959E+03  0.55917947388E+03  0.00000000000E+00 0. -1.
          1    1    1    2  502    0  0.87696325126E+01  0.41585599282E+02  0.56312433503E+03  0.56472584962E+03  0.00000000000E+00 0. -1.
         22    1    3    3    0    0 -0.36397796221E+02 -0.46753668176E+02  0.81918757848E+02  0.10110088004E+03  0.00000000000E+00 0.  1.
         22    1    3    3    0    0  0.67602067572E+02  0.19166022985E+02  0.14968447366E+03  0.16535663770E+03  0.00000000000E+00 0.  1.
</event>
<event>
 7    1  0.6358809E-006  0.1664849E+03  0.7818608E-02  0.1401104E+00
          2   -1    0    0  502    0  0.00000000000E+00  0.00000000000E+00  0.64754897672E+03  0.64754897672E+03  0.00000000000E+00 0. -1.
          1   -1    0    0  501    0 -0.00000000000E+00 -0.00000000000E+00 -0.19049230410E+04  0.19049230410E+04  0.00000000000E+00 0. -1.
         25    2    1    2    0    0 -0.64948595652E+02 -0.17271809023E+03  0.52368236652E+03  0.56913766256E+03  0.12499839669E+03 0.  0.
          2    1    1    2  501    0  0.67939004693E+02  0.15186129920E+03 -0.18773781431E+04  0.18847350623E+04  0.00000000000E+00 0. -1.
          1    1    1    2  502    0 -0.29904090403E+01  0.20856791029E+02  0.96321712377E+02  0.98599292865E+02  0.00000000000E+00 0. -1.
         22    1    3    3    0    0 -0.62838857588E+02 -0.77109698406E+02  0.40333889988E+03  0.41542375446E+03  0.00000000000E+00 0. -1.
         22    1    3    3    0    0 -0.21097380648E+01 -0.95608391828E+02  0.12034346664E+03  0.15371390811E+03  0.00000000000E+00 0. -1.
</event>
<event>
 7    1  0.6358809E-006  0.6412173E+02  0.7818608E-02  0.1385024E+00
          2   -1    0    0  502    0  0.00000000000E+00  0.00000000000E+00  0.62535322368E+03  0.62535322368E+03  0.00000000000E+00 0. -1.
          1   -1    0    0  501    0 -0.00000000000E+00 -0.00000000000E+00 -0.80490588076E+03  0.80490588076E+03  0.00000000000E+00 0. -1.
         25    2    1    2    0    0  0.11676534287E+03  0.42858898005E+02  0.26963980839E+03  0.32218308718E+03  0.12500113985E+03 0.  0.
          2    1    1    2  501    0 -0.55616699782E+02 -0.31385333224E+02 -0.77437067761E+03  0.77699948699E+03  0.00000000000E+00 0. -1.
          1    1    1    2  502    0 -0.61148643089E+02 -0.11473564781E+02  0.32517821215E+03  0.33107653027E+03  0.00000000000E+00 0. -1.
         22    1    3    3    0    0  0.36631622490E+02 -0.16943730346E+02  0.67510562330E+01  0.40921174526E+02  0.00000000000E+00 0. -1.
         22    1    3    3    0    0  0.80133720381E+02  0.59802628351E+02  0.26288875215E+03  0.28126191265E+03  0.00000000000E+00 0. -1.
</event>
<event>
 7    1  0.6358809E-006  0.1656367E+03  0.7818608E-02  0.1392470E+00
          2   -1    0    0  502    0  0.00000000000E+00  0.00000000000E+00  0.13796651536E+04  0.13796651536E+04  0.00000000000E+00 0. -1.
          1   -1    0    0  501    0 -0.00000000000E+00 -0.00000000000E+00 -0.20688211651E+03  0.20688211651E+03  0.00000000000E+00 0. -1.
         25    2    1    2    0    0 -0.65058623611E+02 -0.13507684129E+03 -0.12376339515E+03  0.23112485644E+03  0.12499177464E+03 0.  0.
          2    1    1    2  501    0  0.83841696291E+01 -0.21077520504E+02 -0.18901533188E+02  0.29526668078E+02  0.00000000000E+00 0. -1.
          1    1    1    2  502    0  0.56674453982E+02  0.15615436180E+03  0.13154479655E+04  0.13258957456E+04  0.00000000000E+00 0. -1.
         22    1    3    3    0    0 -0.10154091251E+03 -0.80745965106E+02 -0.83830081493E+02  0.15446019020E+03  0.00000000000E+00 0. -1.
         22    1    3    3    0    0  0.36482288898E+02 -0.54330876188E+02 -0.39933313652E+02  0.76664666241E+02  0.00000000000E+00 0. -1.
</event>
<event>
 7    1  0.6358809E-006  0.8311654E+02  0.7818608E-02  0.1488618E+00
          2   -1    0    0  502    0  0.00000000000E+00  0.00000000000E+00  0.32138087356E+03  0.32138087356E+03  0.00000000000E+00 0. -1.
          1   -1    0    0  501    0 -0.00000000000E+00 -0.00000000000E+00 -0.11593646104E+03  0.11593646104E+03  0.00000000000E+00 0. -1.
         25    2    1    2    0    0  0.60523806726E+02  0.21322710770E+02  0.32781403348E+01  0.14054856146E+03  0.12500145099E+03 0.  0.
          2    1    1    2  501    0  0.16943245010E+02  0.14081383912E+02 -0.36903615206E+02  0.42979480448E+02  0.00000000000E+00 0. -1.
          1    1    1    2  502    0 -0.77467051736E+02 -0.35404094683E+02  0.23906988740E+03  0.25378929269E+03  0.00000000000E+00 0. -1.
         22    1    3    3    0    0  0.59704818217E+02  0.33322501284E+02  0.54810419666E+02  0.87631253067E+02  0.00000000000E+00 0. -1.
         22    1    3    3    0    0  0.81898850900E+00 -0.11999790513E+02 -0.51532279331E+02  0.52917308393E+02  0.00000000000E+00 0. -1.
</event>
<event>
 7    1  0.6358809E-006  0.6286156E+02  0.7818608E-02  0.1402585E+00
          2   -1    0    0  502    0  0.00000000000E+00  0.00000000000E+00  0.55800507105E+03  0.55800507105E+03  0.00000000000E+00 0. -1.
          1   -1    0    0  501    0 -0.00000000000E+00 -0.00000000000E+00 -0.10835559240E+03  0.10835559240E+03  0.00000000000E+00 0. -1.
         25    2    1    2    0    0  0.47888515285E+01 -0.37914759856E+02  0.79053046792E+02  0.15275477702E+03  0.12499670229E+03 0.  0.
          2    1    1    2  501    0 -0.54973210062E+02 -0.44601331966E+01 -0.57981716660E+02  0.80023909424E+02  0.00000000000E+00 0. -1.
          1    1    1    2  502    0  0.50184358533E+02  0.42374893053E+02  0.42857814852E+03  0.43358197701E+03  0.00000000000E+00 0. -1.
         22    1    3    3    0    0 -0.33412601701E+02 -0.31157386040E+02  0.99072952480E+02  0.10909919601E+03  0.00000000000E+00 0.  1.
         22    1    3    3    0    0  0.38201453229E+02 -0.67573738158E+01 -0.20019905688E+02  0.43655581012E+02  0.00000000000E+00 0.  1.
</event>
<event>
 7    1  0.6358809E-006  0.1279562E+03  0.7818608E-02  0.1353608E+00
          2   -1    0    0  502    0  0.00000000000E+00  0.00000000000E+00  0.37666964902E+04  0.37666964902E+04  0.00000000000E+00 0. -1.
          1   -1    0    0  501    0 -0.00000000000E+00 -0.00000000000E+00 -0.25540083284E+03  0.25540083284E+03  0.00000000000E+00 0. -1.
         25    2    1    2    0    0 -0.60416394231E+02  0.15443061229E+03  0.22682575948E+04  0.22777434209E+04  0.12499448085E+03 0.  0.
          2    1    1    2  501    0  0.35319212649E+02 -0.12270817106E+03 -0.23410112649E+03  0.26666098224E+03  0.00000000000E+00 0. -1.
          1    1    1    2  502    0  0.25097181582E+02 -0.31722441230E+02  0.14771391890E+04  0.14776929199E+04  0.00000000000E+00 0. -1.
         22    1    3    3    0    0 -0.60615360169E+02  0.15589319973E+03  0.22695959097E+04  0.22757509761E+04  0.00000000000E+00 0.  1.
         22    1    3    3    0    0  0.19896593770E+00 -0.14625874398E+01 -0.13383149259E+01  0.19924448059E+01  0.00000000000E+00 0.  1.
</event>
<event>
 7    1  0.6358809E-006  0.9733638E+02  0.7818608E-02  0.1457839E+00
          2   -1    0    0  502    0  0.00000000000E+00  0.00000000000E+00  0.26527545548E+04  0.26527545548E+04  0.00000000000E+00 0. -1.
          1   -1    0    0  501    0 -0.00000000000E+00 -0.00000000000E+00 -0.88090351517E+01  0.88090351517E+01  0.00000000000E+00 0. -1.
         25    2    1    2    0    0  0.81476203720E+02 -0.37275380135E+02  0.10802588707E+04  0.10911518173E+04  0.12500093989E+03 0.  0.
          2    1    1    2  501    0 -0.10123387046E+03  0.24682107880E+02  0.85325229415E+03  0.85959117052E+03  0.00000000000E+00 0. -1.
          1    1    1    2  502    0  0.19757666737E+02  0.12593272255E+02  0.71043435484E+03  0.71082060214E+03  0.00000000000E+00 0. -1.
         22    1    3    3    0    0 -0.21443863209E+02  0.77929050453E+01  0.47533713878E+03  0.47588440208E+03  0.00000000000E+00 0.  1.
         22    1    3    3    0    0  0.10292006693E+03 -0.45068285180E+02  0.60492173192E+03  0.61526741524E+03  0.00000000000E+00 0.  1.
</event>
<event>
 7    1  0.6358809E-006  0.9470710E+02  0.7818608E-02  0.1444394E+00
          2   -1    0    0  502    0  0.00000000000E+00  0.00000000000E+00  0.30221679832E+03  0.30221679832E+03  0.00000000000E+00 0. -1.
          1   -1    0    0  501    0 -0.00000000000E+00 -0.00000000000E+00 -0.13184679952E+04  0.13184679952E+04  0.00000000000E+00 0. -1.
         25    2    1    2    0    0  0.16002585465E+02 -0.86505607917E+02  0.19647083372E+02  0.15416052115E+03  0.12506060712E+03 0.  0.
          2    1    1    2  501    0 -0.42534670206E+02  0.84853306605E+02 -0.12485825223E+04  0.12521851288E+04  0.00000000000E+00 0. -1.
          1    1    1    2  502    0  0.26532084741E+02  0.16523013119E+01  0.21268424208E+03  0.21433914353E+03  0.00000000000E+00 0. -1.
         22    1    3    3    0    0 -0.25959420412E+02  0.13787350334E+02 -0.23055874046E+02  0.37357139417E+02  0.00000000000E+00 0.  1.
         22    1    3    3    0    0  0.41962005877E+02 -0.10029295825E+03  0.42702957418E+02  0.11680338173E+03  0.00000000000E+00 0.  1.
</event>
<event>
 7    1  0.6358809E-006  0.6206751E+02  0.7818608E-02  0.1440274E+00
          2   -1    0    0  502    0  0.00000000000E+00  0.00000000000E+00  0.50540998952E+03  0.50540998952E+03  0.00000000000E+00 0. -1.
          1   -1    0    0  501    0 -0.00000000000E+00 -0.00000000000E+00 -0.83684491540E+03  0.83684491540E+03  0.00000000000E+00 0. -1.
         25    2    1    2    0    0 -0.51816497141E+02  0.42413537587E+02 -0.87603793318E+02  0.16668122466E+03  0.12499739399E+03 0.  0.
          2    1    1    2  501    0 -0.10365702166E+02 -0.40522300561E+02 -0.70700469234E+03  0.70824087683E+03  0.00000000000E+00 0. -1.
          1    1    1    2  502    0  0.62182199307E+02 -0.18912370262E+01  0.46317355977E+03  0.46733280343E+03  0.00000000000E+00 0. -1.
         22    1    3    3    0    0  0.39175312477E+02 -0.19264333788E+00 -0.12104103953E+02  0.41003067589E+02  0.00000000000E+00 0. -1.
         22    1    3    3    0    0 -0.90991809618E+02  0.42606180925E+02 -0.75499689365E+02  0.12567815707E+03  0.00000000000E+00 0. -1.
</event>
<event>
 7    1  0.6358809E-006  0.3384188E+02  0.7818608E-02  0.1630604E+00
          2   -1    0    0  502    0  0.00000000000E+00  0.00000000000E+00  0.76110187875E+02  0.76110187875E+02  0.00000000000E+00 0. -1.
          1   -1    0    0  501    0 -0.00000000000E+00 -0.00000000000E+00 -0.53964089156E+03  0.53964089156E+03  0.00000000000E+00 0. -1.
         25    2    1    2    0    0 -0.12190326535E+02 -0.17243077861E+02 -0.36160902255E+02  0.13182724979E+03  0.12499954056E+03 0.  0.
          2    1    1    2  501    0 -0.21502970427E+02  0.43911351689E+01 -0.44376724259E+03  0.44430960534E+03  0.00000000000E+00 0. -1.
          1    1    1    2  502    0  0.33693296962E+02  0.12851942692E+02  0.16397441156E+02  0.39614224309E+02  0.00000000000E+00 0. -1.
         22    1    3    3    0    0 -0.56979654326E+02 -0.43635125951E+02 -0.67186693845E+01  0.72082215158E+02  0.00000000000E+00 0.  1.
         22    1    3    3    0    0  0.44789327791E+02  0.26392048090E+02 -0.29442232870E+02  0.59745034628E+02  0.00000000000E+00 0.  1.
</event>
<event>
 7    1  0.6358809E-006  0.1511004E+03  0.7818608E-02  0.1276395E+00
          2   -1    0    0  502    0  0.00000000000E+00  0.00000000000E+00  0.12027545962E+04  0.12027545962E+04  0.00000000000E+00 0. -1.
          1   -1    0    0  501    0 -0.00000000000E+00 -0.00000000000E+00 -0.28729264133E+03  0.28729264133E+03  0.00000000000E+00 0. -1.
         25    2    1    2    0    0 -0.77490357220E+02  0.45412551145E+02 -0.47096792061E+02  0.16096804584E+03  0.12500219476E+03 0.  0.
          2    1    1    2  501    0 -0.68558366602E+02  0.42648308325E+01 -0.17141203276E+03  0.18466327028E+03  0.00000000000E+00 0. -1.
          1    1    1    2  502    0  0.14604872382E+03 -0.49677381977E+02  0.11339707797E+04  0.11444159214E+04  0.00000000000E+00 0. -1.
         22    1    3    3    0    0 -0.70299817306E+02 -0.61203017024E+01 -0.74118255971E+02  0.10233786335E+03  0.00000000000E+00 0. -1.
         22    1    3    3    0    0 -0.71905399141E+01  0.51532852847E+02  0.27021463910E+02  0.58630182489E+02  0.00000000000E+00 0. -1.
</event>
<event>
 7    1  0.6358809E-006  0.1971391E+03  0.7818608E-02  0.1242425E+00
          2   -1    0    0  502    0  0.00000000000E+00  0.00000000000E+00  0.95503838817E+03  0.95503838817E+03  0.00000000000E+00 0. -1.
          1   -1    0    0  501    0 -0.00000000000E+00 -0.00000000000E+00 -0.92530260101E+02  0.92530260101E+02  0.00000000000E+00 0. -1.
         25    2    1    2    0    0  0.20518550743E+03  0.18727925157E+02  0.31169748615E+03  0.39399577961E+03  0.12500209535E+03 0.  0.
          2    1    1    2  501    0 -0.18961603159E+03  0.53147582617E+02  0.15395917492E+03  0.24996466253E+03  0.00000000000E+00 0. -1.
          1    1    1    2  502    0 -0.15569475840E+02 -0.71875507774E+02  0.39685146700E+03  0.40360820613E+03  0.00000000000E+00 0. -1.
         22    1    3    3    0    0  0.69431571620E+02 -0.37867710048E+02  0.49315346770E+02  0.93202521580E+02  0.00000000000E+00 0.  1.
         22    1    3    3    0    0  0.13575393581E+03  0.56595635206E+02  0.26238213938E+03  0.30079325803E+03  0.00000000000E+00 0.  1.
</event>
<event>
 7    1  0.6358809E-006  0.6913980E+02  0.7818608E-02  0.1480045E+00
          2   -1    0    0  502    0  0.00000000000E+00  0.00000000000E+00  0.97893900590E+03  0.97893900590E+03  0.00000000000E+00 0. -1.
          1   -1    0    0  501    0 -0.00000000000E+00 -0.00000000000E+00 -0.56918393407E+02  0.56918393407E+02  0.00000000000E+00 0. -1.
         25    2    1    2    0    0  0.36194906362E+02  0.27991233051E+02  0.22158951035E+03  0.25849069597E+03  0.12498779312E+03 0.  0.
          2    1    1    2  501    0  0.27907280020E+02  0.35135917435E+01 -0.31343907199E+02  0.42114155857E+02  0.00000000000E+00 0. -1.
          1    1    1    2  502    0 -0.64102186383E+02 -0.31504824795E+02  0.73177500934E+03  0.73525254748E+03  0.00000000000E+00 0. -1.
         22    1    3    3    0    0 -0.30904854374E+02  0.36547233720E+02  0.16001352487E+03  0.16701837761E+03  0.00000000000E+00 0.  1.
         22    1    3    3    0    0  0.67099760737E+02 -0.85560006686E+01  0.61575985479E+02  0.91472318360E+02  0.00000000000E+00 0.  1.
</event>
<event>
 7    1  0.6358809E-006  0.1056935E+03  0.7818608E-02  0.1368106E+00
          2   -1    0    0  502    0  0.00000000000E+00  0.00000000000E+00  0.11105918092E+04  0.11105918092E+04  0.00000000000E+00 0. -1.
          1   -1    0    0  501    0 -0.00000000000E+00 -0.00000000000E+00 -0.13835192220E+04  0.13835192220E+04  0.00000000000E+00 0. -1.
         25    2    1    2    0    0  0.28461201317E+02  0.11534422470E+03  0.22957513369E+02  0.17396580966E+03  0.12499090110E+03 0.  0.
          2    1    1    2  501    0 -0.42013408062E+02 -0.10719508840E+02 -0.13049048580E+04  0.13056250314E+04  0.00000000000E+00 0. -1.
          1    1    1    2  502    0  0.13552206745E+02 -0.10462471586E+03  0.10090199318E+04  0.10145201902E+04  0.00000000000E+00 0. -1.
         22    1    3    3    0    0  0.31990162755E+02  0.96119686437E+02 -0.39340155077E+02  0.10867388111E+03  0.00000000000E+00 0.  1.
         22    1    3    3    0    0 -0.35289614382E+01  0.19224538264E+02  0.62297668447E+02  0.65291928553E+02  0.00000000000E+00 0.  1.
</event>
<event>
 7    1  0.6358809E-006  0.1972485E+03  0.7818608E-02  0.1162232E+00
          2   -1    0    0  502    0  0.00000000000E+00  0.00000000000E+00  0.12696646769E+04  0.12696646769E+04  0.00000000000E+00 0. -1.
          1   -1    0    0  501    0 -0.00000000000E+00 -0.00000000000E+00 -0.28966302105E+03  0.28966302105E+03  0.00000000000E+00 0. -1.
         25    2    1    2    0    0  0.15146981097E+02 -0.38927706480E+02  0.63675889066E+03  0.65025506438E+03  0.12499986620E+03 0.  0.
          2    1    1    2  501    0  0.51886187630E+02  0.20075849983E+03 -0.22999624601E+03  0.30966824975E+03  0.00000000000E+00 0. -1.
          1    1    1    2  502    0 -0.67033168727E+02 -0.16183079335E+03  0.57323901116E+03  0.59940438378E+03  0.00000000000E+00 0. -1.
         22    1    3    3    0    0  0.44106619747E+02 -0.32528735560E+02  0.11230948985E+03  0.12496773205E+03  0.00000000000E+00 0. -1.
         22    1    3    3    0    0 -0.28959638650E+02 -0.63989709200E+01  0.52444940081E+03  0.52528733234E+03  0.00000000000E+00 0. -1.
</event>
<event>
 7    1  0.6358809E-006  0.9671442E+02  0.7818608E-02  0.1327469E+00
          2   -1    0    0  502    0  0.00000000000E+00  0.00000000000E+00  0.14601560241E+04  0.14601560241E+04  0.00000000000E+00 0. -1.
          1   -1    0    0  501    0 -0.00000000000E+00 -0.00000000000E+00 -0.36232498972E+03  0.36232498972E+03  0.00000000000E+00 0. -1.
         25    2    1    2    0    0 -0.14622733948E+03  0.20841177407E+02 -0.12075087089E+03  0.22811251494E+03  0.12505101824E+03 0.  0.
          2    1    1    2  501    0  0.80560852726E+02 -0.34656600134E+02 -0.17680952953E+03  0.19736448682E+03  0.00000000000E+00 0. -1.
          1    1    1    2  502    0  0.65666486758E+02  0.13815422727E+02  0.13953914348E+04  0.13970040120E+04  0.00000000000E+00 0. -1.
         22    1    3    3    0    0 -0.92022671721E+02  0.73594685667E+02 -0.76353720958E+02  0.14040740925E+03  0.00000000000E+00 0.  1.
         22    1    3    3    0    0 -0.54204667763E+02 -0.52753508260E+02 -0.44397149930E+02  0.87705105684E+02  0.00000000000E+00 0.  1.
</event>
<event>
 7    1  0.6358809E-006  0.1127396E+03  0.7818608E-02  0.1433532E+00
          2   -1    0    0  502    0  0.00000000000E+00  0.00000000000E+00  0.35468539221E+03  0.35468539221E+03  0.00000000000E+00 0. -1.
          1   -1    0    0  501    0 -0.00000000000E+00 -0.00000000000E+00 -0.70294893688E+03  0.70294893688E+03  0.00000000000E+00 0. -1.
         25    2    1    2    0    0 -0.10646511232E+03 -0.28717430746E+02  0.11048280419E+03  0.19997183090E+03  0.12499108833E+03 0.  0.
          2    1    1    2  501    0  0.11276870760E+03  0.53294479641E+01 -0.65260425942E+03  0.66229714165E+03  0.00000000000E+00 0. -1.
          1    1    1    2  502    0 -0.63035952737E+01  0.23387982782E+02  0.19385791056E+03  0.19536535655E+03  0.00000000000E+00 0. -1.
         22    1    3    3    0    0 -0.12926270600E+03 -0.64239322112E+01  0.10694325685E+03  0.16788976816E+03  0.00000000000E+00 0. -1.
         22    1    3    3    0    0  0.22797593676E+02 -0.22293498535E+02  0.35395473408E+01  0.32082062741E+02  0.00000000000E+00 0. -1.
</event>
<event>
 7    1  0.6358809E-006  0.1599192E+03  0.7818608E-02  0.1288421E+00
          2   -1    0    0  502    0  0.00000000000E+00  0.00000000000E+00  0.28193016898E+03  0.28193016898E+03  0.00000000000E+00 0. -1.
          1   -1    0    0  501    0 -0.00000000000E+00 -0.00000000000E+00 -0.14212391624E+04  0.14212391624E+04  0.00000000000E+00 0. -1.
         25    2    1    2    0    0  0.11456482203E+03  0.59046047155E+02 -0.49836513101E+03  0.52972086151E+03  0.12499941272E+03 0.  0.
          2    1    1    2  501    0 -0.27871516830E+01  0.57843273878E+02 -0.88159754998E+03  0.88349751142E+03  0.00000000000E+00 0. -1.
          1    1    1    2  502    0 -0.11177767034E+03 -0.11688932103E+03  0.24065368758E+03  0.28995095845E+03  0.00000000000E+00 0. -1.
         22    1    3    3    0    0  0.93155269673E+02  0.66674620835E+02 -0.49331091291E+03  0.50643762314E+03  0.00000000000E+00 0.  1.
         22    1    3    3    0    0  0.21409552355E+02 -0.76285736803E+01 -0.50542180974E+01  0.23283238371E+02  0.00000000000E+00 0.  1.
</event>
<event>
 7    1  0.6358809E-006  0.6246380E+02  0.7818608E-02  0.1396066E+00
          2   -1    0    0  502    0  0.00000000000E+00  0.00000000000E+00  0.17274636173E+03  0.17274636173E+03  0.00000000000E+00 0. -1.
          1   -1    0    0  501    0 -0.00000000000E+00 -0.00000000000E+00 -0.81590052407E+03  0.81590052407E+03  0.00000000000E+00 0. -1.
         25    2    1    2    0    0  0.38713336424E+02 -0.31212614316E+02 -0.56386189607E+02  0.14586673222E+03  0.12499900592E+03 0.  0.
          2    1    1    2  501    0  0.22699265903E+02  0.53860782006E+02 -0.70511744731E+03  0.70753576236E+03  0.00000000000E+00 0. -1.
          1    1    1    2  502    0 -0.61412602327E+02 -0.22648167690E+02  0.11834947457E+03  0.13524439122E+03  0.00000000000E+00 0. -1.
         22    1    3    3    0    0  0.73349138973E+02 -0.52832516424E+02 -0.23394666766E+02  0.93373879714E+02  0.00000000000E+00 0. -1.
         22    1    3    3    0    0 -0.34635802549E+02  0.21619902108E+02 -0.32991522840E+02  0.52492852511E+02  0.00000000000E+00 0. -1.
</event>
<event>
 7    1  0.6358809E-006  0.7541940E+02  0.7818608E-02  0.1501147E+00
          2   -1    0    0  502    0  0.00000000000E+00  0.00000000000E+00  0.58612509485E+03  0.58612509485E+03  0.00000000000E+00 0. -1.
          1   -1    0    0  501    0 -0.00000000000E+00 -0.00000000000E+00 -0.11137426769E+04  0.11137426769E+04  0.00000000000E+00 0. -1.
         25    2    1    2    0    0  0.93115443259E+02 -0.20845903046E+02  0.12301918564E+02  0.15773956869E+03  0.12500158753E+03 0.  0.
          2    1    1    2  501    0 -0.22138893396E+02 -0.23476859275E+01 -0.10381221799E+04  0.10383608730E+04  0.00000000000E+00 0. -1.
          1    1    1    2  502    0 -0.70976549863E+02  0.23193588973E+02  0.49820267927E+03  0.50376733005E+03  0.00000000000E+00 0. -1.
         22    1    3    3    0    0  0.14431907458E+02 -0.74367090008E+01 -0.52484295240E+02  0.54938018170E+02  0.00000000000E+00 0. -1.
         22    1    3    3    0    0  0.78683535801E+02 -0.13409194045E+02  0.64786213803E+02  0.10280155052E+03  0.00000000000E+00 0. -1.
</event>
<event>
 7    1  0.6358809E-006  0.7194033E+02  0.7818608E-02  0.1508008E+00
          2   -1    0    0  502    0  0.00000000000E+00  0.00000000000E+00  0.11937455232E+04  0.11937455232E+04  0.00000000000E+00 0. -1.
          1   -1    0    0  501    0 -0.00000000000E+00 -0.00000000000E+00 -0.63613779532E+03  0.63613779532E+03  0.00000000000E+00 0. -1.
         25    2    1    2    0    0 -0.56199928665E+02  0.47205581953E+02 -0.80605679482E+02  0.16583027828E+03  0.12496242107E+03 0.  0.
          2    1    1    2  501    0  0.38589722647E+02 -0.60839921279E+02 -0.51028136522E+03  0.51534234680E+03  0.00000000000E+00 0. -1.
          1    1    1    2  502    0  0.17610206018E+02  0.13634339326E+02  0.11484947726E+04  0.11487106934E+04  0.00000000000E+00 0. -1.
         22    1    3    3    0    0 -0.25913208088E+02  0.35511776055E+01  0.31993970329E+02  0.41324561138E+02  0.00000000000E+00 0.  1.
         22    1    3    3    0    0 -0.30286720577E+02  0.43654404348E+02 -0.11259964981E+03  0.12450571714E+03  0.00000000000E+00 0.  1.
</event>
<event>
 7    1  0.6358809E-006  0.5463725E+02  0.7818608E-02  0.1450046E+00
          2   -1    0    0  502    0  0.00000000000E+00  0.00000000000E+00  0.30319461667E+04  0.30319461667E+04  0.00000000000E+00 0. -1.
          1   -1    0    0  501    0 -0.00000000000E+00 -0.00000000000E+00 -0.18992102749E+02  0.18992102749E+02  0.00000000000E+00 0. -1.
         25    2    1    2    0    0  0.31156491685E+02 -0.50728810622E+02  0.12282152787E+04  0.12359945817E+04  0.12500278368E+03 0.  0.
          2    1    1    2  501    0  0.23154042608E+02  0.37641432301E+02  0.18642138202E+02  0.47963699101E+02  0.00000000000E+00 0. -1.
          1    1    1    2  502    0 -0.54310534293E+02  0.13087378321E+02  0.17660966471E+04  0.17669799887E+04  0.00000000000E+00 0. -1.
         22    1    3    3    0    0  0.12586735230E+02 -0.43713467572E+02  0.13234638980E+03  0.13994591828E+03  0.00000000000E+00 0. -1.
         22    1    3    3    0    0  0.18569756455E+02 -0.70153430500E+01  0.10958688889E+04  0.10960486634E+04  0.00000000000E+00 0. -1.
</event>
<event>
 7    1  0.6358809E-006  0.1480865E+03  0.7818608E-02  0.1256015E+00
          2   -1    0    0  502    0  0.00000000000E+00  0.00000000000E+00  0.11851008480E+04  0.11851008480E+04  0.00000000000E+00 0. -1.
          1   -1    0    0  501    0 -0.00000000000E+00 -0.00000000000E+00 -0.23325690022E+04  0.23325690022E+04  0.00000000000E+00 0. -1.
         25    2    1    2    0    0 -0.67425879588E+02  0.35143164975E+02  0.40833625360E+03  0.43375699918E+03  0.12500138819E+03 0.  0.
          2    1    1    2  501    0  0.14833651700E+03 -0.76306741658E+01 -0.23150814842E+04  0.23198414230E+04  0.00000000000E+00 0. -1.
          1    1    1    2  502    0 -0.80910637410E+02 -0.27512490809E+02  0.75927707634E+03  0.76407142797E+03  0.00000000000E+00 0. -1.
         22    1    3    3    0    0 -0.13763293180E+02  0.38481009946E+02  0.27767545599E+02  0.49409037171E+02  0.00000000000E+00 0. -1.
         22    1    3    3    0    0 -0.53662586409E+02 -0.33378449706E+01  0.38056870800E+03  0.38434796201E+03  0.00000000000E+00 0. -1.
</event>
<event>
 7    1  0.6358809E-006  0.9347890E+02  0.7818608E-02  0.1334785E+00
          2   -1    0    0  502    0  0.00000000000E+00  0.00000000000E+00  0.82418135412E+03  0.82418135412E+03  0.00000000000E+00 0. -1.
          1   -1    0    0  501    0 -0.00000000000E+00 -0.00000000000E+00 -0.26532264616E+04  0.26532264616E+04  0.00000000000E+00 0. -1.
         25    2    1    2    0    0 -0.12282098287E+03 -0.70128757887E+02 -0.34651921908E+03  0.39458989140E+03  0.12499030638E+03 0.  0.
          2    1    1    2  501    0  0.30473954227E+02  0.57534495445E+02 -0.22794914668E+04  0.22804210636E+04  0.00000000000E+00 0. -1.
          1    1    1    2  502    0  0.92347028646E+02  0.12594262442E+02  0.79696557834E+03  0.80239686079E+03  0.00000000000E+00 0. -1.
         22    1    3    3    0    0 -0.40323015282E+02 -0.86156593114E+02 -0.12096478456E+03  0.15388756676E+03  0.00000000000E+00 0. -1.
         22    1    3    3    0    0 -0.82497967591E+02  0.16027835227E+02 -0.22555443452E+03  0.24070232464E+03  0.00000000000E+00 0. -1.
</event>
<event>
 7    1  0.6358809E-006  0.7406466E+02  0.7818608E-02  0.1505999E+00
          2   -1    0    0  502    0  0.00000000000E+00  0.00000000000E+00  0.17488913156E+04  0.17488913156E+04  0.00000000000E+00 0. -1.
          1   -1    0    0  501    0 -0.00000000000E+00 -0.00000000000E+00 -0.75296549709E+02  0.75296549709E+02  0.00000000000E+00 0. -1.
         25    2    1    2    0    0 -0.35663828713E+02 -0.46981963316E+02  0.11308228946E+03  0.17858313719E+03  0.12500047657E+03 0.  0.
          2    1    1    2  501    0 -0.21928620442E+02 -0.28559553958E+00 -0.38794027112E+02  0.44563690364E+02  0.00000000000E+00 0. -1.
          1    1    1    2  502    0  0.57592449155E+02  0.47267558855E+02  0.15993065035E+04  0.16010410377E+04  0.00000000000E+00 0. -1.
         22    1    3    3    0    0  0.11220538262E+02 -0.78186547346E+02  0.47634956530E+02  0.92239502104E+02  0.00000000000E+00 0.  1.
         22    1    3    3    0    0 -0.46884366975E+02  0.31204584030E+02  0.65447332931E+02  0.86343635081E+02  0.00000000000E+00 0.  1.
</event>
<event>
 7    1  0.6358809E-006  0.1874669E+03  0.7818608E-02  0.1173412E+00
          2   -1    0    0  502    0  0.00000000000E+00  0.00000000000E+00  0.25960941072E+04  0.25960941072E+04  0.00000000000E+00 0. -1.
          1   -1    0    0  501    0 -0.00000000000E+00 -0.00000000000E+00 -0.12901147060E+04  0.12901147060E+04  0.00000000000E+00 0. -1.
         25    2    1    2    0    0 -0.34159522295E+03 -0.67573932957E+02  0.79912691371E+03  0.88061539175E+03  0.12500444477E+03 0.  0.
          2    1    1    2  501    0  0.18218568806E+03  0.38145174736E+02 -0.12386612474E+04  0.12525687067E+04  0.00000000000E+00 0. -1.
          1    1    1    2  502    0  0.15940953489E+03  0.29428758221E+02  0.17455137349E+04  0.17530247147E+04  0.00000000000E+00 0. -1.
         22    1    3    3    0    0  0.85120368293E+01  0.32742779410E+00  0.52507179970E+02  0.53193664363E+02  0.00000000000E+00 0. -1.
         22    1    3    3    0    0 -0.35010725978E+03 -0.67901360751E+02  0.74661973374E+03  0.82742172738E+03  0.00000000000E+00 0. -1.
</event>
<event>
 7    1  0.6358809E-006  0.1987669E+03  0.7818608E-02  0.1273270E+00
          2   -1    0    0  502    0  0.00000000000E+00  0.00000000000E+00  0.78567590824E+03  0.78567590824E+03  0.00000000000E+00 0. -1.
          1   -1    0    0  501    0 -0.00000000000E+00 -0.00000000000E+00 -0.10069909351E+04  0.10069909351E+04  0.00000000000E+00 0. -1.
         25    2    1    2    0    0  0.14243488765E+02 -0.21929318741E+03 -0.44421338601E+02  0.25667252271E+03  0.12496059210E+03 0.  0.
          2    1    1    2  501    0  0.44101160845E+02  0.30827312116E+02 -0.84124677345E+03  0.84296581746E+03  0.00000000000E+00 0. -1.
          1    1    1    2  502    0 -0.58344649610E+02  0.18846587529E+03  0.66435308523E+03  0.69302850313E+03  0.00000000000E+00 0. -1.
         22    1    3    3    0    0  0.61833579030E+02 -0.61066765675E+02 -0.64983249924E+01  0.87147975268E+02  0.00000000000E+00 0.  1.
         22    1    3    3    0    0 -0.47590090265E+02 -0.15822642173E+03 -0.37923013608E+02  0.16952454745E+03  0.00000000000E+00 0.  1.
</event>
<event>
 7    1  0.6358809E-006  0.1781627E+03  0.7818608E-02  0.1311097E+00
          2   -1    0    0  502    0  0.00000000000E+00  0.00000000000E+00  0.16757760617E+04  0.16757760617E+04  0.00000000000E+00 0. -1.
          1   -1    0    0  501    0 -0.00000000000E+00 -0.00000000000E+00 -0.25235039803E+04  0.25235039803E+04  0.00000000000E+00 0. -1.
         25    2    1    2    0    0  0.20846680327E+03 -0.45650976065E+02 -0.84320859964E+02  0.26129968420E+03  0.12500039143E+03 0.  0.
          2    1    1    2  501    0 -0.16767123210E+03  0.56336193277E+02 -0.23470851479E+04  0.23537408736E+04  0.00000000000E+00 0. -1.
          1    1    1    2  502    0 -0.40795571166E+02 -0.10685217211E+02  0.15836780893E+04  0.15842394841E+04  0.00000000000E+00 0. -1.
         22    1    3    3    0    0  0.20160706532E+03 -0.37035881750E+02 -0.31553004621E+02  0.20739493105E+03  0.00000000000E+00 0.  1.
         22    1    3    3    0    0  0.68597379481E+01 -0.86150943148E+01 -0.52767855343E+02  0.53904753151E+02  0.00000000000E+00 0.  1.
</event>
<event>
 7    1  0.6358809E-006  0.1868469E+03  0.7818608E-02  0.1297507E+00
          2   -1    0    0  502    0  0.00000000000E+00  0.00000000000E+00  0.15257329643E+04  0.15257329643E+04  0.00000000000E+00 0. -1.
          1   -1    0    0  501    0 -0.00000000000E+00 -0.00000000000E+00 -0.18447649311E+04  0.18447649311E+04  0.00000000000E+00 0. -1.
         25    2    1    2    0    0  0.11798285810E+03 -0.85226601819E+02 -0.56740226781E+02  0.20006554937E+03  0.12499296879E+03 0.  0.
          2    1    1    2  501    0 -0.14671753281E+03  0.12055615620E+03 -0.17107507315E+04  0.17212576468E+04  0.00000000000E+00 0. -1.
          1    1    1    2  502    0  0.28734674711E+02 -0.35329554377E+02  0.14484589915E+04  0.14491746993E+04  0.00000000000E+00 0. -1.
         22    1    3    3    0    0  0.45032464183E+02 -0.98332941386E+02 -0.63869703998E+02  0.12560505277E+03  0.00000000000E+00 0.  1.
         22    1    3    3    0    0  0.72950393916E+02  0.13106339566E+02  0.71294772167E+01  0.74460496605E+02  0.00000000000E+00 0.  1.
</event>
<event>
 7    1  0.6358809E-006  0.7026979E+02  0.7818608E-02  0.1511290E+00
          2   -1    0    0  502    0  0.00000000000E+00  0.00000000000E+00  0.36787390152E+04  0.36787390152E+04  0.00000000000E+00 0. -1.
          1   -1    0    0  501    0 -0.00000000000E+00 -0.00000000000E+00 -0.80512894773E+03  0.80512894773E+03  0.00000000000E+00 0. -1.
         25    2    1    2    0    0 -0.81781052098E+02 -0.59655080703E+01 -0.17801507789E+03  0.23246195638E+03  0.12500186174E+03 0.  0.
          2    1    1    2  501    0  0.12631303207E+02  0.18376467335E+02 -0.59934514893E+03  0.59975982853E+03  0.00000000000E+00 0. -1.
          1    1    1    2  502    0  0.69149748892E+02 -0.12410959265E+02  0.36509702943E+04  0.36516461780E+04  0.00000000000E+00 0. -1.
         22    1    3    3    0    0  0.17369330371E+02 -0.38763460499E+02 -0.72343968577E+02  0.83892486534E+02  0.00000000000E+00 0.  1.
         22    1    3    3    0    0 -0.99150382470E+02  0.32797952428E+02 -0.10567110931E+03  0.14856946985E+03  0.00000000000E+00 0.  1.
</event>
<event>
 7    1  0.6358809E-006  0.8757704E+02  0.7818608E-02  0.1356703E+00
          2   -1    0    0  502    0  0.00000000000E+00  0.00000000000E+00  0.22646150157E+03  0.22646150157E+03  0.00000000000E+00 0. -1.
          1   -1    0    0  501    0 -0.00000000000E+00 -0.00000000000E+00 -0.91969798305E+03  0.91969798305E+03  0.00000000000E+00 0. -1.
         25    2    1    2    0    0 -0.43073808850E+02  0.16492199452E+02 -0.35051245583E+03  0.37498178305E+03  0.12500004109E+03 0.  0.
          2    1    1    2  501    0 -0.65670854147E+01  0.57195905400E+02 -0.54615996738E+03  0.54918595045E+03  0.00000000000E+00 0. -1.
          1    1    1    2  502    0  0.49640894264E+02 -0.73688104852E+02  0.20343594173E+03  0.22199175112E+03  0.00000000000E+00 0. -1.
         22    1    3    3    0    0  0.24367431630E+02 -0.32412938979E+02 -0.57526050209E+02  0.70381935112E+02  0.00000000000E+00 0. -1.
         22    1    3    3    0    0 -0.67441240480E+02  0.48905138431E+02 -0.29298640563E+03  0.30459984794E+03  0.00000000000E+00 0. -1.
</event>
<event>
 7    1  0.6358809E-006  0.2633280E+03  0.7818608E-02  0.1173031E+00
          2   -1    0    0  502    0  0.00000000000E+00  0.00000000000E+00  0.18539397141E+04  0.18539397141E+04  0.00000000000E+00 0. -1.
          1   -1    0    0  501    0 -0.00000000000E+00 -0.00000000000E+00 -0.92642132379E+03  0.92642132379E+03  0.00000000000E+00 0. -1.
         25    2    1    2    0    0  0.74562386652E+02  0.13552754550E+03  0.50407364636E+03  0.54188716390E+03  0.12499676940E+03 0.  0.
          2    1    1    2  501    0 -0.97187189496E+02 -0.24920256494E+03 -0.88518771820E+03  0.92471864079E+03  0.00000000000E+00 0. -1.
          1    1    1    2  502    0  0.22624802845E+02  0.11367501944E+03  0.13086324622E+04  0.13137552332E+04  0.00000000000E+00 0. -1.
         22    1    3    3    0    0  0.34250414507E+02  0.12906549616E+03  0.23974541830E+03  0.27442459581E+03  0.00000000000E+00 0.  1.
         22    1    3    3    0    0  0.40311972145E+02  0.64620493380E+01  0.26432822806E+03  0.26746256809E+03  0.00000000000E+00 0.  1.
</event>
<event>
 7    1  0.6358809E-006  0.7799665E+02  0.7818608E-02  0.1407714E+00
          2   -1    0    0  502    0  0.00000000000E+00  0.00000000000E+00  0.47678534445E+03  0.47678534445E+03  0.00000000000E+00 0. -1.
          1   -1    0    0  501    0 -0.00000000000E+00 -0.00000000000E+00 -0.16173038408E+04  0.16173038408E+04  0.00000000000E+00 0. -1.
         25    2    1    2    0    0 -0.40170286524E+02  0.10735301899E+03 -0.14788546939E+03  0.22501761111E+03  0.12499796257E+03 0.  0.
          2    1    1    2  501    0  0.41905883215E+02 -0.64692794464E+02 -0.14287710580E+04  0.14308486981E+04  0.00000000000E+00 0. -1.
          1    1    1    2  502    0 -0.17355966907E+01 -0.42660224523E+02  0.43613803099E+03  0.43822287609E+03  0.00000000000E+00 0. -1.
         22    1    3    3    0    0 -0.51945102008E+02  0.67420184703E+02 -0.15849593346E+02  0.86573578749E+02  0.00000000000E+00 0. -1.
         22    1    3    3    0    0  0.11774815485E+02  0.39932834284E+02 -0.13203587604E+03  0.13844403236E+03  0.00000000000E+00 0. -1.
</event>
<event>
 7    1  0.6358809E-006  0.5848990E+02  0.7818608E-02  0.1441661E+00
          2   -1    0    0  502    0  0.00000000000E+00  0.00000000000E+00  0.49643149917E+03  0.49643149917E+03  0.00000000000E+00 0. -1.
          1   -1    0    0  501    0 -0.00000000000E+00 -0.00000000000E+00 -0.49349272201E+03  0.49349272201E+03  0.00000000000E+00 0. -1.
         25    2    1    2    0    0  0.67977904744E+02  0.41593290280E+02  0.21832463890E+02  0.14984189141E+03  0.12499975445E+03 0.  0.
          2    1    1    2  501    0 -0.58270041286E+02  0.12488782647E+01 -0.42632458717E+03  0.43029014750E+03  0.00000000000E+00 0. -1.
          1    1    1    2  502    0 -0.97078634578E+01 -0.42842168545E+02  0.40743090044E+03  0.40979218227E+03  0.00000000000E+00 0. -1.
         22    1    3    3    0    0 -0.21564247193E+02 -0.17214021541E+02  0.31977270721E+02  0.42236064417E+02  0.00000000000E+00 0.  1.
         22    1    3    3    0    0  0.89542151937E+02  0.58807311821E+02 -0.10144806831E+02  0.10760582699E+03  0.00000000000E+00 0.  1.
</event>
<event>
 7    1  0.6358809E-006  0.3224392E+02  0.7818608E-02  0.1618366E+00
          2   -1    0    0  502    0  0.00000000000E+00  0.00000000000E+00  0.86009719142E+03  0.86009719142E+03  0.00000000000E+00 0. -1.
          1   -1    0    0  501    0 -0.00000000000E+00 -0.00000000000E+00 -0.11968753072E+04  0.11968753072E+04  0.00000000000E+00 0. -1.
         25    2    1    2    0    0 -0.13892016731E+02 -0.25351207967E+01 -0.36829333031E+03  0.38919956505E+03  0.12504762818E+03 0.  0.
          2    1    1    2  501    0  0.27513537510E+02 -0.18115086259E+02 -0.81761705221E+03  0.81828038908E+03  0.00000000000E+00 0. -1.
          1    1    1    2  502    0 -0.13621520779E+02  0.20650207056E+02  0.84913226669E+03  0.84949254453E+03  0.00000000000E+00 0. -1.
         22    1    3    3    0    0 -0.32335025671E+02  0.20894353680E+01 -0.36875904373E+03  0.37017989135E+03  0.00000000000E+00 0.  1.
         22    1    3    3    0    0  0.18443008940E+02 -0.46245561647E+01  0.46571342256E+00  0.19019673695E+02  0.00000000000E+00 0.  1.
</event>
<event>
 7    1  0.6358809E-006  0.1494032E+03  0.7818608E-02  0.1387168E+00
          2   -1    0    0  502    0  0.00000000000E+00  0.00000000000E+00  0.20280584220E+04  0.20280584220E+04  0.00000000000E+00 0. -1.
          1   -1    0    0  501    0 -0.00000000000E+00 -0.00000000000E+00 -0.17960637359E+02  0.17960637359E+02  0.00000000000E+00 0. -1.
         25    2    1    2    0    0 -0.12701540806E+03 -0.53972534685E+02  0.81963874209E+03  0.84052297808E+03  0.12500104299E+03 0.  0.
          2    1    1    2  501    0  0.14747877893E+03  0.70403148410E+02  0.10087570999E+04  0.10219087435E+04  0.00000000000E+00 0. -1.
          1    1    1    2  502    0 -0.20463370863E+02 -0.16430613726E+02  0.18170194264E+03  0.18358733772E+03  0.00000000000E+00 0. -1.
         22    1    3    3    0    0 -0.47274105811E+02  0.17773868762E+02  0.91391522448E+02  0.10441820658E+03  0.00000000000E+00 0.  1.
         22    1    3    3    0    0 -0.79741302253E+02 -0.71746403446E+02  0.72824721964E+03  0.73610477149E+03  0.00000000000E+00 0.  1.
</event>
<event>
 7    1  0.6358809E-006  0.1641914E+03  0.7818608E-02  0.1266449E+00
          2   -1    0    0  502    0  0.00000000000E+00  0.00000000000E+00  0.69434191745E+03  0.69434191745E+03  0.00000000000E+00 0. -1.
          1   -1    0    0  501    0 -0.00000000000E+00 -0.00000000000E+00 -0.63328695794E+03  0.63328695794E+03  0.00000000000E+00 0. -1.
         25    2    1    2    0    0 -0.31884292800E+02  0.22368762948E+03 -0.68343883712E+02  0.26711086237E+03  0.12499825057E+03 0.  0.
          2    1    1    2  501    0  0.28612540331E+02 -0.63424743829E+02 -0.45205236538E+03  0.45737590300E+03  0.00000000000E+00 0. -1.
          1    1    1    2  502    0  0.32717524686E+01 -0.16026288565E+03  0.58145120861E+03  0.60314211002E+03  0.00000000000E+00 0. -1.
         22    1    3    3    0    0 -0.60604601905E+02  0.14957279695E+03 -0.89926627241E+02  0.18474776764E+03  0.00000000000E+00 0.  1.
         22    1    3    3    0    0  0.28720309105E+02  0.74114832533E+02  0.21582743530E+02  0.82363094737E+02  0.00000000000E+00 0.  1.
</event>
<event>
 7    1  0.6358809E-006  0.7912114E+02  0.7818608E-02  0.1336998E+00
          2   -1    0    0  502    0  0.00000000000E+00  0.00000000000E+00  0.60930911756E+03  0.60930911756E+03  0.00000000000E+00 0. -1.
          1   -1    0    0  501    0 -0.00000000000E+00 -0.00000000000E+00 -0.23546602621E+03  0.23546602621E+03  0.00000000000E+00 0. -1.
         25    2    1    2    0    0  0.32608923008E+02 -0.18511330851E+02  0.77496553509E+02  0.15179033412E+03  0.12501431317E+03 0.  0.
          2    1    1    2  501    0 -0.69384701135E+02 -0.47371085040E+02 -0.18635740412E+03  0.20441951600E+03  0.00000000000E+00 0. -1.
          1    1    1    2  502    0  0.36775778127E+02  0.65882415890E+02  0.48270394196E+03  0.48856529365E+03  0.00000000000E+00 0. -1.
         22    1    3    3    0    0  0.37264630760E+02  0.49379686458E+02  0.44200789436E+02  0.76031019506E+02  0.00000000000E+00 0.  1.
         22    1    3    3    0    0 -0.46557077518E+01 -0.67891017309E+02  0.33295764073E+02  0.75759314616E+02  0.00000000000E+00 0.  1.
</event>
<event>
 7    1  0.6358809E-006  0.6097548E+02  0.7818608E-02  0.1509580E+00
          2   -1    0    0  502    0  0.00000000000E+00  0.00000000000E+00  0.32753955713E+02  0.32753955713E+02  0.00000000000E+00 0. -1.
          1   -1    0    0  501    0 -0.00000000000E+00 -0.00000000000E+00 -0.90506612037E+03  0.90506612037E+03  0.00000000000E+00 0. -1.
         25    2    1    2    0    0 -0.35074143073E+02 -0.24883545637E+02 -0.54709602719E+03  0.56283955441E+03  0.12499965872E+03 0.  0.
          2    1    1    2  501    0  0.54527843044E+02  0.42129341025E+02 -0.33873889404E+03  0.34567644608E+03  0.00000000000E+00 0. -1.
          1    1    1    2  502    0 -0.19453699972E+02 -0.17245795388E+02  0.13522756573E+02  0.29304075595E+02  0.00000000000E+00 0. -1.
         22    1    3    3    0    0 -0.52476068690E+02  0.27585041510E+02 -0.14039472172E+03  0.15239865546E+03  0.00000000000E+00 0. -1.
         22    1    3    3    0    0  0.17401925617E+02 -0.52468587147E+02 -0.40670130547E+03  0.41044089894E+03  0.00000000000E+00 0. -1.
</event>
<event>
 7    1  0.6358809E-006  0.1058983E+03  0.7818608E-02  0.1304244E+00
          2   -1    0    0  502    0  0.00000000000E+00  0.00000000000E+00  0.52980531259E+03  0.52980531259E+03  0.00000000000E+00 0. -1.
          1   -1    0    0  501    0 -0.00000000000E+00 -0.00000000000E+00 -0.40908929629E+03  0.40908929629E+03  0.00000000000E+00 0. -1.
         25    2    1    2    0    0  0.50396780358E+01  0.14292948081E+03 -0.28851647721E+03  0.34542922866E+03  0.12500143819E+03 0.  0.
          2    1    1    2  501    0  0.52429012218E+02 -0.54352927137E+02 -0.69859946449E+02  0.10287591617E+03  0.00000000000E+00 0. -1.
          1    1    1    2  502    0 -0.57468690253E+02 -0.88576553669E+02  0.47909243995E+03  0.49058946405E+03  0.00000000000E+00 0. -1.
         22    1    3    3    0    0 -0.70084304196E+01  0.16480569976E+03 -0.25212742896E+03  0.30129433650E+03  0.00000000000E+00 0. -1.
         22    1    3    3    0    0  0.12048108455E+02 -0.21876218958E+02 -0.36389048247E+02  0.44134892155E+02  0.00000000000E+00 0. -1.
</event>
<event>
 7    1  0.6358809E-006  0.1341653E+03  0.7818608E-02  0.1263616E+00
          2   -1    0    0  502    0  0.00000000000E+00  0.00000000000E+00  0.55702886361E+03  0.55702886361E+03  0.00000000000E+00 0. -1.
          1   -1    0    0  501    0 -0.00000000000E+00 -0.00000000000E+00 -0.12729232293E+04  0.12729232293E+04  0.00000000000E+00 0. -1.
         25    2    1    2    0    0  0.13081772040E+03  0.10971324113E+02  0.24841905978E+03  0.30752344674E+03  0.12499998043E+03 0.  0.
          2    1    1    2  501    0 -0.19970993639E+02  0.85227444662E+02 -0.12223989139E+04  0.12255291357E+04  0.00000000000E+00 0. -1.
          1    1    1    2  502    0 -0.11084672676E+03 -0.96198768775E+02  0.25808548842E+03  0.29689951040E+03  0.00000000000E+00 0. -1.
         22    1    3    3    0    0 -0.19622423889E+02  0.12263416241E+02  0.91420609194E+01  0.24879874900E+02  0.00000000000E+00 0.  1.
         22    1    3    3    0    0  0.15044014429E+03 -0.12920921281E+01  0.23927699887E+03  0.28264357184E+03  0.00000000000E+00 0.  1.
</event>
<event>
 7    1  0.6358809E-006  0.3953999E+02  0.7818608E-02  0.1608767E+00
          2   -1    0    0  502    0  0.00000000000E+00  0.00000000000E+00  0.11851961267E+04  0.11851961267E+04  0.00000000000E+00 0. -1.
          1   -1    0    0  501    0 -0.00000000000E+00 -0.00000000000E+00 -0.80421154156E+03  0.80421154156E+03  0.00000000000E+00 0. -1.
         25    2    1    2    0    0 -0.18580344618E+02 -0.56122345778E+02  0.50350078023E+03  0.52214263155E+03  0.12499978035E+03 0.  0.
          2    1    1    2  501    0  0.56748970385E+01  0.39112553376E+02 -0.79422962057E+03  0.79521235308E+03  0.00000000000E+00 0. -1.
          1    1    1    2  502    0  0.12905447579E+02  0.17009792402E+02  0.67171342553E+03  0.67205268369E+03  0.00000000000E+00 0. -1.
         22    1    3    3    0    0  0.32047813078E+02 -0.37065122239E+02  0.70967426640E+02  0.86239557360E+02  0.00000000000E+00 0.  1.
         22    1    3    3    0    0 -0.50628157696E+02 -0.19057223538E+02  0.43253335359E+03  0.43590307419E+03  0.00000000000E+00 0.  1.
</event>
<event>
 7    1  0.6358809E-006  0.8169583E+02  0.7818608E-02  0.1418058E+00
          2   -1    0    0  502    0  0.00000000000E+00  0.00000000000E+00  0.10380776912E+03  0.10380776912E+03  0.00000000000E+00 0. -1.
          1   -1    0    0  501    0 -0.00000000000E+00 -0.00000000000E+00 -0.16827155680E+04  0.16827155680E+04  0.00000000000E+00 0. -1.
         25    2    1    2    0    0 -0.11379223045E+03  0.94691654896E+01 -0.28661786009E+03  0.33288824825E+03  0.12500580505E+03 0.  0.
          2    1    1    2  501    0  0.79841490741E+02  0.67224881644E+01 -0.13673405963E+04  0.13696861545E+04  0.00000000000E+00 0. -1.
          1    1    1    2  502    0  0.33950739710E+02 -0.16191653654E+02  0.75050657562E+02  0.83948934332E+02  0.00000000000E+00 0. -1.
         22    1    3    3    0    0 -0.12989101982E+03 -0.23809357052E+02 -0.21569166493E+03  0.25290602372E+03  0.00000000000E+00 0.  1.
         22    1    3    3    0    0  0.16098789370E+02  0.33278522542E+02 -0.70926195153E+02  0.79982224529E+02  0.00000000000E+00 0.  1.
</event>
<event>
 7    1  0.6358809E-006  0.9018565E+02  0.7818608E-02  0.1402279E+00
          2   -1    0    0  502    0  0.00000000000E+00  0.00000000000E+00  0.29939967320E+04  0.29939967320E+04  0.00000000000E+00 0. -1.
          1   -1    0    0  501    0 -0.00000000000E+00 -0.00000000000E+00 -0.28290560814E+03  0.28290560814E+03  0.00000000000E+00 0. -1.
         25    2    1    2    0    0  0.25706652765E+02  0.51214478643E+02 -0.12066361837E+03  0.18294146607E+03  0.12499646551E+03 0.  0.
          2    1    1    2  501    0 -0.87622517001E+01  0.37527145996E+02 -0.12756686200E+03  0.13326052688E+03  0.00000000000E+00 0. -1.
          1    1    1    2  502    0 -0.16944401065E+02 -0.88741624639E+02  0.29593216042E+04  0.29607003472E+04  0.00000000000E+00 0. -1.
         22    1    3    3    0    0 -0.45587932545E+02  0.29096970799E+02 -0.83679871589E+02  0.99635406421E+02  0.00000000000E+00 0. -1.
         22    1    3    3    0    0  0.71294585310E+02  0.22117507844E+02 -0.36983746780E+02  0.83306059645E+02  0.00000000000E+00 0. -1.
</event>
<event>
 7    1  0.6358809E-006  0.1125428E+03  0.7818608E-02  0.1267457E+00
          2   -1    0    0  502    0  0.00000000000E+00  0.00000000000E+00  0.32721166139E+04  0.32721166139E+04  0.00000000000E+00 0. -1.
          1   -1    0    0  501    0 -0.00000000000E+00 -0.00000000000E+00 -0.14166232613E+04  0.14166232613E+04  0.00000000000E+00 0. -1.
         25    2    1    2    0    0 -0.67106154430E+02 -0.28156143445E+02  0.10222010065E+04  0.10323835547E+04  0.12499960821E+03 0.  0.
          2    1    1    2  501    0 -0.22347680628E+02  0.11030167294E+03 -0.14076417864E+04  0.14121335903E+04  0.00000000000E+00 0. -1.
          1    1    1    2  502    0  0.89453835058E+02 -0.82145529500E+02  0.22409341325E+04  0.22442227302E+04  0.00000000000E+00 0. -1.
         22    1    3    3    0    0 -0.10159072499E+03 -0.36617757680E+02  0.82127571726E+03  0.82834493983E+03  0.00000000000E+00 0.  1.
         22    1    3    3    0    0  0.34484570559E+02  0.84616142356E+01  0.20092528921E+03  0.20403861489E+03  0.00000000000E+00 0.  1.
</event>
<event>
 7    1  0.6358809E-006  0.1047852E+03  0.7818608E-02  0.1339023E+00
          2   -1    0    0  502    0  0.00000000000E+00  0.00000000000E+00  0.28172304384E+03  0.28172304384E+03  0.00000000000E+00 0. -1.
          1   -1    0    0  501    0 -0.00000000000E+00 -0.00000000000E+00 -0.37252652186E+03  0.37252652186E+03  0.00000000000E+00 0. -1.
         25    2    1    2    0    0 -0.15512764608E+03 -0.12902743821E+02  0.13524157217E+02  0.20010148086E+03  0.12500652958E+03 0.  0.
          2    1    1    2  501    0  0.10043602301E+03  0.96932191927E+00 -0.26532315549E+03  0.28369827483E+03  0.00000000000E+00 0. -1.
          1    1    1    2  502    0  0.54691623070E+02  0.11933421902E+02  0.16099552025E+03  0.17044981002E+03  0.00000000000E+00 0. -1.
         22    1    3    3    0    0  0.95004898283E+00 -0.34707397599E+02  0.23924865446E+02  0.42165213480E+02  0.00000000000E+00 0.  1.
         22    1    3    3    0    0 -0.15607769506E+03  0.21804653778E+02 -0.10400708229E+02  0.15793626738E+03  0.00000000000E+00 0.  1.
</event>
<event>
 7    1  0.6358809E-006  0.4812576E+02  0.7818608E-02  0.1556299E+00
          2   -1    0    0  502    0  0.00000000000E+00  0.00000000000E+00  0.91083561343E+02  0.91083561343E+02  0.00000000000E+00 0. -1.
          1   -1    0    0  501    0 -0.00000000000E+00 -0.00000000000E+00 -0.67711113091E+03  0.67711113091E+03  0.00000000000E+00 0. -1.
         25    2    1    2    0    0  0.31337495495E+02  0.37752659505E+02 -0.77644394783E+01  0.13447357088E+03  0.12496220557E+03 0.  0.
          2    1    1    2  501    0 -0.44857239643E+02 -0.17645211032E+02 -0.59954035285E+03  0.60147498711E+03  0.00000000000E+00 0. -1.
          1    1    1    2  502    0  0.13519744148E+02 -0.20107448473E+02  0.21277222770E+02  0.32246134260E+02  0.00000000000E+00 0. -1.
         22    1    3    3    0    0  0.70123601763E+02  0.48169989629E+02 -0.27920082726E+02  0.89538809711E+02  0.00000000000E+00 0.  1.
         22    1    3    3    0    0 -0.38786106268E+02 -0.10417330124E+02  0.20155643247E+02  0.44934761166E+02  0.00000000000E+00 0.  1.
</event>
<event>
 7    1  0.6358809E-006  0.1065929E+03  0.7818608E-02  0.1357085E+00
          2   -1    0    0  502    0  0.00000000000E+00  0.00000000000E+00  0.14655197159E+04  0.14655197159E+04  0.00000000000E+00 0. -1.
          1   -1    0    0  501    0 -0.00000000000E+00 -0.00000000000E+00 -0.60173711721E+02  0.60173711721E+02  0.00000000000E+00 0. -1.
         25    2    1    2    0    0  0.95130213971E+02  0.61563008647E+02  0.17167155091E+03  0.24070217517E+03  0.12500661621E+03 0.  0.
          2    1    1    2  501    0 -0.57328945923E+02 -0.89741827686E+02  0.87445540275E+02  0.13779305567E+03  0.00000000000E+00 0. -1.
          1    1    1    2  502    0 -0.37801268048E+02  0.28178819039E+02  0.11462289130E+04  0.11471981967E+04  0.00000000000E+00 0. -1.
         22    1    3    3    0    0  0.11155230267E+03  0.84894952682E+02  0.14338663883E+03  0.20052630105E+03  0.00000000000E+00 0. -1.
         22    1    3    3    0    0 -0.16422088694E+02 -0.23331944035E+02  0.28284912084E+02  0.40175874118E+02  0.00000000000E+00 0. -1.
</event>
<event>
 7    1  0.6358809E-006  0.9718428E+02  0.7818608E-02  0.1453580E+00
          2   -1    0    0  502    0  0.00000000000E+00  0.00000000000E+00  0.88418411071E+03  0.88418411071E+03  0.00000000000E+00 0. -1.
          1   -1    0    0  501    0 -0.00000000000E+00 -0.00000000000E+00 -0.99033621849E+02  0.99033621849E+02  0.00000000000E+00 0. -1.
         25    2    1    2    0    0  0.77891642692E+02  0.91217305809E+02  0.52223380567E+03  0.55021846209E+03  0.12499801344E+03 0.  0.
          2    1    1    2  501    0 -0.64864254616E+02 -0.70813207067E+02 -0.57328018083E+02  0.11184088465E+03  0.00000000000E+00 0. -1.
          1    1    1    2  502    0 -0.13027388076E+02 -0.20404098743E+02  0.32024470128E+03  0.32115838582E+03  0.00000000000E+00 0. -1.
         22    1    3    3    0    0  0.14008964531E+02  0.89068021200E+02  0.17199545096E+03  0.19419525906E+03  0.00000000000E+00 0. -1.
         22    1    3    3    0    0  0.63882678161E+02  0.21492846093E+01  0.35023835470E+03  0.35602320303E+03  0.00000000000E+00 0. -1.
</event>
<event>
 7    1  0.6358809E-006  0.1427724E+03  0.7818608E-02  0.1287288E+00
          2   -1    0    0  502    0  0.00000000000E+00  0.00000000000E+00  0.55319599478E+03  0.55319599478E+03  0.00000000000E+00 0. -1.
          1   -1    0    0  501    0 -0.00000000000E+00 -0.00000000000E+00 -0.14935821246E+04  0.14935821246E+04  0.00000000000E+00 0. -1.
         25    2    1    2    0    0  0.90582636004E+02 -0.11729763764E+03  0.86017211637E+02  0.21210124139E+03  0.12499610457E+03 0.  0.
          2    1    1    2  501    0 -0.12810160633E+03  0.63535666245E+02 -0.14242776002E+04  0.14314375589E+04  0.00000000000E+00 0. -1.
          1    1    1    2  502    0  0.37518970325E+02  0.53761971396E+02  0.39787425877E+03  0.40323931913E+03  0.00000000000E+00 0. -1.
         22    1    3    3    0    0  0.87624497591E+02 -0.99866137723E+02  0.11660498021E+03  0.17677109337E+03  0.00000000000E+00 0. -1.
         22    1    3    3    0    0  0.29581384122E+01 -0.17431499919E+02 -0.30587768575E+02  0.35330148014E+02  0.00000000000E+00 0. -1.
</event>
<event>
 7    1  0.6358809E-006  0.5481440E+02  0.7818608E-02  0.1488321E+00
          2   -1    0    0  502    0  0.00000000000E+00  0.00000000000E+00  0.71748087595E+03  0.71748087595E+03  0.00000000000E+00 0. -1.
          1   -1    0    0  501    0 -0.00000000000E+00 -0.00000000000E+00 -0.34355553322E+03  0.34355553322E+03  0.00000000000E+00 0. -1.
         25    2    1    2    0    0 -0.11324291721E+02 -0.62843712403E+02  0.48874158827E+03  0.50849735438E+03  0.12499459000E+03 0.  0.
          2    1    1    2  501    0 -0.24741334519E+02  0.22549231390E+02 -0.32947610685E+03  0.33117232139E+03  0.00000000000E+00 0. -1.
          1    1    1    2  502    0  0.36065626240E+02  0.40294481013E+02  0.21465986131E+03  0.22136673340E+03  0.00000000000E+00 0. -1.
         22    1    3    3    0    0 -0.29616495577E+02  0.29774102008E+02  0.21131447065E+03  0.21544706883E+03  0.00000000000E+00 0. -1.
         22    1    3    3    0    0  0.18292203856E+02 -0.92617814411E+02  0.27742711762E+03  0.29305028555E+03  0.00000000000E+00 0. -1.
</event>
<event>
 7    1  0.6358809E-006  0.4447526E+02  0.7818608E-02  0.1564893E+00
          2   -1    0    0  502    0  0.00000000000E+00  0.00000000000E+00  0.15973074091E+04  0.15973074091E+04  0.00000000000E+00 0. -1.
          1   -1    0    0  501    0 -0.00000000000E+00 -0.00000000000E+00 -0.57632477075E+03  0.57632477075E+03  0.00000000000E+00 0. -1.
         25    2    1    2    0    0 -0.59006052473E+02  0.34629940321E+02 -0.37447655659E+02  0.14733882555E+03  0.12500182240E+03 0.  0.
          2    1    1    2  501    0  0.18412158085E+02 -0.16658790796E+02 -0.48329330730E+03  0.48393072207E+03  0.00000000000E+00 0. -1.
          1    1    1    2  502    0  0.40593894388E+02 -0.17971149526E+02  0.15417236013E+04  0.15423626322E+04  0.00000000000E+00 0. -1.
         22    1    3    3    0    0 -0.27366130226E+02  0.44879385821E+02  0.38015999707E+02  0.64871261657E+02  0.00000000000E+00 0. -1.
         22    1    3    3    0    0 -0.31639922246E+02 -0.10249445500E+02 -0.75463655365E+02  0.82467563890E+02  0.00000000000E+00 0. -1.
</event>
<event>
 7    1  0.6358809E-006  0.6117677E+02  0.7818608E-02  0.1429168E+00
          2   -1    0    0  502    0  0.00000000000E+00  0.00000000000E+00  0.39083847893E+03  0.39083847893E+03  0.00000000000E+00 0. -1.
          1   -1    0    0  501    0 -0.00000000000E+00 -0.00000000000E+00 -0.10463967906E+04  0.10463967906E+04  0.00000000000E+00 0. -1.
         25    2    1    2    0    0  0.90406340144E+01 -0.30629226311E+02 -0.46853407856E+03  0.48597250281E+03  0.12500083259E+03 0.  0.
          2    1    1    2  501    0  0.19954682935E+02  0.66516371307E+02 -0.56561948769E+03  0.56986667026E+03  0.00000000000E+00 0. -1.
          1    1    1    2  502    0 -0.28995316949E+02 -0.35887144995E+02  0.37859525459E+03  0.38139609644E+03  0.00000000000E+00 0. -1.
         22    1    3    3    0    0 -0.45745725866E+02 -0.18054099568E+02 -0.83889309861E+02  0.97242162950E+02  0.00000000000E+00 0.  1.
         22    1    3    3    0    0  0.54786359880E+02 -0.12575126743E+02 -0.38464476870E+03  0.38873033986E+03  0.00000000000E+00 0.  1.
</event>
<event>
 7    1  0.6358809E-006  0.1320370E+03  0.7818608E-02  0.1367166E+00
          2   -1    0    0  502    0  0.00000000000E+00  0.00000000000E+00  0.12028931622E+04  0.12028931622E+04  0.00000000000E+00 0. -1.
          1   -1    0    0  501    0 -0.00000000000E+00 -0.00000000000E+00 -0.24504343852E+03  0.24504343852E+03  0.00000000000E+00 0. -1.
         25    2    1    2    0    0  0.89410260459E+02 -0.12985525122E+03  0.39703142735E+03  0.44510172346E+03  0.12500003590E+03 0.  0.
          2    1    1    2  501    0 -0.90234255116E+02  0.94884127847E+02 -0.20117744518E+03  0.24003662838E+03  0.00000000000E+00 0. -1.
          1    1    1    2  502    0  0.82399465689E+00  0.34971123371E+02  0.76199574147E+03  0.76279824886E+03  0.00000000000E+00 0. -1.
         22    1    3    3    0    0  0.68457149808E+02 -0.12961507421E+03  0.20546791414E+03  0.25239554783E+03  0.00000000000E+00 0. -1.
         22    1    3    3    0    0  0.20953110651E+02 -0.24017700819E+00  0.19156351321E+03  0.19270617563E+03  0.00000000000E+00 0. -1.
</event>
<event>
 7    1  0.6358809E-006  0.1550171E+03  0.7818608E-02  0.1208197E+00
          2   -1    0    0  502    0  0.00000000000E+00  0.00000000000E+00  0.10834261753E+04  0.10834261753E+04  0.00000000000E+00 0. -1.
          1   -1    0    0  501    0 -0.00000000000E+00 -0.00000000000E+00 -0.49715792119E+03  0.49715792119E+03  0.00000000000E+00 0. -1.
         25    2    1    2    0    0  0.24661956659E+03  0.88606969701E+02 -0.10150877564E+03  0.30757358942E+03  0.12500030270E+03 0.  0.
          2    1    1    2  501    0 -0.13292593406E+03  0.12883578608E+02 -0.27104073545E+03  0.30215620268E+03  0.00000000000E+00 0. -1.
          1    1    1    2  502    0 -0.11369363253E+03 -0.10149054831E+03  0.95881776521E+03  0.97085430439E+03  0.00000000000E+00 0. -1.
         22    1    3    3    0    0  0.20386597713E+03  0.12057453065E+03 -0.79635007134E+02  0.24988254927E+03  0.00000000000E+00 0. -1.
         22    1    3    3    0    0  0.42753589466E+02 -0.31967560946E+02 -0.21873768502E+02  0.57691040150E+02  0.00000000000E+00 0. -1.
</event>
<event>
 7    1  0.6358809E-006  0.1682741E+03  0.7818608E-02  0.1334627E+00
          2   -1    0    0  502    0  0.00000000000E+00  0.00000000000E+00  0.19035343246E+03  0.19035343246E+03  0.00000000000E+00 0. -1.
          1   -1    0    0  501    0 -0.00000000000E+00 -0.00000000000E+00 -0.16978116132E+04  0.16978116132E+04  0.00000000000E+00 0. -1.
         25    2    1    2    0    0  0.41670137069E+02  0.15506395577E+03  0.63639603836E+01  0.20358450526E+03  0.12499968036E+03 0.  0.
          2    1    1    2  501    0  0.36004198325E+02  0.39287051818E+01 -0.15070645392E+04  0.15074996724E+04  0.00000000000E+00 0. -1.
          1    1    1    2  502    0 -0.77674335395E+02 -0.15899266095E+03 -0.67576019115E+01  0.17708086796E+03  0.00000000000E+00 0. -1.
         22    1    3    3    0    0  0.57357901645E+02  0.13517777172E+03 -0.38728952478E+02  0.15186471153E+03  0.00000000000E+00 0.  1.
         22    1    3    3    0    0 -0.15687764576E+02  0.19886184045E+02  0.45092912862E+02  0.51719793731E+02  0.00000000000E+00 0.  1.
</event>
<event>
 7    1  0.6358809E-006  0.1925460E+03  0.7818608E-02  0.1273104E+00
          2   -1    0    0  502    0  0.00000000000E+00  0.00000000000E+00  0.14378022321E+04  0.14378022321E+04  0.00000000000E+00 0. -1.
          1   -1    0    0  501    0 -0.00000000000E+00 -0.00000000000E+00 -0.18604234858E+04  0.18604234858E+04  0.00000000000E+00 0. -1.
         25    2    1    2    0    0 -0.16349462195E+02 -0.22836120775E+03  0.35808174726E+03  0.44302392752E+03  0.12502606333E+03 0.  0.
          2    1    1    2  501    0 -0.24483784347E+02  0.19057471869E+03 -0.18121237351E+04  0.18222817045E+04  0.00000000000E+00 0. -1.
          1    1    1    2  502    0  0.40833246542E+02  0.37786489063E+02  0.10314207342E+04  0.10329200859E+04  0.00000000000E+00 0. -1.
         22    1    3    3    0    0  0.12365409434E+02 -0.17685734171E+03  0.33628519753E+03  0.38015675286E+03  0.00000000000E+00 0.  1.
         22    1    3    3    0    0 -0.28714871628E+02 -0.51503866035E+02  0.21796549734E+02  0.62867174658E+02  0.00000000000E+00 0.  1.
</event>
<event>
 7    1  0.6358809E-006  0.1736231E+03  0.7818608E-02  0.1292151E+00
          2   -1    0    0  502    0  0.00000000000E+00  0.00000000000E+00  0.12855967798E+04  0.12855967798E+04  0.00000000000E+00 0. -1.
          1   -1    0    0  501    0 -0.00000000000E+00 -0.00000000000E+00 -0.86210780198E+03  0.86210780198E+03  0.00000000000E+00 0. -1.
         25    2    1    2    0    0 -0.29545386080E+02  0.21770900164E+03  0.78960048747E+03  0.82907353254E+03  0.12499541316E+03 0.  0.
          2    1    1    2  501    0  0.42456711637E+02 -0.16784435255E+03 -0.83204118171E+03  0.84986282840E+03  0.00000000000E+00 0. -1.
          1    1    1    2  502    0 -0.12911325557E+02 -0.49864649086E+02  0.46592967202E+03  0.46876822079E+03  0.00000000000E+00 0. -1.
         22    1    3    3    0    0 -0.76616501560E+02  0.13991722398E+03  0.44693691761E+03  0.47455192150E+03  0.00000000000E+00 0. -1.
         22    1    3    3    0    0  0.47071115480E+02  0.77791777658E+02  0.34266356986E+03  0.35452161104E+03  0.00000000000E+00 0. -1.
</event>
<event>
 7    1  0.6358809E-006  0.1030118E+03  0.7818608E-02  0.1396073E+00
          2   -1    0    0  502    0  0.00000000000E+00  0.00000000000E+00  0.54505618815E+03  0.54505618815E+03  0.00000000000E+00 0. -1.
          1   -1    0    0  501    0 -0.00000000000E+00 -0.00000000000E+00 -0.45899873596E+03  0.45899873596E+03  0.00000000000E+00 0. -1.
         25    2    1    2    0    0 -0.77707162953E+01  0.10686845068E+03 -0.16136183212E+03  0.23052829284E+03  0.12499761259E+03 0.  0.
          2    1    1    2  501    0 -0.26912175072E+02 -0.99583628232E+02 -0.25228881336E+03  0.27256340460E+03  0.00000000000E+00 0. -1.
          1    1    1    2  502    0  0.34682891367E+02 -0.72848224534E+01  0.49970809767E+03  0.50096322667E+03  0.00000000000E+00 0. -1.
         22    1    3    3    0    0 -0.20931383798E+02  0.13255478609E+03 -0.14404547019E+03  0.19687049455E+03  0.00000000000E+00 0. -1.
         22    1    3    3    0    0  0.13160667502E+02 -0.25686335402E+02 -0.17316361928E+02  0.33657798292E+02  0.00000000000E+00 0. -1.
</event>
<event>
 7    1  0.6358809E-006  0.4525362E+02  0.7818608E-02  0.1562592E+00
          2   -1    0    0  502    0  0.00000000000E+00  0.00000000000E+00  0.26701949789E+03  0.26701949789E+03  0.00000000000E+00 0. -1.
          1   -1    0    0  501    0 -0.00000000000E+00 -0.00000000000E+00 -0.12792877686E+03  0.12792877686E+03  0.00000000000E+00 0. -1.
         25    2    1    2    0    0 -0.31413145313E+01  0.65605853659E+02 -0.19622540656E+02  0.14256144628E+03  0.12499890388E+03 0.  0.
          2    1    1    2  501    0  0.81115509886E+01 -0.41350330350E+02 -0.36415662018E+02  0.55693334607E+02  0.00000000000E+00 0. -1.
          1    1    1    2  502    0 -0.49702364573E+01 -0.24255523309E+02  0.19512892370E+03  0.19669349386E+03  0.00000000000E+00 0. -1.
         22    1    3    3    0    0 -0.56131250317E+02 -0.85094771171E+00 -0.56081418460E+01  0.56417130636E+02  0.00000000000E+00 0. -1.
         22    1    3    3    0    0  0.52989935786E+02  0.66456801371E+02 -0.14014398810E+02  0.86144315640E+02  0.00000000000E+00 0. -1.
</event>
<event>
 7    1  0.6358809E-006  0.1356851E+03  0.7818608E-02  0.1322239E+00
          2   -1    0    0  502    0  0.00000000000E+00  0.00000000000E+00  0.97806038156E+03  0.97806038156E+03  0.00000000000E+00 0. -1.
          1   -1    0    0  501    0 -0.00000000000E+00 -0.00000000000E+00 -0.42946801762E+03  0.42946801762E+03  0.00000000000E+00 0. -1.
         25    2    1    2    0    0 -0.14321650959E+03  0.11849610553E+02  0.53946584174E+03  0.57209926069E+03  0.12499115083E+03 0.  0.
          2    1    1    2  501    0  0.21961119140E+02  0.45031573439E+02 -0.40093284578E+03  0.40405108611E+03  0.00000000000E+00 0. -1.
          1    1    1    2  502    0  0.12125539045E+03 -0.56881183992E+02  0.41005936798E+03  0.43137805238E+03  0.00000000000E+00 0. -1.
         22    1    3    3    0    0 -0.85712645804E+02  0.37556617613E+02  0.14458691847E+03  0.17222814570E+03  0.00000000000E+00 0. -1.
         22    1    3    3    0    0 -0.57503863783E+02 -0.25707007061E+02  0.39487892327E+03  0.39987111499E+03  0.00000000000E+00 0. -1.
</event>
<event>
 7    1  0.6358809E-006  0.2152913E+03  0.7818608E-02  0.1223432E+00
          2   -1    0    0  502    0  0.00000000000E+00  0.00000000000E+00  0.30544704553E+03  0.30544704553E+03  0.00000000000E+00 0. -1.
          1   -1    0    0  501    0 -0.00000000000E+00 -0.00000000000E+00 -0.69606117923E+03  0.69606117923E+03  0.00000000000E+00 0. -1.
         25    2    1    2    0    0  0.22808735506E+03 -0.34202145276E+02  0.53969877748E+02  0.26782729160E+03  0.12500032856E+03 0.  0.
          2    1    1    2  501    0 -0.21013108836E+03 -0.45657728769E+02 -0.55559448322E+03  0.59575576563E+03  0.00000000000E+00 0. -1.
          1    1    1    2  502    0 -0.17956266698E+02  0.79859874046E+02  0.11101047177E+03  0.13792516753E+03  0.00000000000E+00 0. -1.
         22    1    3    3    0    0  0.20571519098E+03 -0.72280131394E+02  0.47962695615E+02  0.22325675212E+03  0.00000000000E+00 0.  1.
         22    1    3    3    0    0  0.22372164079E+02  0.38077986118E+02  0.60071821334E+01  0.44570539480E+02  0.00000000000E+00 0.  1.
</event>
<event>
 7    1  0.6358809E-006  0.5290107E+02  0.7818608E-02  0.1495347E+00
          2   -1    0    0  502    0  0.00000000000E+00  0.00000000000E+00  0.70495796867E+01  0.70495796867E+01  0.00000000000E+00 0. -1.
          1   -1    0    0  501    0 -0.00000000000E+00 -0.00000000000E+00 -0.31599198492E+04  0.31599198492E+04  0.00000000000E+00 0. -1.
         25    2    1    2    0    0 -0.26623404662E+02 -0.70738691934E+02 -0.10708221420E+04  0.10807398481E+04  0.12500316531E+03 0.  0.
          2    1    1    2  501    0 -0.32665492687E+00  0.51636550811E+02 -0.19274555719E+04  0.19281471473E+04  0.00000000000E+00 0. -1.
          1    1    1    2  502    0  0.26950059589E+02  0.19102141123E+02 -0.15459255557E+03  0.15808243339E+03  0.00000000000E+00 0. -1.
         22    1    3    3    0    0 -0.43112424354E+02 -0.98915876704E+02 -0.67461145312E+03  0.68318639073E+03  0.00000000000E+00 0. -1.
         22    1    3    3    0    0  0.16489019692E+02  0.28177184770E+02 -0.39621068889E+03  0.39755345742E+03  0.00000000000E+00 0. -1.
</event>
<event>
 7    1  0.6358809E-006  0.9884011E+02  0.7818608E-02  0.1365583E+00
          2   -1    0    0  502    0  0.00000000000E+00  0.00000000000E+00  0.41018665410E+03  0.41018665410E+03  0.00000000000E+00 0. -1.
          1   -1    0    0  501    0 -0.00000000000E+00 -0.00000000000E+00 -0.11546218775E+04  0.11546218775E+04  0.00000000000E+00 0. -1.
         25    2    1    2    0    0  0.10513866088E+03  0.96666539488E+02  0.26834161895E+02  0.19168695746E+03  0.12500103818E+03 0.  0.
          2    1    1    2  501    0 -0.63051801786E+02 -0.74972317281E+02 -0.10680774899E+04  0.10725604424E+04  0.00000000000E+00 0. -1.
          1    1    1    2  502    0 -0.42086859094E+02 -0.21694222206E+02  0.29680810460E+03  0.30056113179E+03  0.00000000000E+00 0. -1.
         22    1    3    3    0    0  0.68878908925E+02  0.38519852563E+02  0.74249451953E+02  0.10835619157E+03  0.00000000000E+00 0.  1.
         22    1    3    3    0    0  0.36259751955E+02  0.58146686925E+02 -0.47415290058E+02  0.83330765888E+02  0.00000000000E+00 0.  1.
</event>
<event>
 7    1  0.6358809E-006  0.1040346E+03  0.7818608E-02  0.1341216E+00
          2   -1    0    0  502    0  0.00000000000E+00  0.00000000000E+00  0.16092557498E+04  0.16092557498E+04  0.00000000000E+00 0. -1.
          1   -1    0    0  501    0 -0.00000000000E+00 -0.00000000000E+00 -0.26378636257E+03  0.26378636257E+03  0.00000000000E+00 0. -1.
         25    2    1    2    0    0  0.42037773006E+02 -0.72434384288E+02 -0.12167819762E+01  0.15046746726E+03  0.12500025503E+03 0.  0.
          2    1    1    2  501    0  0.50342339767E+02  0.22937418014E+02 -0.18203984383E+03  0.19026029817E+03  0.00000000000E+00 0. -1.
          1    1    1    2  502    0 -0.92380112773E+02  0.49496966274E+02  0.15287260130E+04  0.15323143469E+04  0.00000000000E+00 0. -1.
         22    1    3    3    0    0 -0.23763294116E+02  0.21785223002E+02 -0.13377986017E+02  0.34903590049E+02  0.00000000000E+00 0.  1.
         22    1    3    3    0    0  0.65801067122E+02 -0.94219607290E+02  0.12161204040E+02  0.11556387721E+03  0.00000000000E+00 0.  1.
</event>
<event>
 7    1  0.6358809E-006  0.1042048E+03  0.7818608E-02  0.1283544E+00
          2   -1    0    0  502    0  0.00000000000E+00  0.00000000000E+00  0.90565939221E+03  0.90565939221E+03  0.00000000000E+00 0. -1.
          1   -1    0    0  501    0 -0.00000000000E+00 -0.00000000000E+00 -0.28040991080E+04  0.28040991080E+04  0.00000000000E+00 0. -1.
         25    2    1    2    0    0 -0.14283672321E+03 -0.91692709167E+02 -0.50141647773E+03  0.54392344055E+03  0.12499737049E+03 0.  0.
          2    1    1    2  501    0  0.10133433691E+03  0.84072621184E+01 -0.22778441352E+04  0.22801125486E+04  0.00000000000E+00 0. -1.
          1    1    1    2  502    0  0.41502386310E+02  0.83285447049E+02  0.88082089716E+03  0.88572251108E+03  0.00000000000E+00 0. -1.
         22    1    3    3    0    0 -0.45831714209E+02 -0.98232528977E+02 -0.32345463505E+03  0.34113498312E+03  0.00000000000E+00 0. -1.
         22    1    3    3    0    0 -0.97005009006E+02  0.65398198102E+01 -0.17796184269E+03  0.20278845743E+03  0.00000000000E+00 0. -1.
</event>
<event>
 7    1  0.6358809E-006  0.1243594E+03  0.7818608E-02  0.1334914E+00
          2   -1    0    0  502    0  0.00000000000E+00  0.00000000000E+00  0.37503561807E+04  0.37503561807E+04  0.00000000000E+00 0. -1.
          1   -1    0    0  501    0 -0.00000000000E+00 -0.00000000000E+00 -0.96469852677E+02  0.96469852677E+02  0.00000000000E+00 0. -1.
         25    2    1    2    0    0 -0.87070445631E+01 -0.16500405455E+03  0.16532617280E+03  0.26506579411E+03  0.12499992461E+03 0.  0.
          2    1    1    2  501    0  0.24231893887E+02  0.42456320601E+02 -0.32391468963E+02  0.58642400206E+02  0.00000000000E+00 0. -1.
          1    1    1    2  502    0 -0.15524849323E+02  0.12254773395E+03  0.35209516242E+04  0.35231178391E+04  0.00000000000E+00 0. -1.
         22    1    3    3    0    0  0.17214538262E+02 -0.24385882896E+02  0.10623579015E+03  0.11034969289E+03  0.00000000000E+00 0.  1.
         22    1    3    3    0    0 -0.25921582826E+02 -0.14061817165E+03  0.59090382649E+02  0.15471610122E+03  0.00000000000E+00 0.  1.
</event>
<event>
 7    1  0.6358809E-006  0.3703016E+02  0.7818608E-02  0.1549986E+00
          2   -1    0    0  502    0  0.00000000000E+00  0.00000000000E+00  0.17895788907E+04  0.17895788907E+04  0.00000000000E+00 0. -1.
          1   -1    0    0  501    0 -0.00000000000E+00 -0.00000000000E+00 -0.18234741477E+02  0.18234741477E+02  0.00000000000E+00 0. -1.
         25    2    1    2    0    0  0.26720418623E+01 -0.32850425790E+02  0.13173343015E+04  0.13236614943E+04  0.12499519729E+03 0.  0.
          2    1    1    2  501    0 -0.32291257140E+02  0.18788174057E+02  0.96516802411E+01  0.38585952154E+02  0.00000000000E+00 0. -1.
          1    1    1    2  502    0  0.29619215278E+02  0.14062251733E+02  0.44435816741E+03  0.44556618563E+03  0.00000000000E+00 0. -1.
         22    1    3    3    0    0  0.51164669261E+02 -0.46033322342E+02  0.10007235906E+04  0.10030875311E+04  0.00000000000E+00 0.  1.
         22    1    3    3    0    0 -0.48492627398E+02  0.13182896552E+02  0.31661071090E+03  0.32057396327E+03  0.00000000000E+00 0.  1.
</event>
<event>
 7    1  0.6358809E-006  0.8964095E+02  0.7818608E-02  0.1399631E+00
          2   -1    0    0  502    0  0.00000000000E+00  0.00000000000E+00  0.19577718991E+04  0.19577718991E+04  0.00000000000E+00 0. -1.
          1   -1    0    0  501    0 -0.00000000000E+00 -0.00000000000E+00 -0.18356094077E+04  0.18356094077E+04  0.00000000000E+00 0. -1.
         25    2    1    2    0    0  0.10110924534E+03  0.24939919219E+02  0.65725432155E+03  0.67709240503E+03  0.12500321073E+03 0.  0.
          2    1    1    2  501    0 -0.72661978307E+02 -0.52475555136E+02 -0.18242862376E+04  0.18264867159E+04  0.00000000000E+00 0. -1.
          1    1    1    2  502    0 -0.28447267029E+02  0.27535635918E+02  0.12891944074E+04  0.12898021858E+04  0.00000000000E+00 0. -1.
         22    1    3    3    0    0  0.10017142975E+03 -0.31115010829E+02  0.47334814426E+03  0.48483082092E+03  0.00000000000E+00 0.  1.
         22    1    3    3    0    0  0.93781558195E+00  0.56054930048E+02  0.18390617729E+03  0.19226158411E+03  0.00000000000E+00 0.  1.
</event>
<event>
 7    1  0.6358809E-006  0.2330546E+02  0.7818608E-02  0.1688233E+00
          2   -1    0    0  502    0  0.00000000000E+00  0.00000000000E+00  0.67042146655E+03  0.67042146655E+03  0.00000000000E+00 0. -1.
          1   -1    0    0  501    0 -0.00000000000E+00 -0.00000000000E+00 -0.82241714840E+02  0.82241714840E+02  0.00000000000E+00 0. -1.
         25    2    1    2    0    0  0.12088002026E+02  0.64074560947E+01  0.24404312127E+03  0.27453364965E+03  0.12499801786E+03 0.  0.
          2    1    1    2  501    0 -0.16205722928E+02  0.16748700794E+02 -0.64621366795E+02  0.68695454583E+02  0.00000000000E+00 0. -1.
          1    1    1    2  502    0  0.41177209019E+01 -0.23156156889E+02  0.40875799724E+03  0.40943407715E+03  0.00000000000E+00 0. -1.
         22    1    3    3    0    0  0.32931939381E+02 -0.29647850065E+02  0.23625880349E+02  0.50216430251E+02  0.00000000000E+00 0. -1.
         22    1    3    3    0    0 -0.20843937354E+02  0.36055306160E+02  0.22041724092E+03  0.22431721940E+03  0.00000000000E+00 0. -1.
</event>
<event>
 7    1  0.6358809E-006  0.6029775E+02  0.7818608E-02  0.1526806E+00
          2   -1    0    0  502    0  0.00000000000E+00  0.00000000000E+00  0.19540733460E+04  0.19540733460E+04  0.00000000000E+00 0. -1.
          1   -1    0    0  501    0 -0.00000000000E+00 -0.00000000000E+00 -0.92306514238E+02  0.92306514238E+02  0.00000000000E+00 0. -1.
         25    2    1    2    0    0  0.77445641987E+02 -0.15838999949E+02  0.63789451118E+02  0.16107199234E+03  0.12500556491E+03 0.  0.
          2    1    1    2  501    0 -0.17321631803E+02  0.15766508923E+02 -0.39996848717E+02  0.46350508511E+02  0.00000000000E+00 0. -1.
          1    1    1    2  502    0 -0.60124010184E+02  0.72491026181E-01  0.18379742294E+04  0.18389573594E+04  0.00000000000E+00 0. -1.
         22    1    3    3    0    0  0.61623894195E+02  0.46448442113E+02  0.11088570043E+02  0.77961006253E+02  0.00000000000E+00 0.  1.
         22    1    3    3    0    0  0.15821747792E+02 -0.62287442062E+02  0.52700881074E+02  0.83110986084E+02  0.00000000000E+00 0.  1.
</event>
<event>
 7    1  0.6358809E-006  0.8083181E+02  0.7818608E-02  0.1423515E+00
          2   -1    0    0  502    0  0.00000000000E+00  0.00000000000E+00  0.50432188493E+02  0.50432188493E+02  0.00000000000E+00 0. -1.
          1   -1    0    0  501    0 -0.00000000000E+00 -0.00000000000E+00 -0.20261854333E+04  0.20261854333E+04  0.00000000000E+00 0. -1.
         25    2    1    2    0    0  0.11183380964E+03 -0.16693823127E+02 -0.72592836538E+03  0.74524027753E+03  0.12500237949E+03 0.  0.
          2    1    1    2  501    0 -0.76662303983E+02  0.71039640571E+01 -0.12810595715E+04  0.12833710301E+04  0.00000000000E+00 0. -1.
          1    1    1    2  502    0 -0.35171505661E+02  0.95898590698E+01  0.31234692096E+02  0.48006314145E+02  0.00000000000E+00 0. -1.
         22    1    3    3    0    0  0.95429961569E+02 -0.63425242274E+02 -0.42094841469E+03  0.43626506479E+03  0.00000000000E+00 0. -1.
         22    1    3    3    0    0  0.16403848075E+02  0.46731419147E+02 -0.30497995069E+03  0.30897521275E+03  0.00000000000E+00 0. -1.
</event>
<event>
 7    1  0.6358809E-006  0.1139762E+03  0.7818608E-02  0.1392092E+00
          2   -1    0    0  502    0  0.00000000000E+00  0.00000000000E+00  0.14494950534E+04  0.14494950534E+04  0.00000000000E+00 0. -1.
          1   -1    0    0  501    0 -0.00000000000E+00 -0.00000000000E+00 -0.25602308567E+04  0.25602308567E+04  0.00000000000E+00 0. -1.
         25    2    1    2    0    0  0.10142723660E+03 -0.89410839089E+02  0.25155598173E+03  0.31174861678E+03  0.12500002260E+03 0.  0.
          2    1    1    2  501    0 -0.68403351288E+02  0.91062797114E+02 -0.25286184236E+04  0.25311820526E+04  0.00000000000E+00 0. -1.
          1    1    1    2  502    0 -0.33023885307E+02 -0.16519580243E+01  0.11663266385E+04  0.11667952407E+04  0.00000000000E+00 0. -1.
         22    1    3    3    0    0  0.48657288277E+02 -0.85286678151E+02  0.23747896393E+03  0.25697783461E+03  0.00000000000E+00 0. -1.
         22    1    3    3    0    0  0.52769948318E+02 -0.41241609378E+01  0.14077017799E+02  0.54770782166E+02  0.00000000000E+00 0. -1.
</event>
<event>
 7    1  0.6358809E-006  0.2422388E+03  0.7818608E-02  0.1228267E+00
          2   -1    0    0  502    0  0.00000000000E+00  0.00000000000E+00  0.21035070740E+04  0.21035070740E+04  0.00000000000E+00 0. -1.
          1   -1    0    0  501    0 -0.00000000000E+00 -0.00000000000E+00 -0.57774855972E+03  0.57774855972E+03  0.00000000000E+00 0. -1.
         25    2    1    2    0    0  0.14192423894E+03  0.16246590441E+03 -0.25026267951E+03  0.35326172171E+03  0.12499910231E+03 0.  0.
          2    1    1    2  501    0 -0.16018169832E+03 -0.22919531569E+03 -0.20440044516E+03  0.34636427528E+03  0.00000000000E+00 0. -1.
          1    1    1    2  502    0  0.18257459376E+02  0.66729411280E+02  0.19804216390E+04  0.19816296367E+04  0.00000000000E+00 0. -1.
         22    1    3    3    0    0  0.72033297464E+02  0.10462490361E+03 -0.55922711779E+02  0.13878946679E+03  0.00000000000E+00 0. -1.
         22    1    3    3    0    0  0.69890941480E+02  0.57841000797E+02 -0.19433996773E+03  0.21447225492E+03  0.00000000000E+00 0. -1.
</event>
<event>
 7    1  0.6358809E-006  0.9338668E+02  0.7818608E-02  0.1355291E+00
          2   -1    0    0  502    0  0.00000000000E+00  0.00000000000E+00  0.11001576541E+04  0.11001576541E+04  0.00000000000E+00 0. -1.
          1   -1    0    0  501    0 -0.00000000000E+00 -0.00000000000E+00 -0.23462617861E+03  0.23462617861E+03  0.00000000000E+00 0. -1.
         25    2    1    2    0    0 -0.59384689885E+02  0.85922101887E+01 -0.36281858328E+02  0.14333214952E+03  0.12500945713E+03 0.  0.
          2    1    1    2  501    0  0.94005910506E+02 -0.50862061905E+02 -0.12427158953E+03  0.16391305169E+03  0.00000000000E+00 0. -1.
          1    1    1    2  502    0 -0.34621220621E+02  0.42269851716E+02  0.10260849233E+04  0.10275386315E+04  0.00000000000E+00 0. -1.
         22    1    3    3    0    0 -0.35914870654E+02 -0.52394386795E+02  0.85360409397E+01  0.64093008173E+02  0.00000000000E+00 0.  1.
         22    1    3    3    0    0 -0.23469819231E+02  0.60986596984E+02 -0.44817899268E+02  0.79239141345E+02  0.00000000000E+00 0.  1.
</event>
<event>
 7    1  0.6358809E-006  0.1161601E+03  0.7818608E-02  0.1330109E+00
          2   -1    0    0  502    0  0.00000000000E+00  0.00000000000E+00  0.56863953641E+03  0.56863953641E+03  0.00000000000E+00 0. -1.
          1   -1    0    0  501    0 -0.00000000000E+00 -0.00000000000E+00 -0.29061797493E+03  0.29061797493E+03  0.00000000000E+00 0. -1.
         25    2    1    2    0    0 -0.97813212193E+02  0.12646616528E+03  0.13341214019E+02  0.20338016047E+03  0.12499754494E+03 0.  0.
          2    1    1    2  501    0  0.11411206592E+02 -0.53379634831E+02 -0.18463220588E+03  0.19253221159E+03  0.00000000000E+00 0. -1.
          1    1    1    2  502    0  0.86402005602E+02 -0.73086530448E+02  0.44931255334E+03  0.46334513928E+03  0.00000000000E+00 0. -1.
         22    1    3    3    0    0 -0.98184754918E+02  0.71140230245E+02 -0.38850379529E+02  0.12732058140E+03  0.00000000000E+00 0. -1.
         22    1    3    3    0    0  0.37154272457E+00  0.55325935034E+02  0.52191593549E+02  0.76059579072E+02  0.00000000000E+00 0. -1.
</event>
<event>
 7    1  0.6358809E-006  0.1220341E+03  0.7818608E-02  0.1315732E+00
          2   -1    0    0  502    0  0.00000000000E+00  0.00000000000E+00  0.11452892763E+04  0.11452892763E+04  0.00000000000E+00 0. -1.
          1   -1    0    0  501    0 -0.00000000000E+00 -0.00000000000E+00 -0.74603882694E+02  0.74603882694E+02  0.00000000000E+00 0. -1.
         25    2    1    2    0    0  0.20061003658E+02  0.17142331379E+03  0.16241213927E+03  0.26793360069E+03  0.12498925962E+03 0.  0.
          2    1    1    2  501    0 -0.25667641246E+02 -0.53174358514E+02  0.30911588306E+02  0.66647329294E+02  0.00000000000E+00 0. -1.
          1    1    1    2  502    0  0.56066375887E+01 -0.11824895527E+03  0.87736166606E+03  0.88531222903E+03  0.00000000000E+00 0. -1.
         22    1    3    3    0    0  0.64558490562E+02  0.57676811347E+02  0.94594595122E+02  0.12822850969E+03  0.00000000000E+00 0.  1.
         22    1    3    3    0    0 -0.44497486905E+02  0.11374650244E+03  0.67817544146E+02  0.13970509100E+03  0.00000000000E+00 0.  1.
</event>
<event>
 7    1  0.6358809E-006  0.2829943E+03  0.7818608E-02  0.1236232E+00
          2   -1    0    0  502    0  0.00000000000E+00  0.00000000000E+00  0.30566931737E+04  0.30566931737E+04  0.00000000000E+00 0. -1.
          1   -1    0    0  501    0 -0.00000000000E+00 -0.00000000000E+00 -0.64386560241E+03  0.64386560241E+03  0.00000000000E+00 0. -1.
         25    2    1    2    0    0  0.16598199383E+03  0.27464988794E+03  0.14467097309E+04  0.14871370126E+04  0.12499946149E+03 0.  0.
          2    1    1    2  501    0 -0.17559738642E+03 -0.22094345934E+03 -0.59122071067E+03  0.65512776087E+03  0.00000000000E+00 0. -1.
          1    1    1    2  502    0  0.96153925958E+01 -0.53706428598E+02  0.15573385511E+04  0.15582940027E+04  0.00000000000E+00 0. -1.
         22    1    3    3    0    0  0.17614569380E+03  0.18983317173E+03  0.10848589912E+04  0.11153398447E+04  0.00000000000E+00 0.  1.
         22    1    3    3    0    0 -0.10163699973E+02  0.84816716209E+02  0.36185073974E+03  0.37179716782E+03  0.00000000000E+00 0.  1.
</event>
<event>
 7    1  0.6358809E-006  0.1867196E+03  0.7818608E-02  0.1251335E+00
          2   -1    0    0  502    0  0.00000000000E+00  0.00000000000E+00  0.68730117959E+03  0.68730117959E+03  0.00000000000E+00 0. -1.
          1   -1    0    0  501    0 -0.00000000000E+00 -0.00000000000E+00 -0.37053876841E+03  0.37053876841E+03  0.00000000000E+00 0. -1.
         25    2    1    2    0    0  0.10388755149E+03 -0.74779700260E+02 -0.55961071545E+02  0.18746393812E+03  0.12500583843E+03 0.  0.
          2    1    1    2  501    0  0.33534646094E+02 -0.62583564704E+02 -0.22811067988E+03  0.23890533132E+03  0.00000000000E+00 0. -1.
          1    1    1    2  502    0 -0.13742219758E+03  0.13736326496E+03  0.60083416259E+03  0.63147067856E+03  0.00000000000E+00 0. -1.
         22    1    3    3    0    0  0.77338771225E+02  0.47501814791E+01  0.13417137641E+02  0.78637582244E+02  0.00000000000E+00 0. -1.
         22    1    3    3    0    0  0.26548780261E+02 -0.79529881739E+02 -0.69378209186E+02  0.10882635587E+03  0.00000000000E+00 0. -1.
</event>
<event>
 7    1  0.6358809E-006  0.6812254E+02  0.7818608E-02  0.1432090E+00
          2   -1    0    0  502    0  0.00000000000E+00  0.00000000000E+00  0.62179932125E+03  0.62179932125E+03  0.00000000000E+00 0. -1.
          1   -1    0    0  501    0 -0.00000000000E+00 -0.00000000000E+00 -0.44536526023E+03  0.44536526023E+03  0.00000000000E+00 0. -1.
         25    2    1    2    0    0 -0.78694920533E+02 -0.44121511912E+02 -0.78122904334E+02  0.17282232006E+03  0.12499907119E+03 0.  0.
          2    1    1    2  501    0  0.39011530300E+02 -0.10976024678E+02 -0.31658998189E+03  0.31917329031E+03  0.00000000000E+00 0. -1.
          1    1    1    2  502    0  0.39683390233E+02  0.55097536590E+02  0.57114694723E+03  0.57516897111E+03  0.00000000000E+00 0. -1.
         22    1    3    3    0    0 -0.10634586558E+03 -0.94624944304E+01 -0.38919631671E+02  0.11363854828E+03  0.00000000000E+00 0. -1.
         22    1    3    3    0    0  0.27650945045E+02 -0.34659017481E+02 -0.39203272663E+02  0.59183771780E+02  0.00000000000E+00 0. -1.
</event>
<event>
 7    1  0.6358809E-006  0.9795609E+02  0.7818608E-02  0.1388866E+00
          2   -1    0    0  502    0  0.00000000000E+00  0.00000000000E+00  0.60390735944E+03  0.60390735944E+03  0.00000000000E+00 0. -1.
          1   -1    0    0  501    0 -0.00000000000E+00 -0.00000000000E+00 -0.13401085153E+04  0.13401085153E+04  0.00000000000E+00 0. -1.
         25    2    1    2    0    0 -0.45405305632E+02  0.74903105858E+02  0.22022247872E+03  0.26793492665E+03  0.12497626870E+03 0.  0.
          2    1    1    2  501    0  0.80270114989E+02 -0.56374728503E+02 -0.13133347680E+04  0.13169926401E+04  0.00000000000E+00 0. -1.
          1    1    1    2  502    0 -0.34864809357E+02 -0.18528377355E+02  0.35691113345E+03  0.35908830792E+03  0.00000000000E+00 0. -1.
         22    1    3    3    0    0 -0.40318655106E+02  0.61720742762E+02  0.23571014672E+03  0.24697027615E+03  0.00000000000E+00 0.  1.
         22    1    3    3    0    0 -0.50866505254E+01  0.13182363096E+02 -0.15487668000E+02  0.20964650496E+02  0.00000000000E+00 0.  1.
</event>
<event>
 7    1  0.6358809E-006  0.3599783E+02  0.7818608E-02  0.1607901E+00
          2   -1    0    0  502    0  0.00000000000E+00  0.00000000000E+00  0.65517153907E+02  0.65517153907E+02  0.00000000000E+00 0. -1.
          1   -1    0    0  501    0 -0.00000000000E+00 -0.00000000000E+00 -0.10373846313E+04  0.10373846313E+04  0.00000000000E+00 0. -1.
         25    2    1    2    0    0 -0.18392450532E+02  0.68625176846E+01 -0.20628695249E+03  0.24200364053E+03  0.12500431544E+03 0.  0.
          2    1    1    2  501    0 -0.21253580112E+01  0.23477664433E+02 -0.80600442934E+03  0.80634909189E+03  0.00000000000E+00 0. -1.
          1    1    1    2  502    0  0.20517808543E+02 -0.30340182118E+02  0.40423904393E+02  0.54549052830E+02  0.00000000000E+00 0. -1.
         22    1    3    3    0    0  0.48894186330E+01  0.82403144273E+01 -0.21637909619E+03  0.21659114124E+03  0.00000000000E+00 0.  1.
         22    1    3    3    0    0 -0.23281869165E+02 -0.13777967427E+01  0.10092143701E+02  0.25412499290E+02  0.00000000000E+00 0.  1.
</event>
<event>
 7    1  0.6358809E-006  0.1059792E+03  0.7818608E-02  0.1310393E+00
          2   -1    0    0  502    0  0.00000000000E+00  0.00000000000E+00  0.18884029543E+04  0.18884029543E+04  0.00000000000E+00 0. -1.
          1   -1    0    0  501    0 -0.00000000000E+00 -0.00000000000E+00 -0.30349371058E+03  0.30349371058E+03  0.00000000000E+00 0. -1.
         25    2    1    2    0    0  0.11235144561E+03  0.58153667916E+02  0.30358665917E+03  0.35184582353E+03  0.12500370987E+03 0.  0.
          2    1    1    2  501    0 -0.50272750511E+02 -0.93323793347E+02 -0.26845815010E+03  0.28862858175E+03  0.00000000000E+00 0. -1.
          1    1    1    2  502    0 -0.62078695098E+02  0.35170125431E+02  0.15497807347E+04  0.15514222596E+04  0.00000000000E+00 0. -1.
         22    1    3    3    0    0  0.12266970395E+03  0.51651156971E+02  0.16169119284E+03  0.20942717141E+03  0.00000000000E+00 0. -1.
         22    1    3    3    0    0 -0.10318258340E+02  0.65025109448E+01  0.14189546634E+03  0.14241865212E+03  0.00000000000E+00 0. -1.
</event>
<event>
 7    1  0.6358809E-006  0.2005987E+03  0.7818608E-02  0.1321856E+00
          2   -1    0    0  502    0  0.00000000000E+00  0.00000000000E+00  0.25399670602E+03  0.25399670602E+03  0.00000000000E+00 0. -1.
          1   -1    0    0  501    0 -0.00000000000E+00 -0.00000000000E+00 -0.33054688223E+03  0.33054688223E+03  0.00000000000E+00 0. -1.
         25    2    1    2    0    0 -0.17928661944E+03 -0.80838448894E+02 -0.55721337018E+02  0.23959996705E+03  0.12499892032E+03 0.  0.
          2    1    1    2  501    0  0.16969123726E+03  0.11346088266E+03 -0.12227582864E+03  0.23794929327E+03  0.00000000000E+00 0. -1.
          1    1    1    2  502    0  0.95953821713E+01 -0.32622433763E+02  0.10144698945E+03  0.10699432794E+03  0.00000000000E+00 0. -1.
         22    1    3    3    0    0 -0.16235299171E+03 -0.14615907534E+02 -0.26022844068E+02  0.16507364139E+03  0.00000000000E+00 0. -1.
         22    1    3    3    0    0 -0.16933627730E+02 -0.66222541360E+02 -0.29698492950E+02  0.74526325656E+02  0.00000000000E+00 0. -1.
</event>
<event>
 7    1  0.6358809E-006  0.1611718E+03  0.7818608E-02  0.1199389E+00
          2   -1    0    0  502    0  0.00000000000E+00  0.00000000000E+00  0.26842938776E+03  0.26842938776E+03  0.00000000000E+00 0. -1.
          1   -1    0    0  501    0 -0.00000000000E+00 -0.00000000000E+00 -0.44145785551E+03  0.44145785551E+03  0.00000000000E+00 0. -1.
         25    2    1    2    0    0 -0.11170907170E+03  0.58329599299E+02  0.13508791601E+02  0.17801313113E+03  0.12499971419E+03 0.  0.
          2    1    1    2  501    0  0.35853196286E+02 -0.17748925225E+03 -0.30018954545E+03  0.35057331550E+03  0.00000000000E+00 0. -1.
          1    1    1    2  502    0  0.75855875415E+02  0.11915965295E+03  0.11365228609E+03  0.18130079663E+03  0.00000000000E+00 0. -1.
         22    1    3    3    0    0 -0.12400690596E+03  0.24839383277E+02 -0.21204157374E+02  0.12823542403E+03  0.00000000000E+00 0. -1.
         22    1    3    3    0    0  0.12297834260E+02  0.33490216022E+02  0.34712948976E+02  0.49777707091E+02  0.00000000000E+00 0. -1.
</event>
<event>
 7    1  0.6358809E-006  0.3070874E+02  0.7818608E-02  0.1627114E+00
          2   -1    0    0  502    0  0.00000000000E+00  0.00000000000E+00  0.26832931613E+04  0.26832931613E+04  0.00000000000E+00 0. -1.
          1   -1    0    0  501    0 -0.00000000000E+00 -0.00000000000E+00 -0.60816004872E+03  0.60816004872E+03  0.00000000000E+00 0. -1.
         25    2    1    2    0    0  0.41410891340E+02 -0.29093570156E+02  0.99267262385E+03  0.10017910022E+04  0.12499990478E+03 0.  0.
          2    1    1    2  501    0 -0.12181663577E+02  0.21464464879E+02 -0.60321319028E+03  0.60371787211E+03  0.00000000000E+00 0. -1.
          1    1    1    2  502    0 -0.29229227763E+02  0.76291052772E+01  0.16856736790E+04  0.16859443357E+04  0.00000000000E+00 0. -1.
         22    1    3    3    0    0 -0.17099408853E+02 -0.50135553427E+02  0.72749861450E+03  0.72942456608E+03  0.00000000000E+00 0. -1.
         22    1    3    3    0    0  0.58510300193E+02  0.21041983271E+02  0.26517400935E+03  0.27236643611E+03  0.00000000000E+00 0. -1.
</event>
<event>
 7    1  0.6358809E-006  0.7781294E+02  0.7818608E-02  0.1506057E+00
          2   -1    0    0  502    0  0.00000000000E+00  0.00000000000E+00  0.41000007371E+03  0.41000007371E+03  0.00000000000E+00 0. -1.
          1   -1    0    0  501    0 -0.00000000000E+00 -0.00000000000E+00 -0.14511791749E+03  0.14511791749E+03  0.00000000000E+00 0. -1.
         25    2    1    2    0    0 -0.31480917988E+02  0.53530865402E+02  0.37584477091E+02  0.14455255597E+03  0.12500498699E+03 0.  0.
          2    1    1    2  501    0 -0.19586409811E+02  0.71940735680E+01 -0.85423899301E+02  0.87935343950E+02  0.00000000000E+00 0. -1.
          1    1    1    2  502    0  0.51067327800E+02 -0.60724938970E+02  0.31272157844E+03  0.32263009128E+03  0.00000000000E+00 0. -1.
         22    1    3    3    0    0 -0.75992510245E+02  0.39262152078E+02  0.15792626476E+01  0.85550407770E+02  0.00000000000E+00 0.  1.
         22    1    3    3    0    0  0.44511592257E+02  0.14268713324E+02  0.36005214443E+02  0.59002148200E+02  0.00000000000E+00 0.  1.
</event>
<event>
 7    1  0.6358809E-006  0.1177749E+03  0.7818608E-02  0.1349438E+00
          2   -1    0    0  502    0  0.00000000000E+00  0.00000000000E+00  0.33875979030E+03  0.33875979030E+03  0.00000000000E+00 0. -1.
          1   -1    0    0  501    0 -0.00000000000E+00 -0.00000000000E+00 -0.12689367486E+04  0.12689367486E+04  0.00000000000E+00 0. -1.
         25    2    1    2    0    0  0.10179245234E+03 -0.14169214962E+02 -0.14872263579E+03  0.21977988472E+03  0.12498922084E+03 0.  0.
          2    1    1    2  501    0 -0.10391266214E+03  0.59654094698E+02 -0.10796430240E+04  0.10862713803E+04  0.00000000000E+00 0. -1.
          1    1    1    2  502    0  0.21202098081E+01 -0.45484879736E+02  0.29818870148E+03  0.30164527390E+03  0.00000000000E+00 0. -1.
         22    1    3    3    0    0  0.67049446096E+02 -0.17795168521E+02 -0.16665337902E+03  0.18051494393E+03  0.00000000000E+00 0. -1.
         22    1    3    3    0    0  0.34743006240E+02  0.36259535592E+01  0.17930743235E+02  0.39264940783E+02  0.00000000000E+00 0. -1.
</event>
<event>
 7    1  0.6358809E-006  0.4321449E+02  0.7818608E-02  0.1602383E+00
          2   -1    0    0  502    0  0.00000000000E+00  0.00000000000E+00  0.19336167716E+04  0.19336167716E+04  0.00000000000E+00 0. -1.
          1   -1    0    0  501    0 -0.00000000000E+00 -0.00000000000E+00 -0.11894979989E+04  0.11894979989E+04  0.00000000000E+00 0. -1.
         25    2    1    2    0    0 -0.12099017413E+02  0.37618863898E+02  0.47843518011E+02  0.13955413730E+03  0.12499915951E+03 0.  0.
          2    1    1    2  501    0  0.19676745369E+02  0.49726667405E+01 -0.11432983294E+04  0.11434784526E+04  0.00000000000E+00 0. -1.
          1    1    1    2  502    0 -0.75777279557E+01 -0.42591530639E+02  0.18395735840E+04  0.18400821806E+04  0.00000000000E+00 0. -1.
         22    1    3    3    0    0 -0.31485698243E+02  0.68508896399E+02  0.64723204040E+02  0.99367556178E+02  0.00000000000E+00 0.  1.
         22    1    3    3    0    0  0.19386680829E+02 -0.30890032500E+02 -0.16879686029E+02  0.40186581117E+02  0.00000000000E+00 0.  1.
</event>
<event>
 7    1  0.6358809E-006  0.4481695E+02  0.7818608E-02  0.1586590E+00
          2   -1    0    0  502    0  0.00000000000E+00  0.00000000000E+00  0.28259464327E+02  0.28259464327E+02  0.00000000000E+00 0. -1.
          1   -1    0    0  501    0 -0.00000000000E+00 -0.00000000000E+00 -0.55004455472E+03  0.55004455472E+03  0.00000000000E+00 0. -1.
         25    2    1    2    0    0 -0.17349527218E+02  0.26977125715E+02 -0.18825874637E+03  0.22824302651E+03  0.12499900863E+03 0.  0.
          2    1    1    2  501    0  0.65631878706E+01 -0.45616097338E+02 -0.32266951887E+03  0.32594404762E+03  0.00000000000E+00 0. -1.
          1    1    1    2  502    0  0.10786339347E+02  0.18638971623E+02 -0.10856825148E+02  0.24116944914E+02  0.00000000000E+00 0. -1.
         22    1    3    3    0    0  0.52075874631E+02  0.14100254637E+02 -0.11198631184E+03  0.12430465776E+03  0.00000000000E+00 0. -1.
         22    1    3    3    0    0 -0.69425401848E+02  0.12876871078E+02 -0.76272434527E+02  0.10393836875E+03  0.00000000000E+00 0. -1.
</event>
<event>
 7    1  0.6358809E-006  0.7663434E+02  0.7818608E-02  0.1414341E+00
          2   -1    0    0  502    0  0.00000000000E+00  0.00000000000E+00  0.15782557596E+04  0.15782557596E+04  0.00000000000E+00 0. -1.
          1   -1    0    0  501    0 -0.00000000000E+00 -0.00000000000E+00 -0.20270896793E+04  0.20270896793E+04  0.00000000000E+00 0. -1.
         25    2    1    2    0    0  0.31503313281E+02 -0.10408429502E+03  0.12779822100E+02  0.16617110342E+03  0.12499405003E+03 0.  0.
          2    1    1    2  501    0 -0.30487256645E+02  0.27812637188E+02 -0.19491984536E+04  0.19496352548E+04  0.00000000000E+00 0. -1.
          1    1    1    2  502    0 -0.10160566356E+01  0.76271657833E+02  0.14875847117E+04  0.14895390806E+04  0.00000000000E+00 0. -1.
         22    1    3    3    0    0  0.56813284436E+02 -0.33900519388E+01  0.23944559548E+02  0.61746122733E+02  0.00000000000E+00 0.  1.
         22    1    3    3    0    0 -0.25309971156E+02 -0.10069424308E+03 -0.11164737449E+02  0.10442498069E+03  0.00000000000E+00 0.  1.
</event>
<event>
 7    1  0.6358809E-006  0.7631901E+02  0.7818608E-02  0.1349336E+00
          2   -1    0    0  502    0  0.00000000000E+00  0.00000000000E+00  0.56094392502E+03  0.56094392502E+03  0.00000000000E+00 0. -1.
          1   -1    0    0  501    0 -0.00000000000E+00 -0.00000000000E+00 -0.25711449775E+03  0.25711449775E+03  0.00000000000E+00 0. -1.
         25    2    1    2    0    0  0.92356941164E+02 -0.82009443232E+02  0.30238999306E+02  0.17831056731E+03  0.12499963189E+03 0.  0.
          2    1    1    2  501    0 -0.23006081280E+02  0.70317291053E+02 -0.17273637829E+03  0.18791396324E+03  0.00000000000E+00 0. -1.
          1    1    1    2  502    0 -0.69350859884E+02  0.11692152179E+02  0.44632680625E+03  0.45183389223E+03  0.00000000000E+00 0. -1.
         22    1    3    3    0    0  0.54461982924E+02 -0.95758633150E+02 -0.21987721872E+02  0.11233558350E+03  0.00000000000E+00 0.  1.
         22    1    3    3    0    0  0.37894958240E+02  0.13749189918E+02  0.52226721178E+02  0.65974983808E+02  0.00000000000E+00 0.  1.
</event>
<event>
 7    1  0.6358809E-006  0.6396599E+02  0.7818608E-02  0.1460707E+00
          2   -1    0    0  502    0  0.00000000000E+00  0.00000000000E+00  0.26799439711E+03  0.26799439711E+03  0.00000000000E+00 0. -1.
          1   -1    0    0  501    0 -0.00000000000E+00 -0.00000000000E+00 -0.10722933169E+04  0.10722933169E+04  0.00000000000E+00 0. -1.
         25    2    1    2    0    0  0.33449973634E+02  0.48946052390E+02 -0.11922501262E+02  0.13885963853E+03  0.12500094558E+03 0.  0.
          2    1    1    2  501    0 -0.20216817609E+01 -0.64160197374E+02 -0.99436947136E+03  0.99643929253E+03  0.00000000000E+00 0. -1.
          1    1    1    2  502    0 -0.31428291873E+02  0.15214144984E+02  0.20199305284E+03  0.20498878295E+03  0.00000000000E+00 0. -1.
         22    1    3    3    0    0 -0.16337239322E+02  0.63617362603E+01 -0.56802591361E+02  0.59446711113E+02  0.00000000000E+00 0.  1.
         22    1    3    3    0    0  0.49787212956E+02  0.42584316130E+02  0.44880090099E+02  0.79412927420E+02  0.00000000000E+00 0.  1.
</event>
<event>
 7    1  0.6358809E-006  0.9520458E+02  0.7818608E-02  0.1460499E+00
          2   -1    0    0  502    0  0.00000000000E+00  0.00000000000E+00  0.24884553792E+03  0.24884553792E+03  0.00000000000E+00 0. -1.
          1   -1    0    0  501    0 -0.00000000000E+00 -0.00000000000E+00 -0.87492820192E+03  0.87492820192E+03  0.00000000000E+00 0. -1.
         25    2    1    2    0    0 -0.61918613643E+02 -0.46634482237E+02 -0.25606272954E+03  0.29529985592E+03  0.12500077520E+03 0.  0.
          2    1    1    2  501    0 -0.38065232943E+01 -0.23184990101E+02 -0.58897464389E+03  0.58944309694E+03  0.00000000000E+00 0. -1.
          1    1    1    2  502    0  0.65725136937E+02  0.69819472338E+02  0.21895470942E+03  0.23903078697E+03  0.00000000000E+00 0. -1.
         22    1    3    3    0    0  0.72394529380E+00  0.24138420861E+02 -0.20063793416E+01  0.24232478547E+02  0.00000000000E+00 0.  1.
         22    1    3    3    0    0 -0.62642558936E+02 -0.70772903099E+02 -0.25405635019E+03  0.27106737738E+03  0.00000000000E+00 0.  1.
</event>
<event>
 7    1  0.6358809E-006  0.9949815E+02  0.7818608E-02  0.1470605E+00
          2   -1    0    0  502    0  0.00000000000E+00  0.00000000000E+00  0.19004971868E+03  0.19004971868E+03  0.00000000000E+00 0. -1.
          1   -1    0    0  501    0 -0.00000000000E+00 -0.00000000000E+00 -0.33373026623E+04  0.33373026623E+04  0.00000000000E+00 0. -1.
         25    2    1    2    0    0  0.61627404714E+02 -0.95115741471E+02 -0.19576955742E+02  0.16986285115E+03  0.12500075887E+03 0.  0.
          2    1    1    2  501    0 -0.65641973889E+02  0.74602613175E+02 -0.32408643196E+04  0.32423873854E+04  0.00000000000E+00 0. -1.
          1    1    1    2  502    0  0.40145691752E+01  0.20513128296E+02  0.11318833178E+03  0.11510214442E+03  0.00000000000E+00 0. -1.
         22    1    3    3    0    0  0.81138007518E+02 -0.48698488417E+02  0.29929267103E+02  0.99250592278E+02  0.00000000000E+00 0. -1.
         22    1    3    3    0    0 -0.19510602804E+02 -0.46417253054E+02 -0.49506222845E+02  0.70612258873E+02  0.00000000000E+00 0. -1.
</event>
<event>
 7    1  0.6358809E-006  0.2429097E+03  0.7818608E-02  0.1226638E+00
          2   -1    0    0  502    0  0.00000000000E+00  0.00000000000E+00  0.11835328320E+04  0.11835328320E+04  0.00000000000E+00 0. -1.
          1   -1    0    0  501    0 -0.00000000000E+00 -0.00000000000E+00 -0.11738923575E+04  0.11738923575E+04  0.00000000000E+00 0. -1.
         25    2    1    2    0    0 -0.18189235690E+03  0.11161512366E+03  0.64683235974E+02  0.25564258032E+03  0.12500576997E+03 0.  0.
          2    1    1    2  501    0 -0.56615632505E+02 -0.41448222523E+02 -0.10621385441E+04  0.10644536495E+04  0.00000000000E+00 0. -1.
          1    1    1    2  502    0  0.23850798941E+03 -0.70166901138E+02  0.10070957827E+04  0.10373289597E+04  0.00000000000E+00 0. -1.
         22    1    3    3    0    0 -0.96153762902E+02  0.16023432184E+02  0.80290172599E+02  0.12628859139E+03  0.00000000000E+00 0.  1.
         22    1    3    3    0    0 -0.85738593999E+02  0.95591691477E+02 -0.15606936625E+02  0.12935398893E+03  0.00000000000E+00 0.  1.
</event>
<event>
 7    1  0.6358809E-006  0.7222188E+02  0.7818608E-02  0.1404104E+00
          2   -1    0    0  502    0  0.00000000000E+00  0.00000000000E+00  0.74714623282E+03  0.74714623282E+03  0.00000000000E+00 0. -1.
          1   -1    0    0  501    0 -0.00000000000E+00 -0.00000000000E+00 -0.10815512898E+04  0.10815512898E+04  0.00000000000E+00 0. -1.
         25    2    1    2    0    0  0.80391554355E+02 -0.41608727793E+02  0.18948441887E+03  0.24438184858E+03  0.12499621867E+03 0.  0.
          2    1    1    2  501    0 -0.37435230305E+02  0.61728261830E+02 -0.10518018623E+04  0.10542764971E+04  0.00000000000E+00 0. -1.
          1    1    1    2  502    0 -0.42956324050E+02 -0.20119534037E+02  0.52791238641E+03  0.53003917699E+03  0.00000000000E+00 0. -1.
         22    1    3    3    0    0 -0.29348275065E+02  0.12357946397E+02  0.44272194699E+02  0.54535009965E+02  0.00000000000E+00 0.  1.
         22    1    3    3    0    0  0.10973982942E+03 -0.53966674190E+02  0.14521222417E+03  0.18984683862E+03  0.00000000000E+00 0.  1.
</event>
<event>
 7    1  0.6358809E-006  0.8577495E+02  0.7818608E-02  0.1427150E+00
          2   -1    0    0  502    0  0.00000000000E+00  0.00000000000E+00  0.12282900689E+04  0.12282900689E+04  0.00000000000E+00 0. -1.
          1   -1    0    0  501    0 -0.00000000000E+00 -0.00000000000E+00 -0.26605240405E+03  0.26605240405E+03  0.00000000000E+00 0. -1.
         25    2    1    2    0    0  0.67715910092E+02 -0.35293038484E+02 -0.10487891448E+03  0.18015411614E+03  0.12499950326E+03 0.  0.
          2    1    1    2  501    0  0.17932470938E+02  0.28195119727E+02 -0.11969374202E+03  0.12427039136E+03  0.00000000000E+00 0. -1.
          1    1    1    2  502    0 -0.85648381030E+02  0.70979187574E+01  0.11868103214E+04  0.11899179655E+04  0.00000000000E+00 0. -1.
         22    1    3    3    0    0 -0.34560865787E+02 -0.78440560699E+01 -0.48843146663E+02  0.60345966191E+02  0.00000000000E+00 0. -1.
         22    1    3    3    0    0  0.10227677588E+03 -0.27448982414E+02 -0.56035767819E+02  0.11980814995E+03  0.00000000000E+00 0. -1.
</event>
<event>
 7    1  0.6358809E-006  0.9665340E+02  0.7818608E-02  0.1358321E+00
          2   -1    0    0  502    0  0.00000000000E+00  0.00000000000E+00  0.30318579221E+03  0.30318579221E+03  0.00000000000E+00 0. -1.
          1   -1    0    0  501    0 -0.00000000000E+00 -0.00000000000E+00 -0.32153878363E+04  0.32153878363E+04  0.00000000000E+00 0. -1.
         25    2    1    2    0    0  0.47829881522E+02  0.78129559449E+02  0.13843570720E+03  0.20780363364E+03  0.12500391794E+03 0.  0.
          2    1    1    2  501    0 -0.86217103019E+02 -0.43860609921E+02 -0.31748486332E+04  0.31763219273E+04  0.00000000000E+00 0. -1.
          1    1    1    2  502    0  0.38387221497E+02 -0.34268949527E+02  0.12421088194E+03  0.13444806755E+03  0.00000000000E+00 0. -1.
         22    1    3    3    0    0  0.77053082265E+02  0.29770231267E+02  0.34534753248E+02  0.89532638396E+02  0.00000000000E+00 0. -1.
         22    1    3    3    0    0 -0.29223200744E+02  0.48359328182E+02  0.10390095396E+03  0.11827099525E+03  0.00000000000E+00 0. -1.
</event>
<event>
 7    1  0.6358809E-006  0.7320986E+02  0.7818608E-02  0.1409243E+00
          2   -1    0    0  502    0  0.00000000000E+00  0.00000000000E+00  0.12526491284E+03  0.12526491284E+03  0.00000000000E+00 0. -1.
          1   -1    0    0  501    0 -0.00000000000E+00 -0.00000000000E+00 -0.14154462908E+04  0.14154462908E+04  0.00000000000E+00 0. -1.
         25    2    1    2    0    0  0.41672377031E+02 -0.71643856561E+02 -0.37861059177E+03  0.40723559328E+03  0.12500167619E+03 0.  0.
          2    1    1    2  501    0 -0.44918383766E+02 -0.15891219930E+01 -0.10098606281E+04  0.10108603636E+04  0.00000000000E+00 0. -1.
          1    1    1    2  502    0  0.32460067350E+01  0.73232978554E+02  0.98289841918E+02  0.12261524673E+03  0.00000000000E+00 0. -1.
         22    1    3    3    0    0  0.31525820826E+02 -0.99279982564E+02 -0.19310207040E+03  0.21940556490E+03  0.00000000000E+00 0. -1.
         22    1    3    3    0    0  0.10146556204E+02  0.27636126003E+02 -0.18550852136E+03  0.18783002838E+03  0.00000000000E+00 0. -1.
</event>
<event>
 7    1  0.6358809E-006  0.5510159E+02  0.7818608E-02  0.1470674E+00
          2   -1    0    0  502    0  0.00000000000E+00  0.00000000000E+00  0.18209704400E+03  0.18209704400E+03  0.00000000000E+00 0. -1.
          1   -1    0    0  501    0 -0.00000000000E+00 -0.00000000000E+00 -0.95006963804E+03  0.95006963804E+03  0.00000000000E+00 0. -1.
         25    2    1    2    0    0  0.17746009543E+02 -0.17650638755E+02 -0.57561475780E+03  0.58956264815E+03  0.12500120321E+03 0.  0.
          2    1    1    2  501    0 -0.80489422166E+01 -0.36856428741E+02 -0.36210080814E+03  0.36406067772E+03  0.00000000000E+00 0. -1.
          1    1    1    2  502    0 -0.96970673269E+01  0.54507067496E+02  0.16974297189E+03  0.17854335616E+03  0.00000000000E+00 0. -1.
         22    1    3    3    0    0  0.49132193794E+02 -0.58196248175E+02 -0.33625831393E+03  0.34477591194E+03  0.00000000000E+00 0. -1.
         22    1    3    3    0    0 -0.31386184250E+02  0.40545609420E+02 -0.23935644386E+03  0.24478673621E+03  0.00000000000E+00 0. -1.
</event>
<event>
 7    1  0.6358809E-006  0.1032118E+03  0.7818608E-02  0.1287609E+00
          2   -1    0    0  502    0  0.00000000000E+00  0.00000000000E+00  0.80007751014E+03  0.80007751014E+03  0.00000000000E+00 0. -1.
          1   -1    0    0  501    0 -0.00000000000E+00 -0.00000000000E+00 -0.62786067778E+03  0.62786067778E+03  0.00000000000E+00 0. -1.
         25    2    1    2    0    0 -0.42527875831E+02 -0.47426542117E+02 -0.30890467744E+03  0.33927166749E+03  0.12500106998E+03 0.  0.
          2    1    1    2  501    0 -0.59344165870E+02  0.68214144523E+02 -0.29349360959E+03  0.30710486548E+03  0.00000000000E+00 0. -1.
          1    1    1    2  502    0  0.10187204170E+03 -0.20787602406E+02  0.77461511939E+03  0.78156165495E+03  0.00000000000E+00 0. -1.
         22    1    3    3    0    0  0.41847514004E+02 -0.30661858763E+02 -0.87238964485E+02  0.10149877307E+03  0.00000000000E+00 0.  1.
         22    1    3    3    0    0 -0.84375389835E+02 -0.16764683354E+02 -0.22166571296E+03  0.23777289441E+03  0.00000000000E+00 0.  1.
</event>
<event>
 7    1  0.6358809E-006  0.7635502E+02  0.7818608E-02  0.1340702E+00
          2   -1    0    0  502    0  0.00000000000E+00  0.00000000000E+00  0.96678044599E+02  0.96678044599E+02  0.00000000000E+00 0. -1.
          1   -1    0    0  501    0 -0.00000000000E+00 -0.00000000000E+00 -0.27386280712E+03  0.27386280712E+03  0.00000000000E+00 0. -1.
         25    2    1    2    0    0 -0.61695927104E+02  0.79788349725E+01 -0.86164831879E+02  0.16407342211E+03  0.12500264142E+03 0.  0.
          2    1    1    2  501    0  0.64528605376E+02  0.67680171123E+02 -0.91390343732E+02  0.13075450815E+03  0.00000000000E+00 0. -1.
          1    1    1    2  502    0 -0.28326782719E+01 -0.75659006096E+02  0.37041308547E+00  0.75712921456E+02  0.00000000000E+00 0. -1.
         22    1    3    3    0    0 -0.80010862776E+02  0.73987023626E+01 -0.10860749970E+03  0.13510021447E+03  0.00000000000E+00 0. -1.
         22    1    3    3    0    0  0.18314935672E+02  0.58013260991E+00  0.22442667818E+02  0.28973207647E+02  0.00000000000E+00 0. -1.
</event>
<event>
 7    1  0.6358809E-006  0.1325304E+03  0.7818608E-02  0.1292437E+00
          2   -1    0    0  502    0  0.00000000000E+00  0.00000000000E+00  0.60194413008E+03  0.60194413008E+03  0.00000000000E+00 0. -1.
          1   -1    0    0  501    0 -0.00000000000E+00 -0.00000000000E+00 -0.23485494009E+04  0.23485494009E+04  0.00000000000E+00 0. -1.
         25    2    1    2    0    0 -0.18895577154E+02 -0.88298343208E+02 -0.33883926898E+02  0.15788667268E+03  0.12500576250E+03 0.  0.
          2    1    1    2  501    0  0.84221833910E+02  0.10448064235E+03 -0.22485585805E+04  0.22525597022E+04  0.00000000000E+00 0. -1.
          1    1    1    2  502    0 -0.65326256756E+02 -0.16182299143E+02  0.53583723663E+03  0.54004715608E+03  0.00000000000E+00 0. -1.
         22    1    3    3    0    0 -0.47191401826E+02 -0.60709827474E+02  0.30187654694E+02  0.82607542356E+02  0.00000000000E+00 0. -1.
         22    1    3    3    0    0  0.28295824672E+02 -0.27588515734E+02 -0.64071581591E+02  0.75279130321E+02  0.00000000000E+00 0. -1.
</event>
<event>
 7    1  0.6358809E-006  0.1237849E+03  0.7818608E-02  0.1320915E+00
          2   -1    0    0  502    0  0.00000000000E+00  0.00000000000E+00  0.19559001705E+03  0.19559001705E+03  0.00000000000E+00 0. -1.
          1   -1    0    0  501    0 -0.00000000000E+00 -0.00000000000E+00 -0.14421860932E+04  0.14421860932E+04  0.00000000000E+00 0. -1.
         25    2    1    2    0    0 -0.71552100262E+01 -0.97340723341E+02 -0.14907427305E+03  0.21765611948E+03  0.12499853603E+03 0.  0.
          2    1    1    2  501    0 -0.43951126061E+02  0.11916131008E+03 -0.12507212999E+04  0.12571534868E+04  0.00000000000E+00 0. -1.
          1    1    1    2  502    0  0.51106336087E+02 -0.21820586735E+02  0.15319949681E+03  0.16296650397E+03  0.00000000000E+00 0. -1.
         22    1    3    3    0    0 -0.47001961577E+02 -0.63913911641E+02 -0.25096562701E+02  0.83210636056E+02  0.00000000000E+00 0.  1.
         22    1    3    3    0    0  0.39846751551E+02 -0.33426811699E+02 -0.12397771035E+03  0.13444548343E+03  0.00000000000E+00 0.  1.
</event>
<event>
 7    1  0.6358809E-006  0.3317356E+02  0.7818608E-02  0.1583142E+00
          2   -1    0    0  502    0  0.00000000000E+00  0.00000000000E+00  0.88315459229E+03  0.88315459229E+03  0.00000000000E+00 0. -1.
          1   -1    0    0  501    0 -0.00000000000E+00 -0.00000000000E+00 -0.17614944952E+04  0.17614944952E+04  0.00000000000E+00 0. -1.
         25    2    1    2    0    0 -0.90397763902E+01 -0.55443026035E+01  0.25971995081E+03  0.28843035562E+03  0.12500064140E+03 0.  0.
          2    1    1    2  501    0 -0.20097175444E+01  0.33128866967E+02 -0.17466191108E+04  0.17469344232E+04  0.00000000000E+00 0. -1.
          1    1    1    2  502    0  0.11049493935E+02 -0.27584564364E+02  0.60855925703E+03  0.60928430870E+03  0.00000000000E+00 0. -1.
         22    1    3    3    0    0  0.81363872103E+01  0.51458155283E+02  0.57327134381E+02  0.77463171109E+02  0.00000000000E+00 0. -1.
         22    1    3    3    0    0 -0.17176163600E+02 -0.57002457886E+02  0.20239281642E+03  0.21096718451E+03  0.00000000000E+00 0. -1.
</event>
<event>
 7    1  0.6358809E-006  0.9621542E+02  0.7818608E-02  0.1349406E+00
          2   -1    0    0  502    0  0.00000000000E+00  0.00000000000E+00  0.16925509636E+04  0.16925509636E+04  0.00000000000E+00 0. -1.
          1   -1    0    0  501    0 -0.00000000000E+00 -0.00000000000E+00 -0.23213429368E+03  0.23213429368E+03  0.00000000000E+00 0. -1.
         25    2    1    2    0    0  0.12883000240E+03  0.27021152009E+02  0.15913448102E+03  0.24139459313E+03  0.12498101604E+03 0.  0.
          2    1    1    2  501    0 -0.49495590680E+02  0.25662384613E+02 -0.18537948049E+03  0.19358182577E+03  0.00000000000E+00 0. -1.
          1    1    1    2  502    0 -0.79334411717E+02 -0.52683536622E+02  0.14866616694E+04  0.14897088384E+04  0.00000000000E+00 0. -1.
         22    1    3    3    0    0  0.86740966626E+02  0.29206456663E+02  0.16933304262E+02  0.93079262971E+02  0.00000000000E+00 0.  1.
         22    1    3    3    0    0  0.42089035772E+02 -0.21853046539E+01  0.14220117676E+03  0.14831533016E+03  0.00000000000E+00 0.  1.
</event>
<event>
 7    1  0.6358809E-006  0.7486212E+02  0.7818608E-02  0.1420352E+00
          2   -1    0    0  502    0  0.00000000000E+00  0.00000000000E+00  0.86039247019E+03  0.86039247019E+03  0.00000000000E+00 0. -1.
          1   -1    0    0  501    0 -0.00000000000E+00 -0.00000000000E+00 -0.41396430663E+03  0.41396430663E+03  0.00000000000E+00 0. -1.
         25    2    1    2    0    0 -0.52750440040E+02  0.72683421497E+02  0.83084630885E+02  0.17491106018E+03  0.12500133759E+03 0.  0.
          2    1    1    2  501    0 -0.13341247612E+02 -0.38058460950E+02 -0.36503481501E+03  0.36725583931E+03  0.00000000000E+00 0. -1.
          1    1    1    2  502    0  0.66091687652E+02 -0.34624960547E+02  0.72837834769E+03  0.73218987732E+03  0.00000000000E+00 0. -1.
         22    1    3    3    0    0  0.31902207885E+02  0.59780548147E+02  0.29550065645E+02  0.73923414317E+02  0.00000000000E+00 0.  1.
         22    1    3    3    0    0 -0.84652647925E+02  0.12902873350E+02  0.53534565240E+02  0.10098764586E+03  0.00000000000E+00 0.  1.
</event>
<event>
 7    1  0.6358809E-006  0.1133207E+03  0.7818608E-02  0.1267039E+00
          2   -1    0    0  502    0  0.00000000000E+00  0.00000000000E+00  0.28215294682E+03  0.28215294682E+03  0.00000000000E+00 0. -1.
          1   -1    0    0  501    0 -0.00000000000E+00 -0.00000000000E+00 -0.42189848259E+03  0.42189848259E+03  0.00000000000E+00 0. -1.
         25    2    1    2    0    0 -0.74024340547E+02  0.36291248422E+02 -0.18082681788E+03  0.23477707895E+03  0.12500112412E+03 0.  0.
          2    1    1    2  501    0  0.59421773718E+02  0.80727763318E+02 -0.18719122412E+03  0.21234046564E+03  0.00000000000E+00 0. -1.
          1    1    1    2  502    0  0.14602566830E+02 -0.11701901174E+03  0.22827250623E+03  0.25693388482E+03  0.00000000000E+00 0. -1.
         22    1    3    3    0    0  0.22201568380E+02  0.19499389133E+02 -0.11058230860E+03  0.11446214567E+03  0.00000000000E+00 0. -1.
         22    1    3    3    0    0 -0.96225908927E+02  0.16791859288E+02 -0.70244509277E+02  0.12031493328E+03  0.00000000000E+00 0. -1.
</event>
<event>
 7    1  0.6358809E-006  0.5063196E+02  0.7818608E-02  0.1441977E+00
          2   -1    0    0  502    0  0.00000000000E+00  0.00000000000E+00  0.12284077624E+04  0.12284077624E+04  0.00000000000E+00 0. -1.
          1   -1    0    0  501    0 -0.00000000000E+00 -0.00000000000E+00 -0.51863755286E+03  0.51863755286E+03  0.00000000000E+00 0. -1.
         25    2    1    2    0    0  0.23980676201E+01 -0.95614628030E+00  0.85818026081E+02  0.15164293750E+03  0.12499672776E+03 0.  0.
          2    1    1    2  501    0 -0.29913634806E+02 -0.41546666636E+02 -0.48379624225E+03  0.48649743584E+03  0.00000000000E+00 0. -1.
          1    1    1    2  502    0  0.27515567186E+02  0.42502812916E+02  0.11077484257E+04  0.11089049419E+04  0.00000000000E+00 0. -1.
         22    1    3    3    0    0  0.47218937285E+02 -0.22620041394E+02  0.87347565709E+02  0.10183757433E+03  0.00000000000E+00 0.  1.
         22    1    3    3    0    0 -0.44820869665E+02  0.21663895114E+02 -0.15295396286E+01  0.49805363170E+02  0.00000000000E+00 0.  1.
</event>
<event>
 7    1  0.6358809E-006  0.1748914E+03  0.7818608E-02  0.1224404E+00
          2   -1    0    0  502    0  0.00000000000E+00  0.00000000000E+00  0.36083349062E+04  0.36083349062E+04  0.00000000000E+00 0. -1.
          1   -1    0    0  501    0 -0.00000000000E+00 -0.00000000000E+00 -0.17516151491E+03  0.17516151491E+03  0.00000000000E+00 0. -1.
         25    2    1    2    0    0 -0.34749871478E+02  0.13750158528E+03  0.19221559711E+03  0.26960417872E+03  0.12500135155E+03 0.  0.
          2    1    1    2  501    0  0.95021354717E+02  0.30333119538E+02 -0.11555229870E+03  0.15264825491E+03  0.00000000000E+00 0. -1.
          1    1    1    2  502    0 -0.60271483239E+02 -0.16783470482E+03  0.33565100928E+04  0.33612439874E+04  0.00000000000E+00 0. -1.
         22    1    3    3    0    0  0.64893335520E+01  0.58463471708E+02  0.12292147716E+01  0.58835363032E+02  0.00000000000E+00 0. -1.
         22    1    3    3    0    0 -0.41239205030E+02  0.79038113570E+02  0.19098638234E+03  0.21076881569E+03  0.00000000000E+00 0. -1.
</event>
<event>
 7    1  0.6358809E-006  0.6681116E+02  0.7818608E-02  0.1422466E+00
          2   -1    0    0  502    0  0.00000000000E+00  0.00000000000E+00  0.63072331472E+03  0.63072331472E+03  0.00000000000E+00 0. -1.
          1   -1    0    0  501    0 -0.00000000000E+00 -0.00000000000E+00 -0.23759221760E+04  0.23759221760E+04  0.00000000000E+00 0. -1.
         25    2    1    2    0    0  0.83188263235E+01 -0.39313748583E+02  0.45525352510E+03  0.47380973937E+03  0.12500049324E+03 0.  0.
          2    1    1    2  501    0  0.31589991415E+02  0.58912745215E+02 -0.23631892218E+04  0.23641345006E+04  0.00000000000E+00 0. -1.
          1    1    1    2  502    0 -0.39908817738E+02 -0.19598996632E+02  0.16273683540E+03  0.16870125073E+03  0.00000000000E+00 0. -1.
         22    1    3    3    0    0  0.17985024900E+02 -0.23962955980E+02  0.45467374831E+03  0.45565985316E+03  0.00000000000E+00 0. -1.
         22    1    3    3    0    0 -0.96661985769E+01 -0.15350792603E+02  0.57977679190E+00  0.18149886214E+02  0.00000000000E+00 0. -1.
</event>
<event>
 7    1  0.6358809E-006  0.8900228E+02  0.7818608E-02  0.1393694E+00
          2   -1    0    0  502    0  0.00000000000E+00  0.00000000000E+00  0.47172550536E+03  0.47172550536E+03  0.00000000000E+00 0. -1.
          1   -1    0    0  501    0 -0.00000000000E+00 -0.00000000000E+00 -0.96945772652E+03  0.96945772652E+03  0.00000000000E+00 0. -1.
         25    2    1    2    0    0  0.55796336415E+02  0.48970218612E+02 -0.35811371294E+03  0.38649868667E+03  0.12499795972E+03 0.  0.
          2    1    1    2  501    0 -0.37642927313E+02 -0.86626943573E+02 -0.59244782812E+03  0.59992970120E+03  0.00000000000E+00 0. -1.
          1    1    1    2  502    0 -0.18153409102E+02  0.37656724962E+02  0.45282931990E+03  0.45475484402E+03  0.00000000000E+00 0. -1.
         22    1    3    3    0    0  0.91777567072E+02  0.14616248363E+02 -0.26665409559E+03  0.28238477867E+03  0.00000000000E+00 0. -1.
         22    1    3    3    0    0 -0.35981230657E+02  0.34353970249E+02 -0.91459617349E+02  0.10411390799E+03  0.00000000000E+00 0. -1.
</event>
<event>
 7    1  0.6358809E-006  0.9327430E+02  0.7818608E-02  0.1322985E+00
          2   -1    0    0  502    0  0.00000000000E+00  0.00000000000E+00  0.45580106476E+03  0.45580106476E+03  0.00000000000E+00 0. -1.
          1   -1    0    0  501    0 -0.00000000000E+00 -0.00000000000E+00 -0.37791337861E+03  0.37791337861E+03  0.00000000000E+00 0. -1.
         25    2    1    2    0    0 -0.11065139614E+03  0.91979456867E+02 -0.13632495615E+03  0.23433787305E+03  0.12500317246E+03 0.  0.
          2    1    1    2  501    0  0.40323560599E+02 -0.74782946798E+02 -0.17974933412E+03  0.19881725727E+03  0.00000000000E+00 0. -1.
          1    1    1    2  502    0  0.70327835537E+02 -0.17196510069E+02  0.39396197641E+03  0.40055931305E+03  0.00000000000E+00 0. -1.
         22    1    3    3    0    0 -0.11813101242E+03  0.64540604959E+02 -0.50248701027E+02  0.14368492523E+03  0.00000000000E+00 0. -1.
         22    1    3    3    0    0  0.74796162799E+01  0.27438851908E+02 -0.86076255119E+02  0.90652947823E+02  0.00000000000E+00 0. -1.
</event>
<event>
 7    1  0.6358809E-006  0.4776820E+02  0.7818608E-02  0.1486320E+00
          2   -1    0    0  502    0  0.00000000000E+00  0.00000000000E+00  0.69686541586E+03  0.69686541586E+03  0.00000000000E+00 0. -1.
          1   -1    0    0  501    0 -0.00000000000E+00 -0.00000000000E+00 -0.36566943895E+03  0.36566943895E+03  0.00000000000E+00 0. -1.
         25    2    1    2    0    0 -0.63078450048E+02 -0.55019506023E+02  0.10631530813E+03  0.18420922911E+03  0.12499623371E+03 0.  0.
          2    1    1    2  501    0  0.41708796873E+02  0.22449666698E+02 -0.32431218957E+03  0.32775296730E+03  0.00000000000E+00 0. -1.
          1    1    1    2  502    0  0.21369653175E+02  0.32569839325E+02  0.54919285835E+03  0.55057265840E+03  0.00000000000E+00 0. -1.
         22    1    3    3    0    0 -0.80830040224E+02 -0.78203249553E+01  0.19034645163E+02  0.83408456415E+02  0.00000000000E+00 0.  1.
         22    1    3    3    0    0  0.17751590176E+02 -0.47199181067E+02  0.87280662971E+02  0.10080077270E+03  0.00000000000E+00 0.  1.
</event>
<event>
 7    1  0.6358809E-006  0.2377852E+03  0.7818608E-02  0.1306818E+00
          2   -1    0    0  502    0  0.00000000000E+00  0.00000000000E+00  0.58967369942E+03  0.58967369942E+03  0.00000000000E+00 0. -1.
          1   -1    0    0  501    0 -0.00000000000E+00 -0.00000000000E+00 -0.23360611067E+03  0.23360611067E+03  0.00000000000E+00 0. -1.
         25    2    1    2    0    0 -0.12842936920E+02  0.25842150875E+03  0.86216659638E+02  0.29999122665E+03  0.12495921917E+03 0.  0.
          2    1    1    2  501    0  0.18184504558E+02 -0.22600813856E+03 -0.23637574245E+02  0.22796729989E+03  0.00000000000E+00 0. -1.
          1    1    1    2  502    0 -0.53415676378E+01 -0.32413370189E+02  0.29348850336E+03  0.29532128355E+03  0.00000000000E+00 0. -1.
         22    1    3    3    0    0 -0.30492422200E+02  0.24657909173E+03  0.43441369735E+02  0.25222646351E+03  0.00000000000E+00 0.  1.
         22    1    3    3    0    0  0.17649485281E+02  0.11842417016E+02  0.42775289903E+02  0.47764763139E+02  0.00000000000E+00 0.  1.
</event>
<event>
 7    1  0.6358809E-006  0.7083298E+02  0.7818608E-02  0.1523122E+00
          2   -1    0    0  502    0  0.00000000000E+00  0.00000000000E+00  0.43168755435E+03  0.43168755435E+03  0.00000000000E+00 0. -1.
          1   -1    0    0  501    0 -0.00000000000E+00 -0.00000000000E+00 -0.10662082518E+03  0.10662082518E+03  0.00000000000E+00 0. -1.
         25    2    1    2    0    0  0.61239985405E+02 -0.50397052615E+02  0.36389923966E+02  0.15244090517E+03  0.12499521702E+03 0.  0.
          2    1    1    2  501    0  0.24351941114E+01  0.20287290368E+02 -0.42567389983E+02  0.47217443925E+02  0.00000000000E+00 0. -1.
          1    1    1    2  502    0 -0.63675179516E+02  0.30109762247E+02  0.33124419519E+03  0.33865003043E+03  0.00000000000E+00 0. -1.
         22    1    3    3    0    0  0.28310599093E+01 -0.65332809121E+02 -0.21521177354E+02  0.68844403713E+02  0.00000000000E+00 0.  1.
         22    1    3    3    0    0  0.58408925496E+02  0.14935756506E+02  0.57911101320E+02  0.83596501458E+02  0.00000000000E+00 0.  1.
</event>
<event>
 7    1  0.6358809E-006  0.1437281E+03  0.7818608E-02  0.1344768E+00
          2   -1    0    0  502    0  0.00000000000E+00  0.00000000000E+00  0.16885636651E+04  0.16885636651E+04  0.00000000000E+00 0. -1.
          1   -1    0    0  501    0 -0.00000000000E+00 -0.00000000000E+00 -0.93759524205E+03  0.93759524205E+03  0.00000000000E+00 0. -1.
         25    2    1    2    0    0  0.11968964272E+03  0.24198873787E+02  0.26056238637E+03  0.31373347991E+03  0.12499897262E+03 0.  0.
          2    1    1    2  501    0  0.27537078108E+02 -0.27384274857E+02 -0.90672434166E+03  0.90755562967E+03  0.00000000000E+00 0. -1.
          1    1    1    2  502    0 -0.14722672082E+03  0.31854010695E+01  0.13971303784E+04  0.14048697976E+04  0.00000000000E+00 0. -1.
         22    1    3    3    0    0  0.12132380351E+03  0.44554694809E+02  0.26312291226E+03  0.29315226945E+03  0.00000000000E+00 0.  1.
         22    1    3    3    0    0 -0.16341607954E+01 -0.20355821022E+02 -0.25605258864E+01  0.20581210455E+02  0.00000000000E+00 0.  1.
</event>
<event>
 7    1  0.6358809E-006  0.3141990E+02  0.7818608E-02  0.1635413E+00
          2   -1    0    0  502    0  0.00000000000E+00  0.00000000000E+00  0.11471322865E+04  0.11471322865E+04  0.00000000000E+00 0. -1.
          1   -1    0    0  501    0 -0.00000000000E+00 -0.00000000000E+00 -0.44307703957E+03  0.44307703957E+03  0.00000000000E+00 0. -1.
         25    2    1    2    0    0  0.18324874948E+02  0.19241960509E+02  0.28424998136E+03  0.31165426365E+03  0.12499709621E+03 0.  0.
          2    1    1    2  501    0  0.13363727514E+02 -0.18709144895E+02 -0.42877108142E+03  0.42938707663E+03  0.00000000000E+00 0. -1.
          1    1    1    2  502    0 -0.31688602461E+02 -0.53281561433E+00  0.84857634697E+03  0.84916798577E+03  0.00000000000E+00 0. -1.
         22    1    3    3    0    0  0.87022443926E+01  0.59052556505E+02  0.25351596610E+03  0.26044822625E+03  0.00000000000E+00 0.  1.
         22    1    3    3    0    0  0.96226305552E+01 -0.39810595996E+02  0.30734015256E+02  0.51206037399E+02  0.00000000000E+00 0.  1.
</event>
<event>
 7    1  0.6358809E-006  0.1420465E+03  0.7818608E-02  0.1284560E+00
          2   -1    0    0  502    0  0.00000000000E+00  0.00000000000E+00  0.60758448879E+03  0.60758448879E+03  0.00000000000E+00 0. -1.
          1   -1    0    0  501    0 -0.00000000000E+00 -0.00000000000E+00 -0.51223835439E+03  0.51223835439E+03  0.00000000000E+00 0. -1.
         25    2    1    2    0    0  0.30726731394E+02  0.12878697621E+03  0.73408331455E+02  0.19632653783E+03  0.12500043625E+03 0.  0.
          2    1    1    2  501    0 -0.66343748753E+02  0.13029710079E+02 -0.43680863226E+03  0.44201023468E+03  0.00000000000E+00 0. -1.
          1    1    1    2  502    0  0.35617017359E+02 -0.14181668629E+03  0.45874643521E+03  0.48148607067E+03  0.00000000000E+00 0. -1.
         22    1    3    3    0    0  0.43421084195E+02 -0.90890350842E+00  0.45801304058E+02  0.63118746119E+02  0.00000000000E+00 0. -1.
         22    1    3    3    0    0 -0.12694352801E+02  0.12969587972E+03  0.27607027397E+02  0.13320779171E+03  0.00000000000E+00 0. -1.
</event>
<event>
 7    1  0.6358809E-006  0.1145771E+03  0.7818608E-02  0.1386857E+00
          2   -1    0    0  502    0  0.00000000000E+00  0.00000000000E+00  0.25674978026E+04  0.25674978026E+04  0.00000000000E+00 0. -1.
          1   -1    0    0  501    0 -0.00000000000E+00 -0.00000000000E+00 -0.58064771999E+03  0.58064771999E+03  0.00000000000E+00 0. -1.
         25    2    1    2    0    0  0.12157782921E+03 -0.51424710281E+02  0.17392618962E+04  0.17487378436E+04  0.12500572988E+03 0.  0.
          2    1    1    2  501    0 -0.21242876595E+02  0.26937780797E+02 -0.57215571211E+03  0.57318327151E+03  0.00000000000E+00 0. -1.
          1    1    1    2  502    0 -0.10033495262E+03  0.24486929484E+02  0.81974389846E+03  0.82622440747E+03  0.00000000000E+00 0. -1.
         22    1    3    3    0    0  0.47148691297E+02 -0.39027639461E+02  0.24351791379E+03  0.25109187575E+03  0.00000000000E+00 0. -1.
         22    1    3    3    0    0  0.74429137915E+02 -0.12397070820E+02  0.14957439824E+04  0.14976459678E+04  0.00000000000E+00 0. -1.
</event>
<event>
 7    1  0.6358809E-006  0.7964442E+02  0.7818608E-02  0.1351234E+00
          2   -1    0    0  502    0  0.00000000000E+00  0.00000000000E+00  0.50677021282E+03  0.50677021282E+03  0.00000000000E+00 0. -1.
          1   -1    0    0  501    0 -0.00000000000E+00 -0.00000000000E+00 -0.76238653791E+02  0.76238653791E+02  0.00000000000E+00 0. -1.
         25    2    1    2    0    0 -0.76507257659E+01  0.45881558330E+02  0.30898070830E+03  0.33653551793E+03  0.12499370275E+03 0.  0.
          2    1    1    2  501    0  0.73812439596E+02 -0.41433823608E+02 -0.22763001298E+02  0.87653820259E+02  0.00000000000E+00 0. -1.
          1    1    1    2  502    0 -0.66161713830E+02 -0.44477347216E+01  0.14431385202E+03  0.15881952841E+03  0.00000000000E+00 0. -1.
         22    1    3    3    0    0  0.37222804572E+02  0.72282742327E+02  0.18801966546E+03  0.20484561655E+03  0.00000000000E+00 0. -1.
         22    1    3    3    0    0 -0.44873530338E+02 -0.26401183997E+02  0.12096104284E+03  0.13168990139E+03  0.00000000000E+00 0. -1.
</event>
<event>
 7    1  0.6358809E-006  0.8152085E+02  0.7818608E-02  0.1353499E+00
          2   -1    0    0  502    0  0.00000000000E+00  0.00000000000E+00  0.17427136221E+03  0.17427136221E+03  0.00000000000E+00 0. -1.
          1   -1    0    0  501    0 -0.00000000000E+00 -0.00000000000E+00 -0.83707922524E+03  0.83707922524E+03  0.00000000000E+00 0. -1.
         25    2    1    2    0    0 -0.20916306762E+02  0.51636344233E+02 -0.51032990715E+03  0.52836458315E+03  0.12501485779E+03 0.  0.
          2    1    1    2  501    0  0.59993363893E+02  0.20959462760E+02 -0.30395433668E+03  0.31052655535E+03  0.00000000000E+00 0. -1.
          1    1    1    2  502    0 -0.39077057131E+02 -0.72595806993E+02  0.15147638081E+03  0.17245944894E+03  0.00000000000E+00 0. -1.
         22    1    3    3    0    0 -0.40098569067E+02  0.62872613577E+02 -0.15161472291E+03  0.16896119371E+03  0.00000000000E+00 0. -1.
         22    1    3    3    0    0  0.19182262306E+02 -0.11236269344E+02 -0.35871518424E+03  0.35940338944E+03  0.00000000000E+00 0. -1.
</event>
<event>
 7    1  0.6358809E-006  0.1367262E+03  0.7818608E-02  0.1298094E+00
          2   -1    0    0  502    0  0.00000000000E+00  0.00000000000E+00  0.47661052579E+03  0.47661052579E+03  0.00000000000E+00 0. -1.
          1   -1    0    0  501    0 -0.00000000000E+00 -0.00000000000E+00 -0.54092836301E+03  0.54092836301E+03  0.00000000000E+00 0. -1.
         25    2    1    2    0    0 -0.66777196803E+02  0.75434634491E+02  0.15165509988E+02  0.16125590595E+03  0.12499558559E+03 0.  0.
          2    1    1    2  501    0  0.46859523422E+02 -0.13403897048E+03 -0.45451455964E+03  0.47617827068E+03  0.00000000000E+00 0. -1.
          1    1    1    2  502    0  0.19917673381E+02  0.58604335993E+02  0.37503121244E+03  0.38010471217E+03  0.00000000000E+00 0. -1.
         22    1    3    3    0    0 -0.23663871449E+01  0.35420410814E+02  0.62491823901E+02  0.71870949241E+02  0.00000000000E+00 0.  1.
         22    1    3    3    0    0 -0.64410809658E+02  0.40014223677E+02 -0.47326313913E+02  0.89384956709E+02  0.00000000000E+00 0.  1.
</event>
<event>
 7    1  0.6358809E-006  0.1194824E+03  0.7818608E-02  0.1333979E+00
          2   -1    0    0  502    0  0.00000000000E+00  0.00000000000E+00  0.15102155081E+03  0.15102155081E+03  0.00000000000E+00 0. -1.
          1   -1    0    0  501    0 -0.00000000000E+00 -0.00000000000E+00 -0.63201129795E+03  0.63201129795E+03  0.00000000000E+00 0. -1.
         25    2    1    2    0    0 -0.14074479430E+03  0.50321692506E+02 -0.20771800450E+03  0.28480384549E+03  0.12500036461E+03 0.  0.
          2    1    1    2  501    0  0.11366690288E+03 -0.67534381847E+01 -0.37087782225E+03  0.38796408697E+03  0.00000000000E+00 0. -1.
          1    1    1    2  502    0  0.27077891417E+02 -0.43568254321E+02  0.97606079614E+02  0.11026491630E+03  0.00000000000E+00 0. -1.
         22    1    3    3    0    0 -0.16044670190E+03  0.25544795117E+02 -0.16421574585E+03  0.23100322918E+03  0.00000000000E+00 0.  1.
         22    1    3    3    0    0  0.19701907600E+02  0.24776897389E+02 -0.43502258649E+02  0.53800616306E+02  0.00000000000E+00 0.  1.
</event>
<event>
 7    1  0.6358809E-006  0.7140979E+02  0.7818608E-02  0.1393112E+00
          2   -1    0    0  502    0  0.00000000000E+00  0.00000000000E+00  0.27960157649E+03  0.27960157649E+03  0.00000000000E+00 0. -1.
          1   -1    0    0  501    0 -0.00000000000E+00 -0.00000000000E+00 -0.24645407049E+04  0.24645407049E+04  0.00000000000E+00 0. -1.
         25    2    1    2    0    0 -0.31219928110E+02  0.24253315891E+02 -0.11624191096E+03  0.17520913690E+03  0.12499260997E+03 0.  0.
          2    1    1    2  501    0 -0.41329348034E+02 -0.32124605036E+02 -0.23131899277E+04  0.23137821304E+04  0.00000000000E+00 0. -1.
          1    1    1    2  502    0  0.72549276144E+02  0.78712891451E+01  0.24449271022E+03  0.25515101414E+03  0.00000000000E+00 0. -1.
         22    1    3    3    0    0 -0.72840275040E+02  0.43003225805E+02 -0.84835181830E+02  0.11979979622E+03  0.00000000000E+00 0.  1.
         22    1    3    3    0    0  0.41620346930E+02 -0.18749909914E+02 -0.31406729135E+02  0.55409340686E+02  0.00000000000E+00 0.  1.
</event>
<event>
 7    1  0.6358809E-006  0.2523352E+02  0.7818608E-02  0.1664438E+00
          2   -1    0    0  502    0  0.00000000000E+00  0.00000000000E+00  0.23183263629E+03  0.23183263629E+03  0.00000000000E+00 0. -1.
          1   -1    0    0  501    0 -0.00000000000E+00 -0.00000000000E+00 -0.31681697497E+03  0.31681697497E+03  0.00000000000E+00 0. -1.
         25    2    1    2    0    0 -0.53131001613E+01  0.39413581823E+01 -0.13616709120E+03  0.18495560135E+03  0.12499333744E+03 0.  0.
          2    1    1    2  501    0  0.17729914749E+02  0.18025735329E+02 -0.15445655487E+03  0.15651231375E+03  0.00000000000E+00 0. -1.
          1    1    1    2  502    0 -0.12416814587E+02 -0.21967093512E+02  0.20563930739E+03  0.20718169617E+03  0.00000000000E+00 0. -1.
         22    1    3    3    0    0  0.32348340711E+02 -0.36436725135E+01  0.98170879702E+01  0.34000981050E+02  0.00000000000E+00 0. -1.
         22    1    3    3    0    0 -0.37661440872E+02  0.75850306958E+01 -0.14598417917E+03  0.15095462030E+03  0.00000000000E+00 0. -1.
</event>
<event>
 7    1  0.6358809E-006  0.3570799E+02  0.7818608E-02  0.1553467E+00
          2   -1    0    0  502    0  0.00000000000E+00  0.00000000000E+00  0.53475777598E+03  0.53475777598E+03  0.00000000000E+00 0. -1.
          1   -1    0    0  501    0 -0.00000000000E+00 -0.00000000000E+00 -0.50111297008E+03  0.50111297008E+03  0.00000000000E+00 0. -1.
         25    2    1    2    0    0  0.61408440798E+02  0.28384543402E+02 -0.28513632270E+03  0.31859371488E+03  0.12499021455E+03 0.  0.
          2    1    1    2  501    0 -0.32332409103E+02 -0.77649558200E+01 -0.19724150846E+03  0.20002472816E+03  0.00000000000E+00 0. -1.
          1    1    1    2  502    0 -0.29076031696E+02 -0.20619587582E+02  0.51602263707E+03  0.51725230302E+03  0.00000000000E+00 0. -1.
         22    1    3    3    0    0  0.53688621160E+02 -0.32532248155E+02 -0.22124694247E+03  0.22998048780E+03  0.00000000000E+00 0. -1.
         22    1    3    3    0    0  0.77198196387E+01  0.60916791557E+02 -0.63889380223E+02  0.88613227084E+02  0.00000000000E+00 0. -1.
</event>
<event>
 7    1  0.6358809E-006  0.1370301E+03  0.7818608E-02  0.1289621E+00
          2   -1    0    0  502    0  0.00000000000E+00  0.00000000000E+00  0.44023998351E+03  0.44023998351E+03  0.00000000000E+00 0. -1.
          1   -1    0    0  501    0 -0.00000000000E+00 -0.00000000000E+00 -0.47286547900E+03  0.47286547900E+03  0.00000000000E+00 0. -1.
         25    2    1    2    0    0 -0.14069738304E+02 -0.89903847006E+02 -0.36215409152E+02  0.15879928743E+03  0.12499999434E+03 0.  0.
          2    1    1    2  501    0  0.63612220247E+02  0.13475212245E+03 -0.35738045192E+03  0.38720206157E+03  0.00000000000E+00 0. -1.
          1    1    1    2  502    0 -0.49542481943E+02 -0.44848275447E+02  0.36097036558E+03  0.36710411351E+03  0.00000000000E+00 0. -1.
         22    1    3    3    0    0  0.30907173059E+02 -0.56069149792E+02 -0.68624523764E+02  0.93852693978E+02  0.00000000000E+00 0.  1.
         22    1    3    3    0    0 -0.44976911364E+02 -0.33834697213E+02  0.32409114612E+02  0.64946593454E+02  0.00000000000E+00 0.  1.
</event>
<event>
 7    1  0.6358809E-006  0.1009910E+03  0.7818608E-02  0.1330495E+00
          2   -1    0    0  502    0  0.00000000000E+00  0.00000000000E+00  0.16462737711E+04  0.16462737711E+04  0.00000000000E+00 0. -1.
          1   -1    0    0  501    0 -0.00000000000E+00 -0.00000000000E+00 -0.51089973532E+02  0.51089973532E+02  0.00000000000E+00 0. -1.
         25    2    1    2    0    0  0.66982386676E+02 -0.20875730407E+02  0.27825511105E+03  0.31300927484E+03  0.12500585212E+03 0.  0.
          2    1    1    2  501    0 -0.78325333020E+02  0.82411283324E+02  0.65200441117E+02  0.13106324784E+03  0.00000000000E+00 0. -1.
          1    1    1    2  502    0  0.11342946344E+02 -0.61535552917E+02  0.12517282453E+04  0.12532912219E+04  0.00000000000E+00 0. -1.
         22    1    3    3    0    0  0.65473513804E+02 -0.68555166531E+02  0.20061861803E+03  0.22188830922E+03  0.00000000000E+00 0. -1.
         22    1    3    3    0    0  0.15088728711E+01  0.47679436124E+02  0.77636493027E+02  0.91120965623E+02  0.00000000000E+00 0. -1.
</event>
<event>
 7    1  0.6358809E-006  0.4955742E+02  0.7818608E-02  0.1529559E+00
          2   -1    0    0  502    0  0.00000000000E+00  0.00000000000E+00  0.19512544868E+04  0.19512544868E+04  0.00000000000E+00 0. -1.
          1   -1    0    0  501    0 -0.00000000000E+00 -0.00000000000E+00 -0.10359228715E+03  0.10359228715E+03  0.00000000000E+00 0. -1.
         25    2    1    2    0    0  0.37534313296E+02 -0.67223004742E+02  0.33145404524E+03  0.36251174314E+03  0.12500089106E+03 0.  0.
          2    1    1    2  501    0 -0.23363017879E+02  0.43091555072E+02 -0.81110396935E+02  0.94771352285E+02  0.00000000000E+00 0. -1.
          1    1    1    2  502    0 -0.14171295417E+02  0.24131449671E+02  0.15973185513E+04  0.15975636785E+04  0.00000000000E+00 0. -1.
         22    1    3    3    0    0  0.68255108484E+02 -0.14951816589E+02  0.25785888501E+03  0.26715823257E+03  0.00000000000E+00 0. -1.
         22    1    3    3    0    0 -0.30720795188E+02 -0.52271188153E+02  0.73595160234E+02  0.95353510569E+02  0.00000000000E+00 0. -1.
</event>
<event>
 7    1  0.6358809E-006  0.7116500E+02  0.7818608E-02  0.1378249E+00
          2   -1    0    0  502    0  0.00000000000E+00  0.00000000000E+00  0.23771036450E+04  0.23771036450E+04  0.00000000000E+00 0. -1.
          1   -1    0    0  501    0 -0.00000000000E+00 -0.00000000000E+00 -0.20510566295E+03  0.20510566295E+03  0.00000000000E+00 0. -1.
         25    2    1    2    0    0 -0.30172067443E+02 -0.10083928294E+03 -0.83026374198E+02  0.18329541433E+03  0.12499966187E+03 0.  0.
          2    1    1    2  501    0 -0.23597076473E+02  0.54331162831E+02 -0.59113346896E+02  0.83684437346E+02  0.00000000000E+00 0. -1.
          1    1    1    2  502    0  0.53769143916E+02  0.46508120105E+02  0.23141377032E+04  0.23152294563E+04  0.00000000000E+00 0. -1.
         22    1    3    3    0    0  0.32015256561E+01 -0.44913871172E+02  0.29110542866E+02  0.53618367153E+02  0.00000000000E+00 0. -1.
         22    1    3    3    0    0 -0.33373593099E+02 -0.55925411764E+02 -0.11213691706E+03  0.12967704718E+03  0.00000000000E+00 0. -1.
</event>
<event>
 7    1  0.6358809E-006  0.3232091E+02  0.7818608E-02  0.1598764E+00
          2   -1    0    0  502    0  0.00000000000E+00  0.00000000000E+00  0.11295905844E+04  0.11295905844E+04  0.00000000000E+00 0. -1.
          1   -1    0    0  501    0 -0.00000000000E+00 -0.00000000000E+00 -0.16821619413E+03  0.16821619413E+03  0.00000000000E+00 0. -1.
         25    2    1    2    0    0  0.27666336711E+02 -0.10003185466E+02  0.81167783751E+03  0.82177347256E+03  0.12500095360E+03 0.  0.
          2    1    1    2  501    0  0.21821423024E+01  0.27646694896E+02 -0.16101867291E+03  0.16338945654E+03  0.00000000000E+00 0. -1.
          1    1    1    2  502    0 -0.29848479013E+02 -0.17643509430E+02  0.31071522566E+03  0.31264384942E+03  0.00000000000E+00 0. -1.
         22    1    3    3    0    0  0.82953174516E+01 -0.63972881531E+02  0.29782134060E+03  0.30472757142E+03  0.00000000000E+00 0.  1.
         22    1    3    3    0    0  0.19371019259E+02  0.53969696065E+02  0.51385649690E+03  0.51704590114E+03  0.00000000000E+00 0.  1.
</event>
<event>
 7    1  0.6358809E-006  0.6843498E+02  0.7818608E-02  0.1386638E+00
          2   -1    0    0  502    0  0.00000000000E+00  0.00000000000E+00  0.58670327100E+03  0.58670327100E+03  0.00000000000E+00 0. -1.
          1   -1    0    0  501    0 -0.00000000000E+00 -0.00000000000E+00 -0.25192417222E+03  0.25192417222E+03  0.00000000000E+00 0. -1.
         25    2    1    2    0    0 -0.11716211137E+03  0.38547391167E+02 -0.15570482351E+03  0.23469549999E+03  0.12500049577E+03 0.  0.
          2    1    1    2  501    0  0.50094526374E+02 -0.28305499044E+02 -0.39391608896E+02  0.69730636740E+02  0.00000000000E+00 0. -1.
          1    1    1    2  502    0  0.67067584999E+02 -0.10241892122E+02  0.52987553119E+03  0.53420130650E+03  0.00000000000E+00 0. -1.
         22    1    3    3    0    0 -0.65249964548E+02 -0.12420397634E+02 -0.41106984289E+01  0.66548643807E+02  0.00000000000E+00 0.  1.
         22    1    3    3    0    0 -0.51912146825E+02  0.50967788801E+02 -0.15159412508E+03  0.16814685618E+03  0.00000000000E+00 0.  1.
</event>
<event>
 7    1  0.6358809E-006  0.6106902E+02  0.7818608E-02  0.1541532E+00
          2   -1    0    0  502    0  0.00000000000E+00  0.00000000000E+00  0.33017657634E+03  0.33017657634E+03  0.00000000000E+00 0. -1.
          1   -1    0    0  501    0 -0.00000000000E+00 -0.00000000000E+00 -0.69714108302E+03  0.69714108302E+03  0.00000000000E+00 0. -1.
         25    2    1    2    0    0 -0.30767416694E+02  0.75455905899E+02 -0.66196844745E+02  0.16324084270E+03  0.12500129122E+03 0.  0.
          2    1    1    2  501    0  0.80078359684E+01 -0.19410312211E+02 -0.57898186717E+03  0.57936248426E+03  0.00000000000E+00 0. -1.
          1    1    1    2  502    0  0.22759580725E+02 -0.56045593687E+02  0.27821420523E+03  0.28471433241E+03  0.00000000000E+00 0. -1.
         22    1    3    3    0    0  0.38201179158E+02  0.29128404561E+02  0.11599473537E+02  0.49420054913E+02  0.00000000000E+00 0. -1.
         22    1    3    3    0    0 -0.68968595852E+02  0.46327501338E+02 -0.77796318282E+02  0.11382078779E+03  0.00000000000E+00 0. -1.
</event>
<event>
 7    1  0.6358809E-006  0.5276912E+02  0.7818608E-02  0.1533269E+00
          2   -1    0    0  502    0  0.00000000000E+00  0.00000000000E+00  0.48085445405E+02  0.48085445405E+02  0.00000000000E+00 0. -1.
          1   -1    0    0  501    0 -0.00000000000E+00 -0.00000000000E+00 -0.18462588088E+04  0.18462588088E+04  0.00000000000E+00 0. -1.
         25    2    1    2    0    0 -0.31230464743E+02  0.61756384622E+02 -0.64374536646E+03  0.65941027492E+03  0.12499848342E+03 0.  0.
          2    1    1    2  501    0  0.78500618438E+01 -0.51213724779E+02 -0.11899738999E+04  0.11911013187E+04  0.00000000000E+00 0. -1.
          1    1    1    2  502    0  0.23380402899E+02 -0.10542659843E+02  0.35545902942E+02  0.43832660566E+02  0.00000000000E+00 0. -1.
         22    1    3    3    0    0 -0.56556847692E+02 -0.16119350145E+02 -0.32725429290E+03  0.33249644012E+03  0.00000000000E+00 0.  1.
         22    1    3    3    0    0  0.25326382949E+02  0.77875734767E+02 -0.31649107356E+03  0.32691383480E+03  0.00000000000E+00 0.  1.
</event>
<event>
 7    1  0.6358809E-006  0.3298815E+02  0.7818608E-02  0.1579054E+00
          2   -1    0    0  502    0  0.00000000000E+00  0.00000000000E+00  0.21317065404E+03  0.21317065404E+03  0.00000000000E+00 0. -1.
          1   -1    0    0  501    0 -0.00000000000E+00 -0.00000000000E+00 -0.74390750902E+03  0.74390750902E+03  0.00000000000E+00 0. -1.
         25    2    1    2    0    0 -0.10663848480E+02 -0.16740848626E+02  0.59096969988E+02  0.13968388350E+03  0.12500064708E+03 0.  0.
          2    1    1    2  501    0  0.32781501957E+02 -0.44706761301E+01 -0.70115343010E+03  0.70193357688E+03  0.00000000000E+00 0. -1.
          1    1    1    2  502    0 -0.22117653477E+02  0.21211524756E+02  0.11131960513E+03  0.11546070268E+03  0.00000000000E+00 0. -1.
         22    1    3    3    0    0  0.22013894282E+02 -0.26765328590E+02  0.88217455620E+02  0.94780345178E+02  0.00000000000E+00 0. -1.
         22    1    3    3    0    0 -0.32677742762E+02  0.10024479964E+02 -0.29120485632E+02  0.44903538324E+02  0.00000000000E+00 0. -1.
</event>
<event>
 7    1  0.6358809E-006  0.9793089E+02  0.7818608E-02  0.1330584E+00
          2   -1    0    0  502    0  0.00000000000E+00  0.00000000000E+00  0.37357022412E+03  0.37357022412E+03  0.00000000000E+00 0. -1.
          1   -1    0    0  501    0 -0.00000000000E+00 -0.00000000000E+00 -0.10803019273E+04  0.10803019273E+04  0.00000000000E+00 0. -1.
         25    2    1    2    0    0  0.28371746538E+02  0.83227039742E+02 -0.10038518306E+03  0.18284746038E+03  0.12499725054E+03 0.  0.
          2    1    1    2  501    0  0.56423710431E+02 -0.31202704835E+02 -0.93009963344E+03  0.93233179288E+03  0.00000000000E+00 0. -1.
          1    1    1    2  502    0 -0.84795456969E+02 -0.52024334907E+02  0.32375311327E+03  0.33869289821E+03  0.00000000000E+00 0. -1.
         22    1    3    3    0    0 -0.28708502983E+01  0.99591235246E+02 -0.10781809870E+03  0.14680394520E+03  0.00000000000E+00 0. -1.
         22    1    3    3    0    0  0.31242596836E+02 -0.16364195505E+02  0.74329156400E+01  0.36043515179E+02  0.00000000000E+00 0. -1.
</event>
<event>
 7    1  0.6358809E-006  0.6887876E+02  0.7818608E-02  0.1415462E+00
          2   -1    0    0  502    0  0.00000000000E+00  0.00000000000E+00  0.23395496530E+04  0.23395496530E+04  0.00000000000E+00 0. -1.
          1   -1    0    0  501    0 -0.00000000000E+00 -0.00000000000E+00 -0.29657359277E+03  0.29657359277E+03  0.00000000000E+00 0. -1.
         25    2    1    2    0    0  0.90343716475E+01  0.49909105644E+02 -0.59347172971E-01  0.13489688381E+03  0.12499850816E+03 0.  0.
          2    1    1    2  501    0 -0.54389530502E+02 -0.46069664188E+02 -0.22331718880E+03  0.23441672679E+03  0.00000000000E+00 0. -1.
          1    1    1    2  502    0  0.45355158855E+02 -0.38394414562E+01  0.22663525962E+04  0.22668096351E+04  0.00000000000E+00 0. -1.
         22    1    3    3    0    0 -0.27761322477E+01  0.86422681614E+02 -0.23911041314E+02  0.89712455681E+02  0.00000000000E+00 0.  1.
         22    1    3    3    0    0  0.11810503895E+02 -0.36513575969E+02  0.23851694141E+02  0.45184428133E+02  0.00000000000E+00 0.  1.
</event>
<event>
 7    1  0.6358809E-006  0.1441181E+03  0.7818608E-02  0.1417549E+00
          2   -1    0    0  502    0  0.00000000000E+00  0.00000000000E+00  0.68071021468E+03  0.68071021468E+03  0.00000000000E+00 0. -1.
          1   -1    0    0  501    0 -0.00000000000E+00 -0.00000000000E+00 -0.76676933735E+02  0.76676933735E+02  0.00000000000E+00 0. -1.
         25    2    1    2    0    0 -0.11919698555E+03 -0.57687004299E+02  0.19002636169E+03  0.26319097340E+03  0.12499503394E+03 0.  0.
          2    1    1    2  501    0 -0.68332198309E+01 -0.20286212085E+02 -0.23785533462E+02  0.31999607749E+02  0.00000000000E+00 0. -1.
          1    1    1    2  502    0  0.12603020538E+03  0.77973216383E+02  0.43779245272E+03  0.46219656727E+03  0.00000000000E+00 0. -1.
         22    1    3    3    0    0 -0.12942155015E+03 -0.10245887379E+02  0.11281545714E+03  0.17199489301E+03  0.00000000000E+00 0. -1.
         22    1    3    3    0    0  0.10224564602E+02 -0.47441116919E+02  0.77210904551E+02  0.91196080384E+02  0.00000000000E+00 0. -1.
</event>
<event>
 7    1  0.6358809E-006  0.8409072E+02  0.7818608E-02  0.1408026E+00
          2   -1    0    0  502    0  0.00000000000E+00  0.00000000000E+00  0.16795243868E+04  0.16795243868E+04  0.00000000000E+00 0. -1.
          1   -1    0    0  501    0 -0.00000000000E+00 -0.00000000000E+00 -0.30174617985E+03  0.30174617985E+03  0.00000000000E+00 0. -1.
         25    2    1    2    0    0  0.55848896652E+02 -0.79895465270E+01 -0.53794461145E+02  0.14731256762E+03  0.12499686563E+03 0.  0.
          2    1    1    2  501    0  0.25664240289E+02  0.30032849778E+02 -0.19814979772E+03  0.20204941879E+03  0.00000000000E+00 0. -1.
          1    1    1    2  502    0 -0.81513136942E+02 -0.22043303251E+02  0.16297224658E+04  0.16319085802E+04  0.00000000000E+00 0. -1.
         22    1    3    3    0    0  0.30724847520E+02  0.85361115608E+01 -0.92762384831E+02  0.98090476068E+02  0.00000000000E+00 0.  1.
         22    1    3    3    0    0  0.25124049133E+02 -0.16525658088E+02  0.38967923687E+02  0.49222091549E+02  0.00000000000E+00 0.  1.
</event>
<event>
 7    1  0.6358809E-006  0.2518311E+03  0.7818608E-02  0.1326770E+00
          2   -1    0    0  502    0  0.00000000000E+00  0.00000000000E+00  0.19424209251E+04  0.19424209251E+04  0.00000000000E+00 0. -1.
          1   -1    0    0  501    0 -0.00000000000E+00 -0.00000000000E+00 -0.13345151523E+04  0.13345151523E+04  0.00000000000E+00 0. -1.
         25    2    1    2    0    0  0.11904241796E+03  0.20131888925E+03 -0.87976777077E+03  0.91886720371E+03  0.12500086046E+03 0.  0.
          2    1    1    2  501    0  0.25409671495E+02  0.51724531552E+01 -0.42654569434E+03  0.42733316632E+03  0.00000000000E+00 0. -1.
          1    1    1    2  502    0 -0.14445208946E+03 -0.20649134241E+03  0.19142192379E+04  0.19307357073E+04  0.00000000000E+00 0. -1.
         22    1    3    3    0    0  0.35571838651E+02  0.16394115949E+03 -0.65648030630E+03  0.67757542166E+03  0.00000000000E+00 0. -1.
         22    1    3    3    0    0  0.83470579309E+02  0.37377729762E+02 -0.22328746447E+03  0.24129178204E+03  0.00000000000E+00 0. -1.
</event>
<event>
 7    1  0.6358809E-006  0.4646817E+02  0.7818608E-02  0.1477341E+00
          2   -1    0    0  502    0  0.00000000000E+00  0.00000000000E+00  0.58455146574E+03  0.58455146574E+03  0.00000000000E+00 0. -1.
          1   -1    0    0  501    0 -0.00000000000E+00 -0.00000000000E+00 -0.17568187850E+03  0.17568187850E+03  0.00000000000E+00 0. -1.
         25    2    1    2    0    0  0.10853801703E+02  0.22311804462E+01  0.34589111991E+03  0.36795227107E+03  0.12500169510E+03 0.  0.
          2    1    1    2  501    0  0.29640353566E+02 -0.35787432662E+02 -0.15822730686E+03  0.16490958593E+03  0.00000000000E+00 0. -1.
          1    1    1    2  502    0 -0.40494155270E+02  0.33556252215E+02  0.22120577419E+03  0.22737148724E+03  0.00000000000E+00 0. -1.
         22    1    3    3    0    0 -0.18179765052E+02 -0.49469443828E+02  0.24771299974E+03  0.25325769479E+03  0.00000000000E+00 0.  1.
         22    1    3    3    0    0  0.29033566756E+02  0.51700624274E+02  0.98178120164E+02  0.11469457628E+03  0.00000000000E+00 0.  1.
</event>
<event>
 7    1  0.6358809E-006  0.7359412E+02  0.7818608E-02  0.1403089E+00
          2   -1    0    0  502    0  0.00000000000E+00  0.00000000000E+00  0.17277387354E+04  0.17277387354E+04  0.00000000000E+00 0. -1.
          1   -1    0    0  501    0 -0.00000000000E+00 -0.00000000000E+00 -0.38388675756E+02  0.38388675756E+02  0.00000000000E+00 0. -1.
         25    2    1    2    0    0  0.53218977669E+02 -0.44188715484E+02  0.26568896658E+03  0.30166398006E+03  0.12500251093E+03 0.  0.
          2    1    1    2  501    0 -0.77656676986E+02  0.41307142359E+01  0.55600434900E+02  0.95598277399E+02  0.00000000000E+00 0. -1.
          1    1    1    2  502    0  0.24437699318E+02  0.40058001249E+02  0.13680606582E+04  0.13688651537E+04  0.00000000000E+00 0. -1.
         22    1    3    3    0    0  0.15102238180E+02 -0.73699666908E+02  0.79987097882E+02  0.10980735097E+03  0.00000000000E+00 0.  1.
         22    1    3    3    0    0  0.38116739489E+02  0.29510951424E+02  0.18570186870E+03  0.19185662908E+03  0.00000000000E+00 0.  1.
</event>
<event>
 7    1  0.6358809E-006  0.3921961E+02  0.7818608E-02  0.1524498E+00
          2   -1    0    0  502    0  0.00000000000E+00  0.00000000000E+00  0.20424160659E+04  0.20424160659E+04  0.00000000000E+00 0. -1.
          1   -1    0    0  501    0 -0.00000000000E+00 -0.00000000000E+00 -0.21902366303E+04  0.21902366303E+04  0.00000000000E+00 0. -1.
         25    2    1    2    0    0  0.32479081383E+02  0.54451594065E+02  0.19877676740E+03  0.24320684467E+03  0.12496999325E+03 0.  0.
          2    1    1    2  501    0 -0.34851535501E+02 -0.17961892616E+02 -0.21676607659E+04  0.21680153263E+04  0.00000000000E+00 0. -1.
          1    1    1    2  502    0  0.23724541187E+01 -0.36489701449E+02  0.18210634342E+04  0.18214305252E+04  0.00000000000E+00 0. -1.
         22    1    3    3    0    0  0.50236146546E+02 -0.21166849929E+02  0.12370009848E+03  0.13517921556E+03  0.00000000000E+00 0. -1.
         22    1    3    3    0    0 -0.17757065164E+02  0.75618443994E+02  0.75076668919E+02  0.10802762911E+03  0.00000000000E+00 0. -1.
</event>
<event>
 7    1  0.6358809E-006  0.1751547E+03  0.7818608E-02  0.1305661E+00
          2   -1    0    0  502    0  0.00000000000E+00  0.00000000000E+00  0.84331998904E+03  0.84331998904E+03  0.00000000000E+00 0. -1.
          1   -1    0    0  501    0 -0.00000000000E+00 -0.00000000000E+00 -0.13527575011E+03  0.13527575011E+03  0.00000000000E+00 0. -1.
         25    2    1    2    0    0 -0.93657955124E+02  0.12606183039E+03  0.46202810476E+03  0.50374472265E+03  0.12500151346E+03 0.  0.
          2    1    1    2  501    0 -0.37736907521E+02  0.24643211959E+02 -0.80339231501E+02  0.92118153494E+02  0.00000000000E+00 0. -1.
          1    1    1    2  502    0  0.13139486264E+03 -0.15070504235E+03  0.32635536567E+03  0.38273286300E+03  0.00000000000E+00 0. -1.
         22    1    3    3    0    0 -0.10163793929E+03  0.71704196186E+02  0.19625715921E+03  0.23235454589E+03  0.00000000000E+00 0.  1.
         22    1    3    3    0    0  0.79799841630E+01  0.54357634202E+02  0.26577094555E+03  0.27139017676E+03  0.00000000000E+00 0.  1.
</event>
<event>
 7    1  0.6358809E-006  0.1392229E+03  0.7818608E-02  0.1291409E+00
          2   -1    0    0  502    0  0.00000000000E+00  0.00000000000E+00  0.11460085240E+04  0.11460085240E+04  0.00000000000E+00 0. -1.
          1   -1    0    0  501    0 -0.00000000000E+00 -0.00000000000E+00 -0.17679958034E+03  0.17679958034E+03  0.00000000000E+00 0. -1.
         25    2    1    2    0    0 -0.11528385783E+03  0.10237023082E+03  0.36517658522E+03  0.41562829606E+03  0.12499163995E+03 0.  0.
          2    1    1    2  501    0  0.59931453976E+02  0.24333033118E+02 -0.13798332259E+03  0.15239184030E+03  0.00000000000E+00 0. -1.
          1    1    1    2  502    0  0.55352403859E+02 -0.12670326393E+03  0.74201568103E+03  0.75478796798E+03  0.00000000000E+00 0. -1.
         22    1    3    3    0    0 -0.90727533734E+02  0.18056098585E+02  0.27330728178E+03  0.28853834814E+03  0.00000000000E+00 0. -1.
         22    1    3    3    0    0 -0.24556324100E+02  0.84314132230E+02  0.91869303441E+02  0.12708994792E+03  0.00000000000E+00 0. -1.
</event>
<event>
 7    1  0.6358809E-006  0.9191020E+02  0.7818608E-02  0.1348210E+00
          2   -1    0    0  502    0  0.00000000000E+00  0.00000000000E+00  0.28135294887E+03  0.28135294887E+03  0.00000000000E+00 0. -1.
          1   -1    0    0  501    0 -0.00000000000E+00 -0.00000000000E+00 -0.25502531716E+04  0.25502531716E+04  0.00000000000E+00 0. -1.
         25    2    1    2    0    0 -0.47177045232E+02 -0.14254915206E+03  0.88315549223E+02  0.21440720411E+03  0.12499951435E+03 0.  0.
          2    1    1    2  501    0  0.23665237558E+02  0.88476029072E+02 -0.24796317572E+04  0.24813225712E+04  0.00000000000E+00 0. -1.
          1    1    1    2  502    0  0.23511807674E+02  0.54073122993E+02  0.12241598523E+03  0.13587634514E+03  0.00000000000E+00 0. -1.
         22    1    3    3    0    0  0.12829511402E+02 -0.78268286535E+02 -0.12869767485E+02  0.80350183292E+02  0.00000000000E+00 0.  1.
         22    1    3    3    0    0 -0.60006556634E+02 -0.64280865529E+02  0.10118531671E+03  0.13405702081E+03  0.00000000000E+00 0.  1.
</event>
<event>
 7    1  0.6358809E-006  0.4442019E+02  0.7818608E-02  0.1483602E+00
          2   -1    0    0  502    0  0.00000000000E+00  0.00000000000E+00  0.13933178033E+04  0.13933178033E+04  0.00000000000E+00 0. -1.
          1   -1    0    0  501    0 -0.00000000000E+00 -0.00000000000E+00 -0.40516218356E+02  0.40516218356E+02  0.00000000000E+00 0. -1.
         25    2    1    2    0    0  0.46252365013E+01 -0.29112227312E+00  0.56528612652E+03  0.57895985523E+03  0.12499852627E+03 0.  0.
          2    1    1    2  501    0  0.17293405805E+02 -0.40915664198E+02 -0.18057493015E+02  0.47950250418E+02  0.00000000000E+00 0. -1.
          1    1    1    2  502    0 -0.21918642307E+02  0.41206786471E+02  0.80557295146E+03  0.80692391603E+03  0.00000000000E+00 0. -1.
         22    1    3    3    0    0  0.52638915739E+02  0.36736756108E+02  0.30933321496E+03  0.31592322260E+03  0.00000000000E+00 0.  1.
         22    1    3    3    0    0 -0.48013679238E+02 -0.37027878381E+02  0.25595291156E+03  0.26303663263E+03  0.00000000000E+00 0.  1.
</event>
<event>
 7    1  0.6358809E-006  0.6880023E+02  0.7818608E-02  0.1415278E+00
          2   -1    0    0  502    0  0.00000000000E+00  0.00000000000E+00  0.12189125583E+04  0.12189125583E+04  0.00000000000E+00 0. -1.
          1   -1    0    0  501    0 -0.00000000000E+00 -0.00000000000E+00 -0.51873648505E+03  0.51873648505E+03  0.00000000000E+00 0. -1.
         25    2    1    2    0    0 -0.24691979173E+02 -0.49982423777E+02  0.59529986790E+02  0.14925434887E+03  0.12500041923E+03 0.  0.
          2    1    1    2  501    0 -0.39342065170E+02  0.23123279287E+02 -0.47169049044E+03  0.47389281796E+03  0.00000000000E+00 0. -1.
          1    1    1    2  502    0  0.64034044342E+02  0.26859144490E+02  0.11123365769E+04  0.11145018766E+04  0.00000000000E+00 0. -1.
         22    1    3    3    0    0 -0.42025450222E+02 -0.58241536265E+02  0.88824706949E+02  0.11422803324E+03  0.00000000000E+00 0.  1.
         22    1    3    3    0    0  0.17333471050E+02  0.82591124881E+01 -0.29294720158E+02  0.35026315634E+02  0.00000000000E+00 0.  1.
</event>
<event>
 7    1  0.6358809E-006  0.5979740E+02  0.7818608E-02  0.1516502E+00
          2   -1    0    0  502    0  0.00000000000E+00  0.00000000000E+00  0.15885215526E+04  0.15885215526E+04  0.00000000000E+00 0. -1.
          1   -1    0    0  501    0 -0.00000000000E+00 -0.00000000000E+00 -0.23574748658E+02  0.23574748658E+02  0.00000000000E+00 0. -1.
         25    2    1    2    0    0  0.30057881890E+02 -0.64263269463E+02  0.29142254262E+03  0.32493856782E+03  0.12499892179E+03 0.  0.
          2    1    1    2  501    0  0.12062756275E+02  0.22238650867E+02  0.20073856591E+02  0.32295934725E+02  0.00000000000E+00 0. -1.
          1    1    1    2  502    0 -0.42120638165E+02  0.42024618596E+02  0.12534504047E+04  0.12548617987E+04  0.00000000000E+00 0. -1.
         22    1    3    3    0    0  0.79722118895E+01  0.20137750933E+02  0.98495998579E+00  0.21680759240E+02  0.00000000000E+00 0. -1.
         22    1    3    3    0    0  0.22085670000E+02 -0.84401020396E+02  0.29043758263E+03  0.30325780858E+03  0.00000000000E+00 0. -1.
</event>
<event>
 7    1  0.6358809E-006  0.7046334E+02  0.7818608E-02  0.1452050E+00
          2   -1    0    0  502    0  0.00000000000E+00  0.00000000000E+00  0.28452390834E+03  0.28452390834E+03  0.00000000000E+00 0. -1.
          1   -1    0    0  501    0 -0.00000000000E+00 -0.00000000000E+00 -0.17245062477E+04  0.17245062477E+04  0.00000000000E+00 0. -1.
         25    2    1    2    0    0  0.46376807837E+02  0.48530647119E+02  0.93374081342E+00  0.14184015946E+03  0.12494689652E+03 0.  0.
          2    1    1    2  501    0 -0.18810535183E+02 -0.68029415782E+02 -0.16519574203E+04  0.16534645918E+04  0.00000000000E+00 0. -1.
          1    1    1    2  502    0 -0.27566272655E+02  0.19498768663E+02  0.21104134020E+03  0.21372540476E+03  0.00000000000E+00 0. -1.
         22    1    3    3    0    0  0.62889353767E+02  0.74119561206E+02 -0.26606285211E+02  0.10078032836E+03  0.00000000000E+00 0. -1.
         22    1    3    3    0    0 -0.16512545929E+02 -0.25588914087E+02  0.27540026025E+02  0.41059831109E+02  0.00000000000E+00 0. -1.
</event>
<event>
 7    1  0.6358809E-006  0.6228552E+02  0.7818608E-02  0.1506303E+00
          2   -1    0    0  502    0  0.00000000000E+00  0.00000000000E+00  0.67877333844E+03  0.67877333844E+03  0.00000000000E+00 0. -1.
          1   -1    0    0  501    0 -0.00000000000E+00 -0.00000000000E+00 -0.40387682484E+03  0.40387682484E+03  0.00000000000E+00 0. -1.
         25    2    1    2    0    0 -0.26834637748E+02  0.28387951702E+02 -0.22216489399E+02  0.13283299413E+03  0.12500023338E+03 0.  0.
          2    1    1    2  501    0  0.35090662301E+02 -0.53067485959E+02 -0.32297599399E+03  0.32918232841E+03  0.00000000000E+00 0. -1.
          1    1    1    2  502    0 -0.82560245530E+01  0.24679534257E+02  0.62008899698E+03  0.62063484073E+03  0.00000000000E+00 0. -1.
         22    1    3    3    0    0 -0.11366460200E+02  0.70398114883E+02  0.17010849776E+02  0.73310708677E+02  0.00000000000E+00 0. -1.
         22    1    3    3    0    0 -0.15468177547E+02 -0.42010163181E+02 -0.39227339175E+02  0.59522285456E+02  0.00000000000E+00 0. -1.
</event>
<event>
 7    1  0.6358809E-006  0.3656409E+02  0.7818608E-02  0.1540292E+00
          2   -1    0    0  502    0  0.00000000000E+00  0.00000000000E+00  0.13222002570E+03  0.13222002570E+03  0.00000000000E+00 0. -1.
          1   -1    0    0  501    0 -0.00000000000E+00 -0.00000000000E+00 -0.49990327485E+03  0.49990327485E+03  0.00000000000E+00 0. -1.
         25    2    1    2    0    0  0.56411515778E+02  0.29465774324E+02 -0.30963755329E+03  0.33992809497E+03  0.12500081750E+03 0.  0.
          2    1    1    2  501    0 -0.20027668887E+02 -0.29133289623E+02 -0.17043490283E+03  0.17406295467E+03  0.00000000000E+00 0. -1.
          1    1    1    2  502    0 -0.36383846891E+02 -0.33248470090E+00  0.11238920697E+03  0.11813225091E+03  0.00000000000E+00 0. -1.
         22    1    3    3    0    0  0.29533631439E+02 -0.25167264106E+01 -0.29373535349E+03  0.29522707733E+03  0.00000000000E+00 0.  1.
         22    1    3    3    0    0  0.26877884339E+02  0.31982500735E+02 -0.15902199793E+02  0.44701017640E+02  0.00000000000E+00 0.  1.
</event>
<event>
 7    1  0.6358809E-006  0.1793376E+03  0.7818608E-02  0.1295842E+00
          2   -1    0    0  502    0  0.00000000000E+00  0.00000000000E+00  0.97334954673E+03  0.97334954673E+03  0.00000000000E+00 0. -1.
          1   -1    0    0  501    0 -0.00000000000E+00 -0.00000000000E+00 -0.52635537885E+03  0.52635537885E+03  0.00000000000E+00 0. -1.
         25    2    1    2    0    0  0.47720205844E+02  0.21702637115E+03 -0.10094621937E+03  0.27421022253E+03  0.12499377231E+03 0.  0.
          2    1    1    2  501    0 -0.25102050764E+02 -0.41128856606E+02 -0.32813269256E+03  0.33165156373E+03  0.00000000000E+00 0. -1.
          1    1    1    2  502    0 -0.22618155080E+02 -0.17589751454E+03  0.87607307980E+03  0.89384313932E+03  0.00000000000E+00 0. -1.
         22    1    3    3    0    0 -0.11444343056E+02  0.18682639997E+03 -0.61841229885E+02  0.19712791387E+03  0.00000000000E+00 0. -1.
         22    1    3    3    0    0  0.59164548900E+02  0.30199971181E+02 -0.39104989485E+02  0.77082308660E+02  0.00000000000E+00 0. -1.
</event>
<event>
 7    1  0.6358809E-006  0.1815235E+03  0.7818608E-02  0.1215936E+00
          2   -1    0    0  502    0  0.00000000000E+00  0.00000000000E+00  0.90540350289E+03  0.90540350289E+03  0.00000000000E+00 0. -1.
          1   -1    0    0  501    0 -0.00000000000E+00 -0.00000000000E+00 -0.22234549658E+03  0.22234549658E+03  0.00000000000E+00 0. -1.
         25    2    1    2    0    0  0.73870624431E+02  0.88745578142E+02  0.44841416715E+03  0.47961753979E+03  0.12500028952E+03 0.  0.
          2    1    1    2  501    0 -0.17675918018E+03 -0.67628243403E+02 -0.15497016930E+03  0.24460813653E+03  0.00000000000E+00 0. -1.
          1    1    1    2  502    0  0.10288855575E+03 -0.21117334739E+02  0.38961400846E+03  0.40352332314E+03  0.00000000000E+00 0. -1.
         22    1    3    3    0    0  0.10002156757E+03  0.27890006281E+02  0.28157401995E+03  0.30011013835E+03  0.00000000000E+00 0.  1.
         22    1    3    3    0    0 -0.26150943143E+02  0.60855571862E+02  0.16684014720E+03  0.17950740144E+03  0.00000000000E+00 0.  1.
</event>
<event>
 7    1  0.6358809E-006  0.6628988E+02  0.7818608E-02  0.1394446E+00
          2   -1    0    0  502    0  0.00000000000E+00  0.00000000000E+00  0.70486741425E+03  0.70486741425E+03  0.00000000000E+00 0. -1.
          1   -1    0    0  501    0 -0.00000000000E+00 -0.00000000000E+00 -0.47318245964E+03  0.47318245964E+03  0.00000000000E+00 0. -1.
         25    2    1    2    0    0  0.24673200206E+01  0.56395671037E+02  0.44886599724E+02  0.14431424268E+03  0.12500093770E+03 0.  0.
          2    1    1    2  501    0  0.52876041836E+02 -0.17797901924E+02 -0.41975220580E+03  0.42344368621E+03  0.00000000000E+00 0. -1.
          1    1    1    2  502    0 -0.55343361856E+02 -0.38597769113E+02  0.60655056068E+03  0.61029194501E+03  0.00000000000E+00 0. -1.
         22    1    3    3    0    0  0.28400562429E+02  0.77784622871E+02  0.64884369057E+02  0.10519990898E+03  0.00000000000E+00 0.  1.
         22    1    3    3    0    0 -0.25933242408E+02 -0.21388951833E+02 -0.19997769333E+02  0.39114333698E+02  0.00000000000E+00 0.  1.
</event>
<event>
 7    1  0.6358809E-006  0.2884069E+02  0.7818608E-02  0.1653023E+00
          2   -1    0    0  502    0  0.00000000000E+00  0.00000000000E+00  0.26030621146E+04  0.26030621146E+04  0.00000000000E+00 0. -1.
          1   -1    0    0  501    0 -0.00000000000E+00 -0.00000000000E+00 -0.11131508288E+04  0.11131508288E+04  0.00000000000E+00 0. -1.
         25    2    1    2    0    0  0.36002321039E+02 -0.34736522325E+02  0.13020235368E+04  0.13089663585E+04  0.12499937778E+03 0.  0.
          2    1    1    2  501    0 -0.16079893186E+02  0.23938593147E+02 -0.11093930964E+04  0.11097678412E+04  0.00000000000E+00 0. -1.
          1    1    1    2  502    0 -0.19922427853E+02  0.10797929179E+02  0.12972808454E+04  0.12974787436E+04  0.00000000000E+00 0. -1.
         22    1    3    3    0    0  0.45454176065E+02 -0.50955393435E+02  0.12700882412E+04  0.12719224327E+04  0.00000000000E+00 0.  1.
         22    1    3    3    0    0 -0.94518550260E+01  0.16218871110E+02  0.31935295522E+02  0.37043925867E+02  0.00000000000E+00 0.  1.
</event>
<event>
 7    1  0.6358809E-006  0.5183231E+02  0.7818608E-02  0.1444207E+00
          2   -1    0    0  502    0  0.00000000000E+00  0.00000000000E+00  0.19516565566E+04  0.19516565566E+04  0.00000000000E+00 0. -1.
          1   -1    0    0  501    0 -0.00000000000E+00 -0.00000000000E+00 -0.21323300296E+02  0.21323300296E+02  0.00000000000E+00 0. -1.
         25    2    1    2    0    0 -0.74086950295E+02 -0.22971005506E+02  0.15467128239E+04  0.15536931638E+04  0.12500137816E+03 0.  0.
          2    1    1    2  501    0  0.29462910660E+02  0.42324601831E+02  0.24869093786E+02  0.57253007349E+02  0.00000000000E+00 0. -1.
          1    1    1    2  502    0  0.44624039635E+02 -0.19353596325E+02  0.35875133860E+03  0.36203368566E+03  0.00000000000E+00 0. -1.
         22    1    3    3    0    0  0.35358620438E+02 -0.43243771403E+00  0.36477501485E+03  0.36648496627E+03  0.00000000000E+00 0.  1.
         22    1    3    3    0    0 -0.10944557073E+03 -0.22538567792E+02  0.11819378090E+04  0.11872081976E+04  0.00000000000E+00 0.  1.
</event>
<event>
 7    1  0.6358809E-006  0.4330746E+02  0.7818608E-02  0.1500773E+00
          2   -1    0    0  502    0  0.00000000000E+00  0.00000000000E+00  0.88171740389E+03  0.88171740389E+03  0.00000000000E+00 0. -1.
          1   -1    0    0  501    0 -0.00000000000E+00 -0.00000000000E+00 -0.23042951834E+03  0.23042951834E+03  0.00000000000E+00 0. -1.
         25    2    1    2    0    0 -0.98096857677E+01  0.10243080738E+01  0.21299125405E+03  0.24715596001E+03  0.12499406036E+03 0.  0.
          2    1    1    2  501    0 -0.24278822973E+02 -0.30355357383E+02 -0.21079222267E+03  0.21434614553E+03  0.00000000000E+00 0. -1.
          1    1    1    2  502    0  0.34088508741E+02  0.29331049309E+02  0.64908885417E+03  0.65064481669E+03  0.00000000000E+00 0. -1.
         22    1    3    3    0    0 -0.20247818761E+02 -0.18070247560E+02  0.22196430503E+03  0.22361721919E+03  0.00000000000E+00 0.  1.
         22    1    3    3    0    0  0.10438132993E+02  0.19094555634E+02 -0.89730509840E+01  0.23538740816E+02  0.00000000000E+00 0.  1.
</event>
<event>
 7    1  0.6358809E-006  0.7041393E+02  0.7818608E-02  0.1485349E+00
          2   -1    0    0  502    0  0.00000000000E+00  0.00000000000E+00  0.19839533028E+03  0.19839533028E+03  0.00000000000E+00 0. -1.
          1   -1    0    0  501    0 -0.00000000000E+00 -0.00000000000E+00 -0.32713164641E+03  0.32713164641E+03  0.00000000000E+00 0. -1.
         25    2    1    2    0    0 -0.13261960257E+02  0.87460950092E+02 -0.13177229180E+02  0.15369371047E+03  0.12499127925E+03 0.  0.
          2    1    1    2  501    0  0.18593684101E+02 -0.19031478364E+02 -0.23369546696E+03  0.23520521579E+03  0.00000000000E+00 0. -1.
          1    1    1    2  502    0 -0.53317238446E+01 -0.68429471729E+02  0.11813638002E+03  0.13662805043E+03  0.00000000000E+00 0. -1.
         22    1    3    3    0    0 -0.56777609447E+02  0.27199455448E+02 -0.40094116067E+02  0.74639436322E+02  0.00000000000E+00 0.  1.
         22    1    3    3    0    0  0.43515649190E+02  0.60261494644E+02  0.26916886887E+02  0.79054274147E+02  0.00000000000E+00 0.  1.
</event>
<event>
 7    1  0.6358809E-006  0.1111395E+03  0.7818608E-02  0.1291678E+00
          2   -1    0    0  502    0  0.00000000000E+00  0.00000000000E+00  0.64363357556E+03  0.64363357556E+03  0.00000000000E+00 0. -1.
          1   -1    0    0  501    0 -0.00000000000E+00 -0.00000000000E+00 -0.41612131003E+03  0.41612131003E+03  0.00000000000E+00 0. -1.
         25    2    1    2    0    0 -0.15844642255E+03  0.81001724223E+02  0.23363120890E+02  0.21871724056E+03  0.12499939102E+03 0.  0.
          2    1    1    2  501    0  0.78057992590E+02 -0.72618107417E+02 -0.30625090393E+03  0.32427774498E+03  0.00000000000E+00 0. -1.
          1    1    1    2  502    0  0.80388429960E+02 -0.83836168054E+01  0.51040004858E+03  0.51675990004E+03  0.00000000000E+00 0. -1.
         22    1    3    3    0    0 -0.10591073811E+03  0.27254607888E+02  0.70392516545E+02  0.13005769675E+03  0.00000000000E+00 0. -1.
         22    1    3    3    0    0 -0.52535684443E+02  0.53747116335E+02 -0.47029395654E+02  0.88659543817E+02  0.00000000000E+00 0. -1.
</event>
<event>
 7    1  0.6358809E-006  0.8732618E+02  0.7818608E-02  0.1457006E+00
          2   -1    0    0  502    0  0.00000000000E+00  0.00000000000E+00  0.15455158488E+04  0.15455158488E+04  0.00000000000E+00 0. -1.
          1   -1    0    0  501    0 -0.00000000000E+00 -0.00000000000E+00 -0.43946845113E+03  0.43946845113E+03  0.00000000000E+00 0. -1.
         25    2    1    2    0    0 -0.84333987027E+02  0.32056745119E+02  0.12427171551E+03  0.19801164754E+03  0.12500118804E+03 0.  0.
          2    1    1    2  501    0  0.87150792624E+02 -0.59336153844E+01 -0.39773365338E+03  0.40721312292E+03  0.00000000000E+00 0. -1.
          1    1    1    2  502    0 -0.28168055966E+01 -0.26123129735E+02  0.13795093355E+04  0.13797595294E+04  0.00000000000E+00 0. -1.
         22    1    3    3    0    0 -0.83938412571E+02  0.23974317901E+02  0.14861604440E+03  0.17235763307E+03  0.00000000000E+00 0.  1.
         22    1    3    3    0    0 -0.39557445571E+00  0.80824272182E+01 -0.24344328899E+02  0.25654014470E+02  0.00000000000E+00 0.  1.
</event>
<event>
 7    1  0.6358809E-006  0.1892079E+03  0.7818608E-02  0.1336598E+00
          2   -1    0    0  502    0  0.00000000000E+00  0.00000000000E+00  0.23052844674E+04  0.23052844674E+04  0.00000000000E+00 0. -1.
          1   -1    0    0  501    0 -0.00000000000E+00 -0.00000000000E+00 -0.70787821298E+02  0.70787821298E+02  0.00000000000E+00 0. -1.
         25    2    1    2    0    0  0.17384785272E+03 -0.11751985259E+03  0.65793607427E+03  0.70181083270E+03  0.12499830167E+03 0.  0.
          2    1    1    2  501    0 -0.31661866330E+02  0.24170834918E-01 -0.37850765145E+02  0.49347287522E+02  0.00000000000E+00 0. -1.
          1    1    1    2  502    0 -0.14218598639E+03  0.11749568175E+03  0.16144113370E+04  0.16249141685E+04  0.00000000000E+00 0. -1.
         22    1    3    3    0    0  0.16162828979E+03 -0.12835881842E+03  0.65285638750E+03  0.68470515773E+03  0.00000000000E+00 0.  1.
         22    1    3    3    0    0  0.12219562933E+02  0.10838965832E+02  0.50796867792E+01  0.17105674975E+02  0.00000000000E+00 0.  1.
</event>
<event>
 7    1  0.6358809E-006  0.5490121E+02  0.7818608E-02  0.1431986E+00
          2   -1    0    0  502    0  0.00000000000E+00  0.00000000000E+00  0.16526231736E+03  0.16526231736E+03  0.00000000000E+00 0. -1.
          1   -1    0    0  501    0 -0.00000000000E+00 -0.00000000000E+00 -0.35152216247E+03  0.35152216247E+03  0.00000000000E+00 0. -1.
         25    2    1    2    0    0  0.10037887096E+03  0.45244224714E+00 -0.41905955184E+02  0.16570186943E+03  0.12499951205E+03 0.  0.
          2    1    1    2  501    0 -0.49257359796E+02 -0.10312558976E+02 -0.23836394290E+03  0.24361856588E+03  0.00000000000E+00 0. -1.
          1    1    1    2  502    0 -0.51121511169E+02  0.98601167284E+01  0.94010052967E+02  0.10746404452E+03  0.00000000000E+00 0. -1.
         22    1    3    3    0    0 -0.24506164831E+02  0.20462450718E+02 -0.19043559605E+02  0.37174200281E+02  0.00000000000E+00 0. -1.
         22    1    3    3    0    0  0.12488503580E+03 -0.20010008470E+02 -0.22862395580E+02  0.12852766915E+03  0.00000000000E+00 0. -1.
</event>
<event>
 7    1  0.6358809E-006  0.7447137E+02  0.7818608E-02  0.1399865E+00
          2   -1    0    0  502    0  0.00000000000E+00  0.00000000000E+00  0.38991277275E+02  0.38991277275E+02  0.00000000000E+00 0. -1.
          1   -1    0    0  501    0 -0.00000000000E+00 -0.00000000000E+00 -0.57016024366E+03  0.57016024366E+03  0.00000000000E+00 0. -1.
         25    2    1    2    0    0 -0.10425992944E+03 -0.15732944805E+02 -0.24053878163E+03  0.29086318692E+03  0.12499931840E+03 0.  0.
          2    1    1    2  501    0  0.67779619337E+02 -0.14793406847E+02 -0.23533876412E+03  0.24535129016E+03  0.00000000000E+00 0. -1.
          1    1    1    2  502    0  0.36480310105E+02  0.30526351652E+02 -0.55291420631E+02  0.72937043853E+02  0.00000000000E+00 0. -1.
         22    1    3    3    0    0 -0.15141247484E+02  0.10875801108E+02  0.11709598268E+02  0.22014883982E+02  0.00000000000E+00 0.  1.
         22    1    3    3    0    0 -0.89118681959E+02 -0.26608745913E+02 -0.25224837990E+03  0.26884830294E+03  0.00000000000E+00 0.  1.
</event>
<event>
 7    1  0.6358809E-006  0.4277131E+02  0.7818608E-02  0.1490198E+00
          2   -1    0    0  502    0  0.00000000000E+00  0.00000000000E+00  0.15412109218E+02  0.15412109218E+02  0.00000000000E+00 0. -1.
          1   -1    0    0  501    0 -0.00000000000E+00 -0.00000000000E+00 -0.16513910535E+04  0.16513910535E+04  0.00000000000E+00 0. -1.
         25    2    1    2    0    0 -0.79655482727E+01 -0.11285249839E+02 -0.42278594010E+03  0.44109315792E+03  0.12499766395E+03 0.  0.
          2    1    1    2  501    0  0.42661346631E+02 -0.12986898255E+02 -0.11420443738E+04  0.11429146958E+04  0.00000000000E+00 0. -1.
          1    1    1    2  502    0 -0.34695798359E+02  0.24272148094E+02 -0.71148630395E+02  0.82795309070E+02  0.00000000000E+00 0. -1.
         22    1    3    3    0    0 -0.10648332319E+02 -0.35727896887E+02 -0.30859364831E+02  0.48395970854E+02  0.00000000000E+00 0.  1.
         22    1    3    3    0    0  0.26827840458E+01  0.24442647048E+02 -0.39192657527E+03  0.39269718707E+03  0.00000000000E+00 0.  1.
</event>
<event>
 7    1  0.6358809E-006  0.4278811E+02  0.7818608E-02  0.1596308E+00
          2   -1    0    0  502    0  0.00000000000E+00  0.00000000000E+00  0.88595727438E+03  0.88595727438E+03  0.00000000000E+00 0. -1.
          1   -1    0    0  501    0 -0.00000000000E+00 -0.00000000000E+00 -0.98987430515E+03  0.98987430515E+03  0.00000000000E+00 0. -1.
         25    2    1    2    0    0 -0.36235265845E+02 -0.28717128673E+02  0.18533121700E+03  0.22827520742E+03  0.12499696940E+03 0.  0.
          2    1    1    2  501    0  0.17623029855E+02  0.38994623278E+02 -0.96776298875E+03  0.96870860129E+03  0.00000000000E+00 0. -1.
          1    1    1    2  502    0  0.18612235991E+02 -0.10277494605E+02  0.67851474097E+03  0.67884777081E+03  0.00000000000E+00 0. -1.
         22    1    3    3    0    0 -0.10788790561E+02  0.45406974696E+02  0.11034634527E+03  0.11981029700E+03  0.00000000000E+00 0.  1.
         22    1    3    3    0    0 -0.25446475284E+02 -0.74124103368E+02  0.74984871728E+02  0.10846491042E+03  0.00000000000E+00 0.  1.
</event>
<event>
 7    1  0.6358809E-006  0.1311468E+03  0.7818608E-02  0.1236906E+00
          2   -1    0    0  502    0  0.00000000000E+00  0.00000000000E+00  0.14428836605E+04  0.14428836605E+04  0.00000000000E+00 0. -1.
          1   -1    0    0  501    0 -0.00000000000E+00 -0.00000000000E+00 -0.36182963552E+03  0.36182963552E+03  0.00000000000E+00 0. -1.
         25    2    1    2    0    0 -0.18616925976E+02 -0.68240967357E+01 -0.12071555293E+02  0.12713377935E+03  0.12499646865E+03 0.  0.
          2    1    1    2  501    0 -0.11435782658E+03 -0.24369194048E+02 -0.27699791732E+03  0.30066495692E+03  0.00000000000E+00 0. -1.
          1    1    1    2  502    0  0.13297475256E+03  0.31193290783E+02  0.13701234975E+04  0.13769145597E+04  0.00000000000E+00 0. -1.
         22    1    3    3    0    0 -0.25813062794E+01 -0.46448124188E+02  0.38878731227E+02  0.60627115423E+02  0.00000000000E+00 0. -1.
         22    1    3    3    0    0 -0.16035619696E+02  0.39624027452E+02 -0.50950286519E+02  0.66506663929E+02  0.00000000000E+00 0. -1.
</event>
<event>
 7    1  0.6358809E-006  0.4419302E+02  0.7818608E-02  0.1488493E+00
          2   -1    0    0  502    0  0.00000000000E+00  0.00000000000E+00  0.10249079045E+04  0.10249079045E+04  0.00000000000E+00 0. -1.
          1   -1    0    0  501    0 -0.00000000000E+00 -0.00000000000E+00 -0.12088057268E+04  0.12088057268E+04  0.00000000000E+00 0. -1.
         25    2    1    2    0    0 -0.17820937639E+02  0.39307069157E+02  0.12738909559E+03  0.18361894922E+03  0.12500122133E+03 0.  0.
          2    1    1    2  501    0 -0.26200551193E+02 -0.32146227959E+02 -0.11797542298E+04  0.11804829061E+04  0.00000000000E+00 0. -1.
          1    1    1    2  502    0  0.44021488831E+02 -0.71608411985E+01  0.86846731193E+03  0.86961177603E+03  0.00000000000E+00 0. -1.
         22    1    3    3    0    0  0.13902737541E+02 -0.40076560453E+02  0.65673181909E+02  0.78181734638E+02  0.00000000000E+00 0. -1.
         22    1    3    3    0    0 -0.31723675180E+02  0.79383629611E+02  0.61715913677E+02  0.10543721458E+03  0.00000000000E+00 0. -1.
</event>
<event>
 7    1  0.6358809E-006  0.4894114E+02  0.7818608E-02  0.1526627E+00
          2   -1    0    0  502    0  0.00000000000E+00  0.00000000000E+00  0.23371987770E+04  0.23371987770E+04  0.00000000000E+00 0. -1.
          1   -1    0    0  501    0 -0.00000000000E+00 -0.00000000000E+00 -0.22136813314E+04  0.22136813314E+04  0.00000000000E+00 0. -1.
         25    2    1    2    0    0 -0.21750490268E+02  0.68349602266E+01  0.86884305932E+03  0.87808487927E+03  0.12499997183E+03 0.  0.
          2    1    1    2  501    0  0.48845252143E+02  0.31965556355E+01 -0.22086466396E+04  0.22091890040E+04  0.00000000000E+00 0. -1.
          1    1    1    2  502    0 -0.27094761875E+02 -0.10031515862E+02  0.14633210259E+04  0.14636062251E+04  0.00000000000E+00 0. -1.
         22    1    3    3    0    0 -0.72988035930E+02 -0.72290183596E+01  0.54473134056E+03  0.54964692802E+03  0.00000000000E+00 0. -1.
         22    1    3    3    0    0  0.51237545662E+02  0.14063978586E+02  0.32411171877E+03  0.32843795125E+03  0.00000000000E+00 0. -1.
</event>
<event>
 7    1  0.6358809E-006  0.4891118E+02  0.7818608E-02  0.1461367E+00
          2   -1    0    0  502    0  0.00000000000E+00  0.00000000000E+00  0.20160108271E+03  0.20160108271E+03  0.00000000000E+00 0. -1.
          1   -1    0    0  501    0 -0.00000000000E+00 -0.00000000000E+00 -0.11938996683E+03  0.11938996683E+03  0.00000000000E+00 0. -1.
         25    2    1    2    0    0  0.44353631563E+02  0.15039562434E+01 -0.15460333282E+02  0.13351443329E+03  0.12497029837E+03 0.  0.
          2    1    1    2  501    0 -0.34396811062E+02  0.42838150657E+02 -0.22219064885E+02  0.59261577833E+02  0.00000000000E+00 0. -1.
          1    1    1    2  502    0 -0.99568205007E+01 -0.44342106900E+02  0.11989051404E+03  0.12821503841E+03  0.00000000000E+00 0. -1.
         22    1    3    3    0    0  0.65077321877E+02  0.44043845007E+02 -0.29844508476E+02  0.84057199524E+02  0.00000000000E+00 0. -1.
         22    1    3    3    0    0 -0.20723690315E+02 -0.42539888763E+02  0.14384175193E+02  0.49457233771E+02  0.00000000000E+00 0. -1.
</event>
<event>
 7    1  0.1005313E-005  0.9734020E+02  0.7818608E-02  0.1424415E+00
          2   -1    0    0  502    0  0.00000000000E+00  0.00000000000E+00  0.16235467168E+04  0.16235467168E+04  0.00000000000E+00 0. -1.
          1   -1    0    0  501    0 -0.00000000000E+00 -0.00000000000E+00 -0.15301599007E+04  0.15301599007E+04  0.00000000000E+00 0. -1.
         25    2    1    2    0    0  0.22502948595E+02  0.12043795487E+03 -0.22587294801E+03  0.28575417893E+03  0.12500071386E+03 0.  0.
          2    1    1    2  501    0 -0.19002099094E+02 -0.23298962097E+02 -0.12726864245E+04  0.12730414984E+04  0.00000000000E+00 0. -1.
          1    1    1    2  502    0 -0.35008495009E+01 -0.97138992770E+02  0.15919461886E+04  0.15949109403E+04  0.00000000000E+00 0. -1.
         22    1    3    3    0    0 -0.30694481503E+02  0.11736079136E+03 -0.16603627156E+03  0.20563012915E+03  0.00000000000E+00 0.  1.
         22    1    3    3    0    0  0.53197430098E+02  0.30771635100E+01 -0.59836676456E+02  0.80124049783E+02  0.00000000000E+00 0.  1.
</event>
<event>
 7    1  0.6358809E-006  0.1877600E+03  0.7818608E-02  0.1352059E+00
          2   -1    0    0  502    0  0.00000000000E+00  0.00000000000E+00  0.61975841448E+03  0.61975841448E+03  0.00000000000E+00 0. -1.
          1   -1    0    0  501    0 -0.00000000000E+00 -0.00000000000E+00 -0.28584298982E+03  0.28584298982E+03  0.00000000000E+00 0. -1.
         25    2    1    2    0    0  0.21077691448E+03 -0.71658661148E+01  0.50027580916E+02  0.25020911946E+03  0.12499434904E+03 0.  0.
          2    1    1    2  501    0 -0.27541909628E+02 -0.46459926797E+01 -0.16659806570E+03  0.16892322969E+03  0.00000000000E+00 0. -1.
          1    1    1    2  502    0 -0.18323500485E+03  0.11811858795E+02  0.45048590945E+03  0.48646905515E+03  0.00000000000E+00 0. -1.
         22    1    3    3    0    0  0.17437813350E+02  0.41046751582E+01 -0.34519577294E+02  0.38891218921E+02  0.00000000000E+00 0. -1.
         22    1    3    3    0    0  0.19333910113E+03 -0.11270541273E+02  0.84547158211E+02  0.21131790054E+03  0.00000000000E+00 0. -1.
</event>
<event>
 7    1  0.6358809E-006  0.9487175E+02  0.7818608E-02  0.1395614E+00
          2   -1    0    0  502    0  0.00000000000E+00  0.00000000000E+00  0.13559263085E+04  0.13559263085E+04  0.00000000000E+00 0. -1.
          1   -1    0    0  501    0 -0.00000000000E+00 -0.00000000000E+00 -0.27517061468E+03  0.27517061468E+03  0.00000000000E+00 0. -1.
         25    2    1    2    0    0  0.97179506330E+02  0.83301190618E+02  0.19184020060E+03  0.26231764802E+03  0.12499976435E+03 0.  0.
          2    1    1    2  501    0 -0.60405004340E+02 -0.71501188219E+02 -0.23045734294E+03  0.24874036942E+03  0.00000000000E+00 0. -1.
          1    1    1    2  502    0 -0.36774501990E+02 -0.11800002399E+02  0.11193728361E+04  0.11200389057E+04  0.00000000000E+00 0. -1.
         22    1    3    3    0    0 -0.24280604232E+02 -0.94456008469E+01  0.26203714915E+02  0.36951343583E+02  0.00000000000E+00 0.  1.
         22    1    3    3    0    0  0.12146011056E+03  0.92746791465E+02  0.16563648568E+03  0.22536630443E+03  0.00000000000E+00 0.  1.
</event>
<event>
 7    1  0.6358809E-006  0.3298194E+02  0.7818608E-02  0.1638345E+00
          2   -1    0    0  502    0  0.00000000000E+00  0.00000000000E+00  0.39612936763E+03  0.39612936763E+03  0.00000000000E+00 0. -1.
          1   -1    0    0  501    0 -0.00000000000E+00 -0.00000000000E+00 -0.26653013059E+03  0.26653013059E+03  0.00000000000E+00 0. -1.
         25    2    1    2    0    0 -0.11026878113E+02  0.24637659762E+02  0.79289138051E+02  0.15046950030E+03  0.12500278712E+03 0.  0.
          2    1    1    2  501    0 -0.18987581756E+02 -0.10165006383E+02 -0.22944692295E+03  0.23045551863E+03  0.00000000000E+00 0. -1.
          1    1    1    2  502    0  0.30014459868E+02 -0.14472653379E+02  0.27975702194E+03  0.28173447930E+03  0.00000000000E+00 0. -1.
         22    1    3    3    0    0  0.13547804738E+02 -0.27302366110E+01 -0.31143608921E+02  0.34072299333E+02  0.00000000000E+00 0. -1.
         22    1    3    3    0    0 -0.24574682851E+02  0.27367896373E+02  0.11043274697E+03  0.11639720097E+03  0.00000000000E+00 0. -1.
</event>
<event>
 7    1  0.6358809E-006  0.5094560E+02  0.7818608E-02  0.1480667E+00
          2   -1    0    0  502    0  0.00000000000E+00  0.00000000000E+00  0.37195448110E+03  0.37195448110E+03  0.00000000000E+00 0. -1.
          1   -1    0    0  501    0 -0.00000000000E+00 -0.00000000000E+00 -0.35356186612E+03  0.35356186612E+03  0.00000000000E+00 0. -1.
         25    2    1    2    0    0  0.30282653174E+02 -0.10916873589E+02 -0.17774677863E+03  0.21967269999E+03  0.12500384232E+03 0.  0.
          2    1    1    2  501    0 -0.29880373616E+02  0.48920207282E+02 -0.14846628577E+03  0.15914855142E+03  0.00000000000E+00 0. -1.
          1    1    1    2  502    0 -0.40227955806E+00 -0.38003333693E+02  0.34460567938E+03  0.34669509581E+03  0.00000000000E+00 0. -1.
         22    1    3    3    0    0  0.69805615868E+02  0.25445773610E+02 -0.88952549831E+02  0.11590024816E+03  0.00000000000E+00 0. -1.
         22    1    3    3    0    0 -0.39522962695E+02 -0.36362647200E+02 -0.88794228795E+02  0.10377245183E+03  0.00000000000E+00 0. -1.
</event>
<event>
 7    1  0.6358809E-006  0.1028372E+03  0.7818608E-02  0.1388088E+00
          2   -1    0    0  502    0  0.00000000000E+00  0.00000000000E+00  0.18549947783E+03  0.18549947783E+03  0.00000000000E+00 0. -1.
          1   -1    0    0  501    0 -0.00000000000E+00 -0.00000000000E+00 -0.16079460752E+04  0.16079460752E+04  0.00000000000E+00 0. -1.
         25    2    1    2    0    0  0.11328282758E+03 -0.72233742301E+02 -0.66662340956E+01  0.18362881453E+03  0.12499756116E+03 0.  0.
          2    1    1    2  501    0 -0.75587833931E+02  0.68870229261E+02 -0.15073085124E+04  0.15107731731E+04  0.00000000000E+00 0. -1.
          1    1    1    2  502    0 -0.37694993647E+02  0.33635130399E+01  0.91528149102E+02  0.99043565384E+02  0.00000000000E+00 0. -1.
         22    1    3    3    0    0  0.12460199987E+03 -0.86773043060E+02  0.17932007431E+02  0.15289465741E+03  0.00000000000E+00 0.  1.
         22    1    3    3    0    0 -0.11319172287E+02  0.14539300759E+02 -0.24598241527E+02  0.30734157123E+02  0.00000000000E+00 0.  1.
</event>
<event>
 7    1  0.6358809E-006  0.8972535E+02  0.7818608E-02  0.1386449E+00
          2   -1    0    0  502    0  0.00000000000E+00  0.00000000000E+00  0.11459654060E+04  0.11459654060E+04  0.00000000000E+00 0. -1.
          1   -1    0    0  501    0 -0.00000000000E+00 -0.00000000000E+00 -0.15036897267E+04  0.15036897267E+04  0.00000000000E+00 0. -1.
         25    2    1    2    0    0 -0.68025927244E+02  0.64296569371E+02 -0.20791261663E+03  0.26002721184E+03  0.12499967651E+03 0.  0.
          2    1    1    2  501    0  0.86705920922E+02 -0.24511022666E+02 -0.12676888808E+04  0.12708870152E+04  0.00000000000E+00 0. -1.
          1    1    1    2  502    0 -0.18679993678E+02 -0.39785546705E+02  0.11178771767E+04  0.11187409057E+04  0.00000000000E+00 0. -1.
         22    1    3    3    0    0  0.33730924571E+02  0.11923226884E+02 -0.22894607499E+02  0.42474717943E+02  0.00000000000E+00 0. -1.
         22    1    3    3    0    0 -0.10175685181E+03  0.52373342487E+02 -0.18501800914E+03  0.21755249389E+03  0.00000000000E+00 0. -1.
</event>
<event>
 7    1  0.6358809E-006  0.1262645E+03  0.7818608E-02  0.1366083E+00
          2   -1    0    0  502    0  0.00000000000E+00  0.00000000000E+00  0.23737191972E+03  0.23737191972E+03  0.00000000000E+00 0. -1.
          1   -1    0    0  501    0 -0.00000000000E+00 -0.00000000000E+00 -0.49912967727E+03  0.49912967727E+03  0.00000000000E+00 0. -1.
         25    2    1    2    0    0 -0.42627274890E+02 -0.13621303505E+03 -0.74052075036E+02  0.20366471904E+03  0.12499812992E+03 0.  0.
          2    1    1    2  501    0  0.34801917414E+02  0.12298565432E+02 -0.33679814650E+03  0.33881472762E+03  0.00000000000E+00 0. -1.
          1    1    1    2  502    0  0.78253574761E+01  0.12391446962E+03  0.14909246399E+03  0.19402215033E+03  0.00000000000E+00 0. -1.
         22    1    3    3    0    0  0.12716065115E+02 -0.19845257048E+02  0.29921975479E+02  0.38090118875E+02  0.00000000000E+00 0. -1.
         22    1    3    3    0    0 -0.55343340005E+02 -0.11636777800E+03 -0.10397405052E+03  0.16557460017E+03  0.00000000000E+00 0. -1.
</event>
<event>
 7    1  0.6358809E-006  0.2057886E+03  0.7818608E-02  0.1231794E+00
          2   -1    0    0  502    0  0.00000000000E+00  0.00000000000E+00  0.15079147404E+03  0.15079147404E+03  0.00000000000E+00 0. -1.
          1   -1    0    0  501    0 -0.00000000000E+00 -0.00000000000E+00 -0.10853416578E+04  0.10853416578E+04  0.00000000000E+00 0. -1.
         25    2    1    2    0    0 -0.68847641637E+02 -0.21258283546E+03 -0.13864216839E+03  0.29116488068E+03  0.12499550870E+03 0.  0.
          2    1    1    2  501    0 -0.55099661225E+02  0.55946298435E+02 -0.73061528648E+03  0.73482287513E+03  0.00000000000E+00 0. -1.
          1    1    1    2  502    0  0.12394730286E+03  0.15663653703E+03 -0.65292728894E+02  0.21014537602E+03  0.00000000000E+00 0. -1.
         22    1    3    3    0    0  0.81115907365E+01 -0.13586725967E+02  0.19845604055E+02  0.25381982331E+02  0.00000000000E+00 0. -1.
         22    1    3    3    0    0 -0.76959232374E+02 -0.19899610949E+03 -0.15848777244E+03  0.26578289835E+03  0.00000000000E+00 0. -1.
</event>
<event>
 7    1  0.6358809E-006  0.7727846E+02  0.7818608E-02  0.1357008E+00
          2   -1    0    0  502    0  0.00000000000E+00  0.00000000000E+00  0.26057617406E+04  0.26057617406E+04  0.00000000000E+00 0. -1.
          1   -1    0    0  501    0 -0.00000000000E+00 -0.00000000000E+00 -0.74031155169E+03  0.74031155169E+03  0.00000000000E+00 0. -1.
         25    2    1    2    0    0  0.92104404886E+02 -0.94938753984E+02 -0.80849837495E+02  0.19911884728E+03  0.12496011648E+03 0.  0.
          2    1    1    2  501    0 -0.60172228321E+02  0.24783013739E+02 -0.59797823997E+03  0.60150882812E+03  0.00000000000E+00 0. -1.
          1    1    1    2  502    0 -0.31932176565E+02  0.70155740245E+02  0.25442782663E+04  0.25454456168E+04  0.00000000000E+00 0. -1.
         22    1    3    3    0    0  0.10760652754E+03 -0.95219522546E+02 -0.31106863463E+02  0.14701550666E+03  0.00000000000E+00 0.  1.
         22    1    3    3    0    0 -0.15502122658E+02  0.28076856193E+00 -0.49742974032E+02  0.52103340617E+02  0.00000000000E+00 0.  1.
</event>
<event>
 7    1  0.6358809E-006  0.1864120E+03  0.7818608E-02  0.1372643E+00
          2   -1    0    0  502    0  0.00000000000E+00  0.00000000000E+00  0.33820789484E+04  0.33820789484E+04  0.00000000000E+00 0. -1.
          1   -1    0    0  501    0 -0.00000000000E+00 -0.00000000000E+00 -0.50788194607E+03  0.50788194607E+03  0.00000000000E+00 0. -1.
         25    2    1    2    0    0  0.20275509787E+03  0.34186882346E+02  0.34118026483E+03  0.41750128051E+03  0.12499989393E+03 0.  0.
          2    1    1    2  501    0 -0.18815887711E+02 -0.14374964227E+02 -0.46657134443E+03  0.46717180638E+03  0.00000000000E+00 0. -1.
          1    1    1    2  502    0 -0.18393921016E+03 -0.19811918119E+02  0.29995880819E+04  0.30052878076E+04  0.00000000000E+00 0. -1.
         22    1    3    3    0    0  0.11604525018E+03 -0.43752866978E+02  0.17866804615E+03  0.21749272212E+03  0.00000000000E+00 0.  1.
         22    1    3    3    0    0  0.86709847693E+02  0.77939749324E+02  0.16251221868E+03  0.20000855839E+03  0.00000000000E+00 0.  1.
</event>
<event>
 7    1  0.6358809E-006  0.7640501E+02  0.7818608E-02  0.1397821E+00
          2   -1    0    0  502    0  0.00000000000E+00  0.00000000000E+00  0.25657051207E+03  0.25657051207E+03  0.00000000000E+00 0. -1.
          1   -1    0    0  501    0 -0.00000000000E+00 -0.00000000000E+00 -0.14219805130E+04  0.14219805130E+04  0.00000000000E+00 0. -1.
         25    2    1    2    0    0  0.43508843853E+02  0.66580043915E+02  0.24033997850E+02  0.15009628889E+03  0.12500136458E+03 0.  0.
          2    1    1    2  501    0  0.28578426876E+02 -0.37465701451E+02 -0.13496020125E+04  0.13504243768E+04  0.00000000000E+00 0. -1.
          1    1    1    2  502    0 -0.72087270729E+02 -0.29114342464E+02  0.16015801368E+03  0.17803035944E+03  0.00000000000E+00 0. -1.
         22    1    3    3    0    0 -0.39657719646E+02  0.13572594793E+01  0.19734612983E+02  0.44317398732E+02  0.00000000000E+00 0.  1.
         22    1    3    3    0    0  0.83166563499E+02  0.65222784436E+02  0.42993848676E+01  0.10577889016E+03  0.00000000000E+00 0.  1.
</event>
<event>
 7    1  0.6358809E-006  0.3872543E+02  0.7818608E-02  0.1520379E+00
          2   -1    0    0  502    0  0.00000000000E+00  0.00000000000E+00  0.92816847125E+02  0.92816847125E+02  0.00000000000E+00 0. -1.
          1   -1    0    0  501    0 -0.00000000000E+00 -0.00000000000E+00 -0.58402776737E+03  0.58402776737E+03  0.00000000000E+00 0. -1.
         25    2    1    2    0    0  0.66800023385E+00  0.13268918839E+01 -0.11587851043E+03  0.17046045608E+03  0.12500692397E+03 0.  0.
          2    1    1    2  501    0 -0.39199764501E+02  0.25411942924E+01 -0.43417145835E+03  0.43594487547E+03  0.00000000000E+00 0. -1.
          1    1    1    2  502    0  0.38531764267E+02 -0.38680861763E+01  0.58839048538E+02  0.70439282939E+02  0.00000000000E+00 0. -1.
         22    1    3    3    0    0 -0.49039616523E+01  0.56590491530E+02 -0.21079124114E+02  0.60587639374E+02  0.00000000000E+00 0. -1.
         22    1    3    3    0    0  0.55719618862E+01 -0.55263599646E+02 -0.94799386316E+02  0.10987281671E+03  0.00000000000E+00 0. -1.
</event>
<event>
 7    1  0.6358809E-006  0.1028927E+03  0.7818608E-02  0.1387364E+00
          2   -1    0    0  502    0  0.00000000000E+00  0.00000000000E+00  0.27251082526E+03  0.27251082526E+03  0.00000000000E+00 0. -1.
          1   -1    0    0  501    0 -0.00000000000E+00 -0.00000000000E+00 -0.16394411611E+04  0.16394411611E+04  0.00000000000E+00 0. -1.
         25    2    1    2    0    0  0.72013260607E+02  0.97858746298E+02 -0.11116417377E+03  0.20674705710E+03  0.12499851262E+03 0.  0.
          2    1    1    2  501    0 -0.38002765829E+02 -0.18137768354E+01 -0.14686772795E+04  0.14691699872E+04  0.00000000000E+00 0. -1.
          1    1    1    2  502    0 -0.34010494777E+02 -0.96044969462E+02  0.21291111747E+03  0.23603494202E+03  0.00000000000E+00 0. -1.
         22    1    3    3    0    0  0.29708521643E+02 -0.89668066741E+01  0.16373397741E+02  0.35086864119E+02  0.00000000000E+00 0. -1.
         22    1    3    3    0    0  0.42304738964E+02  0.10682555297E+03 -0.12753757151E+03  0.17166019298E+03  0.00000000000E+00 0. -1.
</event>
<event>
 7    1  0.6358809E-006  0.1255352E+03  0.7818608E-02  0.1375377E+00
          2   -1    0    0  502    0  0.00000000000E+00  0.00000000000E+00  0.85133509700E+03  0.85133509700E+03  0.00000000000E+00 0. -1.
          1   -1    0    0  501    0 -0.00000000000E+00 -0.00000000000E+00 -0.23342423771E+03  0.23342423771E+03  0.00000000000E+00 0. -1.
         25    2    1    2    0    0  0.14485552206E+03  0.43557481210E+02  0.25895773473E+03  0.32489844306E+03  0.12497805201E+03 0.  0.
          2    1    1    2  501    0 -0.34118173975E+02  0.42285207119E+01 -0.19241176537E+03  0.19545899221E+03  0.00000000000E+00 0. -1.
          1    1    1    2  502    0 -0.11073734808E+03 -0.47786001922E+02  0.55136488993E+03  0.56440189944E+03  0.00000000000E+00 0. -1.
         22    1    3    3    0    0 -0.22220141075E+02 -0.67759061520E+00  0.41944414326E+02  0.47471335473E+02  0.00000000000E+00 0.  1.
         22    1    3    3    0    0  0.16707566313E+03  0.44235071825E+02  0.21701332041E+03  0.27742710759E+03  0.00000000000E+00 0.  1.
</event>
<event>
 7    1  0.6358809E-006  0.1427536E+03  0.7818608E-02  0.1236043E+00
          2   -1    0    0  502    0  0.00000000000E+00  0.00000000000E+00  0.14894453462E+04  0.14894453462E+04  0.00000000000E+00 0. -1.
          1   -1    0    0  501    0 -0.00000000000E+00 -0.00000000000E+00 -0.14235017231E+04  0.14235017231E+04  0.00000000000E+00 0. -1.
         25    2    1    2    0    0  0.14842639108E+03 -0.10015976880E+03 -0.16793966029E+03  0.27548289543E+03  0.12499889328E+03 0.  0.
          2    1    1    2  501    0 -0.59069153072E+01  0.10820847441E+03 -0.11957858565E+04  0.12006863788E+04  0.00000000000E+00 0. -1.
          1    1    1    2  502    0 -0.14251947577E+03 -0.80487056084E+01  0.14296691399E+04  0.14367777950E+04  0.00000000000E+00 0. -1.
         22    1    3    3    0    0  0.15025359060E+03 -0.10437752452E+03 -0.10215661206E+03  0.20953945333E+03  0.00000000000E+00 0. -1.
         22    1    3    3    0    0 -0.18271995260E+01  0.42177557203E+01 -0.65783048230E+02  0.65943442099E+02  0.00000000000E+00 0. -1.
</event>
<event>
 7    1  0.6358809E-006  0.9178995E+02  0.7818608E-02  0.1376234E+00
          2   -1    0    0  502    0  0.00000000000E+00  0.00000000000E+00  0.54454204013E+03  0.54454204013E+03  0.00000000000E+00 0. -1.
          1   -1    0    0  501    0 -0.00000000000E+00 -0.00000000000E+00 -0.32684934465E+03  0.32684934465E+03  0.00000000000E+00 0. -1.
         25    2    1    2    0    0  0.43028269651E+02  0.32931481776E+02 -0.14052112716E+03  0.19571863104E+03  0.12499472340E+03 0.  0.
          2    1    1    2  501    0  0.51528096736E+01  0.46403437617E+02 -0.15100786341E+03  0.15806076453E+03  0.00000000000E+00 0. -1.
          1    1    1    2  502    0 -0.48181079324E+02 -0.79334919392E+02  0.50922168605E+03  0.51761198922E+03  0.00000000000E+00 0. -1.
         22    1    3    3    0    0  0.61477023646E+02 -0.30955305689E+02 -0.60191851856E+02  0.91436942297E+02  0.00000000000E+00 0. -1.
         22    1    3    3    0    0 -0.18448753996E+02  0.63886787464E+02 -0.80329275300E+02  0.10428168874E+03  0.00000000000E+00 0. -1.
</event>
<event>
 7    1  0.6358809E-006  0.1703855E+03  0.7818608E-02  0.1332700E+00
          2   -1    0    0  502    0  0.00000000000E+00  0.00000000000E+00  0.12427480189E+04  0.12427480189E+04  0.00000000000E+00 0. -1.
          1   -1    0    0  501    0 -0.00000000000E+00 -0.00000000000E+00 -0.82473964507E+03  0.82473964507E+03  0.00000000000E+00 0. -1.
         25    2    1    2    0    0  0.20416660099E+03  0.23112424965E+02  0.77021576689E+03  0.80689334163E+03  0.12500540810E+03 0.  0.
          2    1    1    2  501    0 -0.16957461519E+03 -0.11857503928E+02 -0.79669118890E+03  0.81462445396E+03  0.00000000000E+00 0. -1.
          1    1    1    2  502    0 -0.34591985808E+02 -0.11254921036E+02  0.44448379588E+03  0.44596986841E+03  0.00000000000E+00 0. -1.
         22    1    3    3    0    0  0.20608901164E+02 -0.10795623694E+02  0.12273832302E+02  0.26304358147E+02  0.00000000000E+00 0. -1.
         22    1    3    3    0    0  0.18355769983E+03  0.33908048659E+02  0.75794193459E+03  0.78058898348E+03  0.00000000000E+00 0. -1.
</event>
<event>
 7    1  0.6358809E-006  0.9229326E+02  0.7818608E-02  0.1442174E+00
          2   -1    0    0  502    0  0.00000000000E+00  0.00000000000E+00  0.17311859582E+04  0.17311859582E+04  0.00000000000E+00 0. -1.
          1   -1    0    0  501    0 -0.00000000000E+00 -0.00000000000E+00 -0.24724713855E+02  0.24724713855E+02  0.00000000000E+00 0. -1.
         25    2    1    2    0    0 -0.22032166394E+02 -0.10540434636E+03  0.13222451828E+04  0.13324986684E+04  0.12499954043E+03 0.  0.
          2    1    1    2  501    0  0.73914737126E+01  0.26729697198E+02 -0.31087646323E+01  0.27906540694E+02  0.00000000000E+00 0. -1.
          1    1    1    2  502    0  0.14640692682E+02  0.78674649166E+02  0.38732482615E+03  0.39550546299E+03  0.00000000000E+00 0. -1.
         22    1    3    3    0    0 -0.16382181667E+02 -0.74547401443E+02  0.29308629615E+03  0.30286179675E+03  0.00000000000E+00 0.  1.
         22    1    3    3    0    0 -0.56499847275E+01 -0.30856944921E+02  0.10291588867E+04  0.10296368716E+04  0.00000000000E+00 0.  1.
</event>
<event>
 7    1  0.6358809E-006  0.8818257E+02  0.7818608E-02  0.1315089E+00
          2   -1    0    0  502    0  0.00000000000E+00  0.00000000000E+00  0.75439078200E+03  0.75439078200E+03  0.00000000000E+00 0. -1.
          1   -1    0    0  501    0 -0.00000000000E+00 -0.00000000000E+00 -0.20896219042E+03  0.20896219042E+03  0.00000000000E+00 0. -1.
         25    2    1    2    0    0  0.35302143375E+02 -0.66607930903E+01 -0.61480258048E+02  0.14385909693E+03  0.12500004060E+03 0.  0.
          2    1    1    2  501    0 -0.12314130718E+03  0.14435554692E+02 -0.66256205868E+02  0.14057756432E+03  0.00000000000E+00 0. -1.
          1    1    1    2  502    0  0.87839163810E+02 -0.77747616020E+01  0.67316505550E+03  0.67891631116E+03  0.00000000000E+00 0. -1.
         22    1    3    3    0    0 -0.20564532245E+02 -0.36931346565E+02  0.14612576379E+02  0.44725291883E+02  0.00000000000E+00 0. -1.
         22    1    3    3    0    0  0.55866675620E+02  0.30270553475E+02 -0.76092834428E+02  0.99133805050E+02  0.00000000000E+00 0. -1.
</event>
<event>
 7    1  0.6358809E-006  0.7400329E+02  0.7818608E-02  0.1350699E+00
          2   -1    0    0  502    0  0.00000000000E+00  0.00000000000E+00  0.35229391862E+03  0.35229391862E+03  0.00000000000E+00 0. -1.
          1   -1    0    0  501    0 -0.00000000000E+00 -0.00000000000E+00 -0.34484285063E+03  0.34484285063E+03  0.00000000000E+00 0. -1.
         25    2    1    2    0    0  0.13707336381E+03  0.36670774550E+02 -0.11436542033E+03  0.22097125524E+03  0.12495996760E+03 0.  0.
          2    1    1    2  501    0 -0.65146977034E+02 -0.29926332133E+02 -0.16525913721E+03  0.18013965805E+03  0.00000000000E+00 0. -1.
          1    1    1    2  502    0 -0.71926386773E+02 -0.67444424165E+01  0.28707562554E+03  0.29602585596E+03  0.00000000000E+00 0. -1.
         22    1    3    3    0    0  0.93015584868E+01 -0.12071777473E+02  0.22707100385E+02  0.27347014636E+02  0.00000000000E+00 0. -1.
         22    1    3    3    0    0  0.12777180532E+03  0.48742552023E+02 -0.13707252072E+03  0.19362424060E+03  0.00000000000E+00 0. -1.
</event>
<event>
 7    1  0.6358809E-006  0.8017286E+02  0.7818608E-02  0.1433672E+00
          2   -1    0    0  502    0  0.00000000000E+00  0.00000000000E+00  0.41655436574E+02  0.41655436574E+02  0.00000000000E+00 0. -1.
          1   -1    0    0  501    0 -0.00000000000E+00 -0.00000000000E+00 -0.17753719859E+04  0.17753719859E+04  0.00000000000E+00 0. -1.
         25    2    1    2    0    0 -0.63522564944E+02 -0.13016841642E+01 -0.10933110332E+04  0.11022681431E+04  0.12501693148E+03 0.  0.
          2    1    1    2  501    0  0.90169340169E+02  0.22461002183E+02 -0.66583038698E+03  0.67228350474E+03  0.00000000000E+00 0. -1.
          1    1    1    2  502    0 -0.26646775225E+02 -0.21159318019E+02  0.25424870932E+02  0.42475774634E+02  0.00000000000E+00 0. -1.
         22    1    3    3    0    0 -0.72839089342E+02 -0.32478113960E+02 -0.38315142268E+03  0.39136348006E+03  0.00000000000E+00 0. -1.
         22    1    3    3    0    0  0.93165243982E+01  0.31176429796E+02 -0.71015961057E+03  0.71090466301E+03  0.00000000000E+00 0. -1.
</event>
<event>
 7    1  0.6358809E-006  0.4822659E+02  0.7818608E-02  0.1470521E+00
          2   -1    0    0  502    0  0.00000000000E+00  0.00000000000E+00  0.11364122413E+04  0.11364122413E+04  0.00000000000E+00 0. -1.
          1   -1    0    0  501    0 -0.00000000000E+00 -0.00000000000E+00 -0.36748956323E+03  0.36748956323E+03  0.00000000000E+00 0. -1.
         25    2    1    2    0    0 -0.87504776895E+01 -0.85306731593E+02  0.21397152711E+03  0.26223064002E+03  0.12500913902E+03 0.  0.
          2    1    1    2  501    0  0.18526123021E+02  0.38970904830E+02 -0.34137679901E+03  0.34409310885E+03  0.00000000000E+00 0. -1.
          1    1    1    2  502    0 -0.97756453314E+01  0.46335826763E+02  0.89632795000E+03  0.89757805568E+03  0.00000000000E+00 0. -1.
         22    1    3    3    0    0  0.22998685196E+02  0.25897113678E+02  0.64859962431E+02  0.73528326135E+02  0.00000000000E+00 0.  1.
         22    1    3    3    0    0 -0.31749162885E+02 -0.11120384527E+03  0.14911156467E+03  0.18870231389E+03  0.00000000000E+00 0.  1.
</event>
<event>
 7    1  0.6358809E-006  0.4907453E+02  0.7818608E-02  0.1472418E+00
          2   -1    0    0  502    0  0.00000000000E+00  0.00000000000E+00  0.16412159617E+04  0.16412159617E+04  0.00000000000E+00 0. -1.
          1   -1    0    0  501    0 -0.00000000000E+00 -0.00000000000E+00 -0.14249977171E+03  0.14249977171E+03  0.00000000000E+00 0. -1.
         25    2    1    2    0    0  0.34957417383E+01 -0.84829464518E+02  0.62170352605E+03  0.63980287131E+03  0.12499672628E+03 0.  0.
          2    1    1    2  501    0 -0.14806477398E+02  0.39125691551E+02 -0.12960780345E+03  0.13619190221E+03  0.00000000000E+00 0. -1.
          1    1    1    2  502    0  0.11310735660E+02  0.45703772967E+02  0.10066204674E+04  0.10077209598E+04  0.00000000000E+00 0. -1.
         22    1    3    3    0    0  0.12418776206E+02 -0.55344847135E+02  0.84828907087E+02  0.10204519383E+03  0.00000000000E+00 0.  1.
         22    1    3    3    0    0 -0.89230344681E+01 -0.29484617383E+02  0.53687461896E+03  0.53775767748E+03  0.00000000000E+00 0.  1.
</event>
<event>
 7    1  0.6358809E-006  0.3702300E+02  0.7818608E-02  0.1535494E+00
          2   -1    0    0  502    0  0.00000000000E+00  0.00000000000E+00  0.23063788565E+04  0.23063788565E+04  0.00000000000E+00 0. -1.
          1   -1    0    0  501    0 -0.00000000000E+00 -0.00000000000E+00 -0.10771339499E+04  0.10771339499E+04  0.00000000000E+00 0. -1.
         25    2    1    2    0    0 -0.87343648496E+01  0.70900203144E+02  0.13471453672E+03  0.19716975163E+03  0.12499910648E+03 0.  0.
          2    1    1    2  501    0  0.11844238042E+02 -0.35008873322E+02 -0.10454281950E+04  0.10460812675E+04  0.00000000000E+00 0. -1.
          1    1    1    2  502    0 -0.31098731921E+01 -0.35891329822E+02  0.21399585649E+04  0.21402617873E+04  0.00000000000E+00 0. -1.
         22    1    3    3    0    0 -0.25800823712E+02 -0.17054722250E+02  0.93625822619E+02  0.98601930591E+02  0.00000000000E+00 0. -1.
         22    1    3    3    0    0  0.17066458863E+02  0.87954925394E+02  0.41088714097E+02  0.98567821043E+02  0.00000000000E+00 0. -1.
</event>
<event>
 7    1  0.6358809E-006  0.4395307E+02  0.7818608E-02  0.1503258E+00
          2   -1    0    0  502    0  0.00000000000E+00  0.00000000000E+00  0.31270506166E+04  0.31270506166E+04  0.00000000000E+00 0. -1.
          1   -1    0    0  501    0 -0.00000000000E+00 -0.00000000000E+00 -0.21818729448E+02  0.21818729448E+02  0.00000000000E+00 0. -1.
         25    2    1    2    0    0  0.17607906328E+02 -0.78519036427E+01  0.73848286284E+03  0.74922927934E+03  0.12496352890E+03 0.  0.
          2    1    1    2  501    0 -0.89154139855E+01 -0.36581983396E+02  0.56115854388E+01  0.38068569803E+02  0.00000000000E+00 0. -1.
          1    1    1    2  502    0 -0.86924923425E+01  0.44433887039E+02  0.23611374388E+04  0.23615714969E+04  0.00000000000E+00 0. -1.
         22    1    3    3    0    0  0.58120442893E+02 -0.20910140215E+02  0.20633692887E+03  0.21538372283E+03  0.00000000000E+00 0. -1.
         22    1    3    3    0    0 -0.40512536565E+02  0.13058236573E+02  0.53214593397E+03  0.53384555650E+03  0.00000000000E+00 0. -1.
</event>
<event>
 7    1  0.6358809E-006  0.1202299E+03  0.7818608E-02  0.1290582E+00
          2   -1    0    0  502    0  0.00000000000E+00  0.00000000000E+00  0.85265851653E+03  0.85265851653E+03  0.00000000000E+00 0. -1.
          1   -1    0    0  501    0 -0.00000000000E+00 -0.00000000000E+00 -0.10509717729E+04  0.10509717729E+04  0.00000000000E+00 0. -1.
         25    2    1    2    0    0  0.13837097871E+03 -0.12883505059E+02 -0.35243751119E+02  0.19021122938E+03  0.12500270932E+03 0.  0.
          2    1    1    2  501    0 -0.10671374125E+03 -0.55640077673E+02 -0.93253067774E+03  0.94026438077E+03  0.00000000000E+00 0. -1.
          1    1    1    2  502    0 -0.31657237457E+02  0.68523582732E+02  0.76946117250E+03  0.77315467926E+03  0.00000000000E+00 0. -1.
         22    1    3    3    0    0  0.95615623853E+01 -0.50791663277E+02 -0.12306284211E+01  0.51698462067E+02  0.00000000000E+00 0. -1.
         22    1    3    3    0    0  0.12880941633E+03  0.37908158218E+02 -0.34013122698E+02  0.13851276732E+03  0.00000000000E+00 0. -1.
</event>
<event>
 7    1  0.6358809E-006  0.2186497E+03  0.7818608E-02  0.1172275E+00
          2   -1    0    0  502    0  0.00000000000E+00  0.00000000000E+00  0.50474186728E+03  0.50474186728E+03  0.00000000000E+00 0. -1.
          1   -1    0    0  501    0 -0.00000000000E+00 -0.00000000000E+00 -0.11866824959E+04  0.11866824959E+04  0.00000000000E+00 0. -1.
         25    2    1    2    0    0  0.10114723030E+03 -0.15444959794E+03 -0.26827514332E+03  0.34882690978E+03  0.12499287964E+03 0.  0.
          2    1    1    2  501    0 -0.12236780685E+03 -0.69635358352E+02 -0.84468802988E+03  0.85634153882E+03  0.00000000000E+00 0. -1.
          1    1    1    2  502    0  0.21220576551E+02  0.22408495629E+03  0.43102254459E+03  0.48625591457E+03  0.00000000000E+00 0. -1.
         22    1    3    3    0    0 -0.15076812315E+02 -0.22717329094E+02 -0.10676460033E+03  0.11019104861E+03  0.00000000000E+00 0.  1.
         22    1    3    3    0    0  0.11622404262E+03 -0.13173226885E+03 -0.16151054299E+03  0.23863586116E+03  0.00000000000E+00 0.  1.
</event>
<event>
 7    1  0.6358809E-006  0.1635497E+03  0.7818608E-02  0.1198670E+00
          2   -1    0    0  502    0  0.00000000000E+00  0.00000000000E+00  0.52867691720E+03  0.52867691720E+03  0.00000000000E+00 0. -1.
          1   -1    0    0  501    0 -0.00000000000E+00 -0.00000000000E+00 -0.10062199617E+04  0.10062199617E+04  0.00000000000E+00 0. -1.
         25    2    1    2    0    0 -0.14379050218E+03  0.46819459288E+02 -0.70493652040E+02  0.20847098093E+03  0.12499209826E+03 0.  0.
          2    1    1    2  501    0  0.61179896371E+02 -0.16021407452E+03 -0.84723778446E+03  0.86442084242E+03  0.00000000000E+00 0. -1.
          1    1    1    2  502    0  0.82610605813E+02  0.11339461523E+03  0.44018839197E+03  0.46200505558E+03  0.00000000000E+00 0. -1.
         22    1    3    3    0    0 -0.13054116947E+03 -0.16295611889E+02 -0.51059722860E+02  0.14111569435E+03  0.00000000000E+00 0. -1.
         22    1    3    3    0    0 -0.13249332712E+02  0.63115071177E+02 -0.19433929180E+02  0.67355286581E+02  0.00000000000E+00 0. -1.
</event>
<event>
 7    1  0.6358809E-006  0.7149907E+02  0.7818608E-02  0.1440294E+00
          2   -1    0    0  502    0  0.00000000000E+00  0.00000000000E+00  0.61368775861E+03  0.61368775861E+03  0.00000000000E+00 0. -1.
          1   -1    0    0  501    0 -0.00000000000E+00 -0.00000000000E+00 -0.61533836250E+03  0.61533836250E+03  0.00000000000E+00 0. -1.
         25    2    1    2    0    0 -0.38258418259E+02 -0.48422906948E+01 -0.15487575473E+02  0.13172475771E+03  0.12499756979E+03 0.  0.
          2    1    1    2  501    0  0.68584028323E+02  0.24800700568E+02 -0.53867922821E+03  0.54359374039E+03  0.00000000000E+00 0. -1.
          1    1    1    2  502    0 -0.30325610064E+02 -0.19958409873E+02  0.55251619979E+03  0.55370762301E+03  0.00000000000E+00 0. -1.
         22    1    3    3    0    0 -0.64753687374E+02  0.41841944491E+02 -0.10656305861E+02  0.77828948354E+02  0.00000000000E+00 0.  1.
         22    1    3    3    0    0  0.26495269115E+02 -0.46684235185E+02 -0.48312696115E+01  0.53895809358E+02  0.00000000000E+00 0.  1.
</event>
<event>
 7    1  0.6358809E-006  0.8952851E+02  0.7818608E-02  0.1327692E+00
          2   -1    0    0  502    0  0.00000000000E+00  0.00000000000E+00  0.99963000109E+02  0.99963000109E+02  0.00000000000E+00 0. -1.
          1   -1    0    0  501    0 -0.00000000000E+00 -0.00000000000E+00 -0.45917214433E+03  0.45917214433E+03  0.00000000000E+00 0. -1.
         25    2    1    2    0    0 -0.56194390375E+02  0.67640309730E+02 -0.65480719358E+02  0.16626937890E+03  0.12499904296E+03 0.  0.
          2    1    1    2  501    0 -0.11759770535E+02 -0.92467608039E+02 -0.30564580480E+03  0.31954328147E+03  0.00000000000E+00 0. -1.
          1    1    1    2  502    0  0.67954160910E+02  0.24827298309E+02  0.11917379938E+02  0.73322484075E+02  0.00000000000E+00 0. -1.
         22    1    3    3    0    0 -0.86199821061E+02  0.19266753334E+02 -0.64441840029E+02  0.10933603103E+03  0.00000000000E+00 0. -1.
         22    1    3    3    0    0  0.30005430686E+02  0.48373556396E+02 -0.10388793292E+01  0.56933347867E+02  0.00000000000E+00 0. -1.
</event>
<event>
 7    1  0.6358809E-006  0.7158192E+02  0.7818608E-02  0.1411473E+00
          2   -1    0    0  502    0  0.00000000000E+00  0.00000000000E+00  0.82736442971E+03  0.82736442971E+03  0.00000000000E+00 0. -1.
          1   -1    0    0  501    0 -0.00000000000E+00 -0.00000000000E+00 -0.50529428001E+02  0.50529428001E+02  0.00000000000E+00 0. -1.
         25    2    1    2    0    0  0.19070768504E+02 -0.91951096765E+02  0.44341819697E+03  0.47017433582E+03  0.12500204100E+03 0.  0.
          2    1    1    2  501    0 -0.44643369866E+02  0.54709747828E+02 -0.64603458076E+00  0.70615892978E+02  0.00000000000E+00 0. -1.
          1    1    1    2  502    0  0.25572601362E+02  0.37241348937E+02  0.33406283932E+03  0.33710362891E+03  0.00000000000E+00 0. -1.
         22    1    3    3    0    0  0.48941072436E+02 -0.94896667900E+02  0.21775671277E+03  0.24252544631E+03  0.00000000000E+00 0. -1.
         22    1    3    3    0    0 -0.29870303932E+02  0.29455711351E+01  0.22566148420E+03  0.22764888951E+03  0.00000000000E+00 0. -1.
</event>
<event>
 7    1  0.6358809E-006  0.7736782E+02  0.7818608E-02  0.1438947E+00
          2   -1    0    0  502    0  0.00000000000E+00  0.00000000000E+00  0.60044282624E+03  0.60044282624E+03  0.00000000000E+00 0. -1.
          1   -1    0    0  501    0 -0.00000000000E+00 -0.00000000000E+00 -0.87461828491E+03  0.87461828491E+03  0.00000000000E+00 0. -1.
         25    2    1    2    0    0 -0.23638572805E+02  0.57674074372E+02 -0.18566479962E+03  0.23234086824E+03  0.12500312098E+03 0.  0.
          2    1    1    2  501    0  0.27460481876E+02  0.19860503477E+02 -0.66256987760E+03  0.66343602583E+03  0.00000000000E+00 0. -1.
          1    1    1    2  502    0 -0.38219090704E+01 -0.77534577849E+02  0.57405921856E+03  0.57928421709E+03  0.00000000000E+00 0. -1.
         22    1    3    3    0    0 -0.66114825390E+01  0.96392844441E+02 -0.13992037333E+03  0.17003823991E+03  0.00000000000E+00 0. -1.
         22    1    3    3    0    0 -0.17027090266E+02 -0.38718770069E+02 -0.45744426295E+02  0.62302628320E+02  0.00000000000E+00 0. -1.
</event>
<event>
 7    1  0.6358809E-006  0.5872041E+02  0.7818608E-02  0.1410170E+00
          2   -1    0    0  502    0  0.00000000000E+00  0.00000000000E+00  0.14620955392E+04  0.14620955392E+04  0.00000000000E+00 0. -1.
          1   -1    0    0  501    0 -0.00000000000E+00 -0.00000000000E+00 -0.17688748998E+02  0.17688748998E+02  0.00000000000E+00 0. -1.
         25    2    1    2    0    0  0.71476511315E+01 -0.98164268816E+00  0.28865514174E+03  0.31464063352E+03  0.12499953948E+03 0.  0.
          2    1    1    2  501    0  0.54919105555E+02 -0.88856963841E+01  0.20802995834E+03  0.21534049160E+03  0.00000000000E+00 0. -1.
          1    1    1    2  502    0 -0.62066756687E+02  0.98673390722E+01  0.94772169016E+03  0.94980316312E+03  0.00000000000E+00 0. -1.
         22    1    3    3    0    0 -0.23296395539E+02  0.45780966034E+02  0.22125701122E+03  0.22714155039E+03  0.00000000000E+00 0.  1.
         22    1    3    3    0    0  0.30444046670E+02 -0.46762608722E+02  0.67398130517E+02  0.87499083134E+02  0.00000000000E+00 0.  1.
</event>
<event>
 7    1  0.6358809E-006  0.7547914E+02  0.7818608E-02  0.1389760E+00
          2   -1    0    0  502    0  0.00000000000E+00  0.00000000000E+00  0.97547337991E+03  0.97547337991E+03  0.00000000000E+00 0. -1.
          1   -1    0    0  501    0 -0.00000000000E+00 -0.00000000000E+00 -0.31164502023E+03  0.31164502023E+03  0.00000000000E+00 0. -1.
         25    2    1    2    0    0  0.65591204131E+02  0.10147989134E+03  0.57243449575E+02  0.18303662852E+03  0.12500088182E+03 0.  0.
          2    1    1    2  501    0 -0.51317708066E+02 -0.52650242796E+02 -0.24253769932E+03  0.25343656173E+03  0.00000000000E+00 0. -1.
          1    1    1    2  502    0 -0.14273496064E+02 -0.48829648548E+02  0.84912260943E+03  0.85064520989E+03  0.00000000000E+00 0. -1.
         22    1    3    3    0    0  0.30902922144E+02  0.11374856006E+03  0.35236430733E+01  0.11792430442E+03  0.00000000000E+00 0.  1.
         22    1    3    3    0    0  0.34688281987E+02 -0.12268668717E+02  0.53719806501E+02  0.65112324101E+02  0.00000000000E+00 0.  1.
</event>
<event>
 7    1  0.8344347E-006  0.1429851E+03  0.7818608E-02  0.1248291E+00
          2   -1    0    0  502    0  0.00000000000E+00  0.00000000000E+00  0.14218937773E+04  0.14218937773E+04  0.00000000000E+00 0. -1.
          1   -1    0    0  501    0 -0.00000000000E+00 -0.00000000000E+00 -0.83546998430E+03  0.83546998430E+03  0.00000000000E+00 0. -1.
         25    2    1    2    0    0 -0.41349610227E+02 -0.10008211359E+03 -0.39709747727E+03  0.43016049765E+03  0.12500171024E+03 0.  0.
          2    1    1    2  501    0 -0.87875296496E+02  0.37601994704E+02 -0.41269966670E+03  0.42362364504E+03  0.00000000000E+00 0. -1.
          1    1    1    2  502    0  0.12922490672E+03  0.62480118889E+02  0.13962209370E+04  0.14035796189E+04  0.00000000000E+00 0. -1.
         22    1    3    3    0    0 -0.37937060016E+02  0.13618234690E+02 -0.46330371509E+02  0.61409935376E+02  0.00000000000E+00 0.  1.
         22    1    3    3    0    0 -0.34125502109E+01 -0.11370034828E+03 -0.35076710576E+03  0.36875056228E+03  0.00000000000E+00 0.  1.
</event>
<event>
 7    1  0.6358809E-006  0.1415745E+03  0.7818608E-02  0.1229177E+00
          2   -1    0    0  502    0  0.00000000000E+00  0.00000000000E+00  0.10276486660E+04  0.10276486660E+04  0.00000000000E+00 0. -1.
          1   -1    0    0  501    0 -0.00000000000E+00 -0.00000000000E+00 -0.52928047626E+03  0.52928047626E+03  0.00000000000E+00 0. -1.
         25    2    1    2    0    0  0.51004550808E+02  0.48999095553E+02 -0.86680761836E+02  0.16775309310E+03  0.12500068081E+03 0.  0.
          2    1    1    2  501    0 -0.70450492554E+02 -0.16463833958E+03 -0.37839039810E+03  0.41862674083E+03  0.00000000000E+00 0. -1.
          1    1    1    2  502    0  0.19445941745E+02  0.11563924402E+03  0.96343934968E+03  0.97054930834E+03  0.00000000000E+00 0. -1.
         22    1    3    3    0    0  0.44036676707E+02  0.41652750363E+02 -0.11918231429E+03  0.13371089914E+03  0.00000000000E+00 0.  1.
         22    1    3    3    0    0  0.69678741012E+01  0.73463451893E+01  0.32501552459E+02  0.34042193957E+02  0.00000000000E+00 0.  1.
</event>
<event>
 7    1  0.6358809E-006  0.6440252E+02  0.7818608E-02  0.1416926E+00
          2   -1    0    0  502    0  0.00000000000E+00  0.00000000000E+00  0.11801349584E+04  0.11801349584E+04  0.00000000000E+00 0. -1.
          1   -1    0    0  501    0 -0.00000000000E+00 -0.00000000000E+00 -0.48855689618E+02  0.48855689618E+02  0.00000000000E+00 0. -1.
         25    2    1    2    0    0  0.87682428313E+02 -0.18688463235E+02  0.12722447337E+03  0.19962148911E+03  0.12500082159E+03 0.  0.
          2    1    1    2  501    0 -0.27202542153E+02  0.39709128812E+02  0.38346646288E+02  0.61540705977E+02  0.00000000000E+00 0. -1.
          1    1    1    2  502    0 -0.60479886160E+02 -0.21020665576E+02  0.96570814913E+03  0.96782845293E+03  0.00000000000E+00 0. -1.
         22    1    3    3    0    0  0.78665488903E+02 -0.64771259754E+02  0.62092063853E+02  0.11932727948E+03  0.00000000000E+00 0.  1.
         22    1    3    3    0    0  0.90169394099E+01  0.46082796518E+02  0.65132409514E+02  0.80294209632E+02  0.00000000000E+00 0.  1.
</event>
<event>
 7    1  0.6358809E-006  0.9683084E+02  0.7818608E-02  0.1420451E+00
          2   -1    0    0  502    0  0.00000000000E+00  0.00000000000E+00  0.13968423547E+03  0.13968423547E+03  0.00000000000E+00 0. -1.
          1   -1    0    0  501    0 -0.00000000000E+00 -0.00000000000E+00 -0.88088721486E+03  0.88088721486E+03  0.00000000000E+00 0. -1.
         25    2    1    2    0    0 -0.93917483874E+02  0.29681962921E+00 -0.92859399519E+02  0.18184775972E+03  0.12500063102E+03 0.  0.
          2    1    1    2  501    0  0.95539613727E+00  0.31141037553E+02 -0.71781335843E+03  0.71848917496E+03  0.00000000000E+00 0. -1.
          1    1    1    2  502    0  0.92962087736E+02 -0.31437857182E+02  0.69469778554E+02  0.12023451565E+03  0.00000000000E+00 0. -1.
         22    1    3    3    0    0 -0.73265986691E+02  0.55485043950E+02 -0.32467514803E+02  0.97471197928E+02  0.00000000000E+00 0.  1.
         22    1    3    3    0    0 -0.20651497183E+02 -0.55188224321E+02 -0.60391884716E+02  0.84376561788E+02  0.00000000000E+00 0.  1.
</event>
<event>
 7    1  0.6358809E-006  0.9661085E+02  0.7818608E-02  0.1413520E+00
          2   -1    0    0  502    0  0.00000000000E+00  0.00000000000E+00  0.15028477834E+04  0.15028477834E+04  0.00000000000E+00 0. -1.
          1   -1    0    0  501    0 -0.00000000000E+00 -0.00000000000E+00 -0.12234095957E+03  0.12234095957E+03  0.00000000000E+00 0. -1.
         25    2    1    2    0    0  0.51823627276E+01 -0.11703870535E+03  0.54839963734E+03  0.57453537068E+03  0.12499525791E+03 0.  0.
          2    1    1    2  501    0 -0.21356755396E+02  0.25083738596E+02 -0.10441489663E+03  0.10948870070E+03  0.00000000000E+00 0. -1.
          1    1    1    2  502    0  0.16174392668E+02  0.91954966754E+02  0.93652208313E+03  0.94116467160E+03  0.00000000000E+00 0. -1.
         22    1    3    3    0    0  0.88445867501E+01 -0.13271672503E+03  0.33368689193E+03  0.35921984587E+03  0.00000000000E+00 0.  1.
         22    1    3    3    0    0 -0.36622240225E+01  0.15678019684E+02  0.21471274541E+03  0.21531552482E+03  0.00000000000E+00 0.  1.
</event>
<event>
 7    1  0.6358809E-006  0.5484088E+02  0.7818608E-02  0.1513571E+00
          2   -1    0    0  502    0  0.00000000000E+00  0.00000000000E+00  0.28772698906E+04  0.28772698906E+04  0.00000000000E+00 0. -1.
          1   -1    0    0  501    0 -0.00000000000E+00 -0.00000000000E+00 -0.22175559996E+03  0.22175559996E+03  0.00000000000E+00 0. -1.
         25    2    1    2    0    0  0.78324156090E+02 -0.13988817437E+02  0.10527217922E+04  0.10630988167E+04  0.12500224686E+03 0.  0.
          2    1    1    2  501    0 -0.54748128812E+02 -0.13665370643E+01 -0.21299412482E+03  0.21992208220E+03  0.00000000000E+00 0. -1.
          1    1    1    2  502    0 -0.23576027278E+02  0.15355354501E+02  0.18157866233E+04  0.18160045917E+04  0.00000000000E+00 0. -1.
         22    1    3    3    0    0  0.31700742707E+02  0.52026670777E+02  0.61226096177E+03  0.61528464702E+03  0.00000000000E+00 0. -1.
         22    1    3    3    0    0  0.46623413383E+02 -0.66015488215E+02  0.44046083047E+03  0.44781416965E+03  0.00000000000E+00 0. -1.
</event>
<event>
 7    1  0.6358809E-006  0.1038449E+03  0.7818608E-02  0.1335354E+00
          2   -1    0    0  502    0  0.00000000000E+00  0.00000000000E+00  0.40473124858E+03  0.40473124858E+03  0.00000000000E+00 0. -1.
          1   -1    0    0  501    0 -0.00000000000E+00 -0.00000000000E+00 -0.12375408055E+04  0.12375408055E+04  0.00000000000E+00 0. -1.
         25    2    1    2    0    0 -0.14041796444E+03 -0.61083885456E+02 -0.88348394661E+02  0.21651631102E+03  0.12500171318E+03 0.  0.
          2    1    1    2  501    0  0.58302711745E+02  0.13201438833E+01 -0.10767319418E+04  0.10783100776E+04  0.00000000000E+00 0. -1.
          1    1    1    2  502    0  0.82115252695E+02  0.59763741573E+02  0.33227077952E+03  0.34744566547E+03  0.00000000000E+00 0. -1.
         22    1    3    3    0    0 -0.60586339078E+02  0.35986955245E+02 -0.19058161848E+02  0.72999855915E+02  0.00000000000E+00 0.  1.
         22    1    3    3    0    0 -0.79831625363E+02 -0.97070840701E+02 -0.69290232812E+02  0.14351645510E+03  0.00000000000E+00 0.  1.
</event>
<event>
 7    1  0.6358809E-006  0.6039231E+02  0.7818608E-02  0.1507440E+00
          2   -1    0    0  502    0  0.00000000000E+00  0.00000000000E+00  0.96656380808E+03  0.96656380808E+03  0.00000000000E+00 0. -1.
          1   -1    0    0  501    0 -0.00000000000E+00 -0.00000000000E+00 -0.43891046154E+02  0.43891046154E+02  0.00000000000E+00 0. -1.
         25    2    1    2    0    0  0.48841822091E+02 -0.54642767616E+02  0.19850944537E+03  0.24576783983E+03  0.12499790220E+03 0.  0.
          2    1    1    2  501    0 -0.22212943627E+02  0.54184393365E+02  0.22838463392E+02  0.62856652464E+02  0.00000000000E+00 0. -1.
          1    1    1    2  502    0 -0.26628878464E+02  0.45837425091E+00  0.70132485317E+03  0.70183036194E+03  0.00000000000E+00 0. -1.
         22    1    3    3    0    0  0.41587380842E+02  0.30846535586E+02  0.39634172231E+02  0.65206492096E+02  0.00000000000E+00 0.  1.
         22    1    3    3    0    0  0.72544412487E+01 -0.85489303203E+02  0.15887527314E+03  0.18056134773E+03  0.00000000000E+00 0.  1.
</event>
<event>
 7    1  0.6358809E-006  0.1820180E+03  0.7818608E-02  0.1291719E+00
          2   -1    0    0  502    0  0.00000000000E+00  0.00000000000E+00  0.87781007313E+03  0.87781007313E+03  0.00000000000E+00 0. -1.
          1   -1    0    0  501    0 -0.00000000000E+00 -0.00000000000E+00 -0.15223071654E+04  0.15223071654E+04  0.00000000000E+00 0. -1.
         25    2    1    2    0    0 -0.18478336323E+03 -0.11837813766E+03 -0.58480146176E+03  0.63700506536E+03  0.12499771523E+03 0.  0.
          2    1    1    2  501    0  0.14031117901E+03  0.97026591395E+02 -0.90269389802E+03  0.91867168233E+03  0.00000000000E+00 0. -1.
          1    1    1    2  502    0  0.44472184222E+02  0.21351546267E+02  0.84299826747E+03  0.84444049089E+03  0.00000000000E+00 0. -1.
         22    1    3    3    0    0 -0.14534543886E+03 -0.20891751879E+02 -0.36130007070E+03  0.38999936280E+03  0.00000000000E+00 0.  1.
         22    1    3    3    0    0 -0.39437924365E+02 -0.97486385783E+02 -0.22350139106E+03  0.24700570256E+03  0.00000000000E+00 0.  1.
</event>
<event>
 7    1  0.6358809E-006  0.7442514E+02  0.7818608E-02  0.1356259E+00
          2   -1    0    0  502    0  0.00000000000E+00  0.00000000000E+00  0.44556245106E+03  0.44556245106E+03  0.00000000000E+00 0. -1.
          1   -1    0    0  501    0 -0.00000000000E+00 -0.00000000000E+00 -0.37349423280E+03  0.37349423280E+03  0.00000000000E+00 0. -1.
         25    2    1    2    0    0  0.20589902547E+02  0.51692600735E+02  0.25897305927E+02  0.13925385538E+03  0.12499958690E+03 0.  0.
          2    1    1    2  501    0  0.46743367401E+02 -0.61191287133E+02 -0.30886227785E+03  0.31831623065E+03  0.00000000000E+00 0. -1.
          1    1    1    2  502    0 -0.67333269949E+02  0.94986863976E+01  0.35503319018E+03  0.36148659784E+03  0.00000000000E+00 0. -1.
         22    1    3    3    0    0  0.16825191809E+02  0.47128372978E+02  0.74799418936E+02  0.89995131491E+02  0.00000000000E+00 0.  1.
         22    1    3    3    0    0  0.37647107389E+01  0.45642277574E+01 -0.48902113009E+02  0.49258723884E+02  0.00000000000E+00 0.  1.
</event>
<event>
 7    1  0.6358809E-006  0.5389552E+02  0.7818608E-02  0.1496954E+00
          2   -1    0    0  502    0  0.00000000000E+00  0.00000000000E+00  0.69539188234E+03  0.69539188234E+03  0.00000000000E+00 0. -1.
          1   -1    0    0  501    0 -0.00000000000E+00 -0.00000000000E+00 -0.53380492706E+03  0.53380492706E+03  0.00000000000E+00 0. -1.
         25    2    1    2    0    0  0.42562375204E+02 -0.68803738819E+02  0.11596322902E+03  0.18871721514E+03  0.12498482527E+03 0.  0.
          2    1    1    2  501    0 -0.38920930868E+02  0.36945250054E+02 -0.49550459071E+03  0.49840203629E+03  0.00000000000E+00 0. -1.
          1    1    1    2  502    0 -0.36414443356E+01  0.31858488765E+02  0.54112831697E+03  0.54207755797E+03  0.00000000000E+00 0. -1.
         22    1    3    3    0    0  0.21193496459E+02  0.26601974331E+02  0.75684546149E+02  0.82975778733E+02  0.00000000000E+00 0.  1.
         22    1    3    3    0    0  0.21368878745E+02 -0.95405713150E+02  0.40278682866E+02  0.10574143641E+03  0.00000000000E+00 0.  1.
</event>
<event>
 7    1  0.6358809E-006  0.8621840E+02  0.7818608E-02  0.1383161E+00
          2   -1    0    0  502    0  0.00000000000E+00  0.00000000000E+00  0.19497845201E+03  0.19497845201E+03  0.00000000000E+00 0. -1.
          1   -1    0    0  501    0 -0.00000000000E+00 -0.00000000000E+00 -0.44858255104E+03  0.44858255104E+03  0.00000000000E+00 0. -1.
         25    2    1    2    0    0  0.64936763292E+02 -0.42409189412E+02  0.11925347351E+03  0.18937209624E+03  0.12500030927E+03 0.  0.
          2    1    1    2  501    0 -0.86845340177E+02  0.85646578401E+00 -0.39343360021E+03  0.40290550309E+03  0.00000000000E+00 0. -1.
          1    1    1    2  502    0  0.21908576885E+02  0.41552723628E+02  0.20576027676E+02  0.51283403718E+02  0.00000000000E+00 0. -1.
         22    1    3    3    0    0  0.92390720373E+02 -0.54492584922E+02  0.59865073910E+02  0.12283856926E+03  0.00000000000E+00 0.  1.
         22    1    3    3    0    0 -0.27453957081E+02  0.12083395510E+02  0.59388399598E+02  0.66533526987E+02  0.00000000000E+00 0.  1.
</event>
<event>
 7    1  0.6358809E-006  0.1638239E+03  0.7818608E-02  0.1258041E+00
          2   -1    0    0  502    0  0.00000000000E+00  0.00000000000E+00  0.23414810721E+04  0.23414810721E+04  0.00000000000E+00 0. -1.
          1   -1    0    0  501    0 -0.00000000000E+00 -0.00000000000E+00 -0.48175776418E+02  0.48175776418E+02  0.00000000000E+00 0. -1.
         25    2    1    2    0    0 -0.23921419877E+02  0.20869726338E+03  0.13161592214E+04  0.13386664908E+04  0.12500438178E+03 0.  0.
          2    1    1    2  501    0  0.37097321200E+02 -0.66010221490E+02  0.13703961192E+02  0.76950367990E+02  0.00000000000E+00 0. -1.
          1    1    1    2  502    0 -0.13175901323E+02 -0.14268704189E+03  0.96344211315E+03  0.97403998978E+03  0.00000000000E+00 0. -1.
         22    1    3    3    0    0  0.59230658333E+01  0.20508250419E+03  0.98470903496E+03  0.10058557549E+04  0.00000000000E+00 0. -1.
         22    1    3    3    0    0 -0.29844485710E+02  0.36147591868E+01  0.33145018640E+03  0.33281073582E+03  0.00000000000E+00 0. -1.
</event>
<event>
 7    1  0.6358809E-006  0.5166643E+02  0.7818608E-02  0.1473648E+00
          2   -1    0    0  502    0  0.00000000000E+00  0.00000000000E+00  0.81178335313E+03  0.81178335313E+03  0.00000000000E+00 0. -1.
          1   -1    0    0  501    0 -0.00000000000E+00 -0.00000000000E+00 -0.69971978707E+02  0.69971978707E+02  0.00000000000E+00 0. -1.
         25    2    1    2    0    0 -0.47947453668E+02 -0.20236362806E+02  0.53301457101E+02  0.14551797421E+03  0.12500386713E+03 0.  0.
          2    1    1    2  501    0  0.22527843883E+02  0.50323566421E+02  0.93341148254E+01  0.55920396878E+02  0.00000000000E+00 0. -1.
          1    1    1    2  502    0  0.25419609784E+02 -0.30087203615E+02  0.67917580250E+03  0.68031696075E+03  0.00000000000E+00 0. -1.
         22    1    3    3    0    0 -0.53951624019E+02 -0.27555456377E+02  0.89514724396E+02  0.10808777356E+03  0.00000000000E+00 0. -1.
         22    1    3    3    0    0  0.60041703512E+01  0.73190935705E+01 -0.36213267295E+02  0.37430200647E+02  0.00000000000E+00 0. -1.
</event>
<event>
 7    1  0.6358809E-006  0.1272953E+03  0.7818608E-02  0.1396261E+00
          2   -1    0    0  502    0  0.00000000000E+00  0.00000000000E+00  0.29415571344E+03  0.29415571344E+03  0.00000000000E+00 0. -1.
          1   -1    0    0  501    0 -0.00000000000E+00 -0.00000000000E+00 -0.52594597489E+03  0.52594597489E+03  0.00000000000E+00 0. -1.
         25    2    1    2    0    0  0.14043290303E+03 -0.26724743750E+02  0.99993897189E+02  0.21461464450E+03  0.12500021590E+03 0.  0.
          2    1    1    2  501    0 -0.11831558430E+03  0.44914180643E+02 -0.45846433858E+03  0.47561056639E+03  0.00000000000E+00 0. -1.
          1    1    1    2  502    0 -0.22117318724E+02 -0.18189436893E+02  0.12668017995E+03  0.12987647744E+03  0.00000000000E+00 0. -1.
         22    1    3    3    0    0  0.77304158366E+02 -0.72225571966E+02  0.30040067774E+02  0.10997668761E+03  0.00000000000E+00 0.  1.
         22    1    3    3    0    0  0.63128744660E+02  0.45500828215E+02  0.69953829416E+02  0.10463795688E+03  0.00000000000E+00 0.  1.
</event>
<event>
 7    1  0.6358809E-006  0.5106487E+02  0.7818608E-02  0.1550767E+00
          2   -1    0    0  502    0  0.00000000000E+00  0.00000000000E+00  0.30932326485E+03  0.30932326485E+03  0.00000000000E+00 0. -1.
          1   -1    0    0  501    0 -0.00000000000E+00 -0.00000000000E+00 -0.10675982731E+04  0.10675982731E+04  0.00000000000E+00 0. -1.
         25    2    1    2    0    0 -0.49753630616E+02 -0.49956974153E+02 -0.58079363631E+02  0.15482150635E+03  0.12500145328E+03 0.  0.
          2    1    1    2  501    0  0.27156779775E+02  0.42953008830E+02 -0.95993818374E+03  0.96128235616E+03  0.00000000000E+00 0. -1.
          1    1    1    2  502    0  0.22596850842E+02  0.70039653234E+01  0.25974253912E+03  0.26081767545E+03  0.00000000000E+00 0. -1.
         22    1    3    3    0    0 -0.45577554292E+02  0.19643171225E+02 -0.68219492211E+02  0.84362709466E+02  0.00000000000E+00 0.  1.
         22    1    3    3    0    0 -0.41760763246E+01 -0.69600145379E+02  0.10140128580E+02  0.70458796880E+02  0.00000000000E+00 0.  1.
</event>
<event>
 7    1  0.6358809E-006  0.3170696E+02  0.7818608E-02  0.1622708E+00
          2   -1    0    0  502    0  0.00000000000E+00  0.00000000000E+00  0.64589475811E+03  0.64589475811E+03  0.00000000000E+00 0. -1.
          1   -1    0    0  501    0 -0.00000000000E+00 -0.00000000000E+00 -0.84597775130E+03  0.84597775130E+03  0.00000000000E+00 0. -1.
         25    2    1    2    0    0  0.15288250014E+02  0.29308374533E+02  0.11638459285E+03  0.17396281002E+03  0.12499989764E+03 0.  0.
          2    1    1    2  501    0 -0.24496818878E+02  0.11776258409E+01 -0.81649796636E+03  0.81686621305E+03  0.00000000000E+00 0. -1.
          1    1    1    2  502    0  0.92085688639E+01 -0.30486000373E+02  0.50003038033E+03  0.50104348635E+03  0.00000000000E+00 0. -1.
         22    1    3    3    0    0  0.35518902807E+02 -0.30673565948E+02  0.97005004623E+02  0.10776099028E+03  0.00000000000E+00 0.  1.
         22    1    3    3    0    0 -0.20230652793E+02  0.59981940481E+02  0.19379588230E+02  0.66201819735E+02  0.00000000000E+00 0.  1.
</event>
<event>
 7    1  0.6358809E-006  0.4685915E+02  0.7818608E-02  0.1478785E+00
          2   -1    0    0  502    0  0.00000000000E+00  0.00000000000E+00  0.17814510654E+04  0.17814510654E+04  0.00000000000E+00 0. -1.
          1   -1    0    0  501    0 -0.00000000000E+00 -0.00000000000E+00 -0.96320206510E+03  0.96320206510E+03  0.00000000000E+00 0. -1.
         25    2    1    2    0    0  0.62955250091E+01  0.41676686346E+02  0.14290171876E+04  0.14350928495E+04  0.12499913704E+03 0.  0.
          2    1    1    2  501    0  0.40815942394E+02 -0.23018230539E+02 -0.95775120902E+03  0.95889684454E+03  0.00000000000E+00 0. -1.
          1    1    1    2  502    0 -0.47111467403E+02 -0.18658455806E+02  0.34698302170E+03  0.35066343647E+03  0.00000000000E+00 0. -1.
         22    1    3    3    0    0  0.27073516501E+02  0.44606203291E+02  0.13883591565E+04  0.13893393524E+04  0.00000000000E+00 0.  1.
         22    1    3    3    0    0 -0.20777991492E+02 -0.29295169455E+01  0.40658031110E+02  0.45753497066E+02  0.00000000000E+00 0.  1.
</event>
<event>
 7    1  0.6358809E-006  0.3340767E+02  0.7818608E-02  0.1575074E+00
          2   -1    0    0  502    0  0.00000000000E+00  0.00000000000E+00  0.99536464467E+03  0.99536464467E+03  0.00000000000E+00 0. -1.
          1   -1    0    0  501    0 -0.00000000000E+00 -0.00000000000E+00 -0.43116778844E+03  0.43116778844E+03  0.00000000000E+00 0. -1.
         25    2    1    2    0    0 -0.34528781873E+02 -0.20329929065E+02 -0.23298713867E+03  0.26742012911E+03  0.12499990349E+03 0.  0.
          2    1    1    2  501    0  0.28246048476E+01  0.30887202019E+02 -0.17934728539E+03  0.18200946793E+03  0.00000000000E+00 0. -1.
          1    1    1    2  502    0  0.31704177025E+02 -0.10557272954E+02  0.97653128030E+03  0.97710283607E+03  0.00000000000E+00 0. -1.
         22    1    3    3    0    0  0.17381918285E+01 -0.42050786129E+02 -0.13946280999E+02  0.44337215503E+02  0.00000000000E+00 0. -1.
         22    1    3    3    0    0 -0.36266973702E+02  0.21720857064E+02 -0.21904085767E+03  0.22308291361E+03  0.00000000000E+00 0. -1.
</event>
<event>
 7    1  0.6358809E-006  0.2493099E+03  0.7818608E-02  0.1180269E+00
          2   -1    0    0  502    0  0.00000000000E+00  0.00000000000E+00  0.74732301350E+03  0.74732301350E+03  0.00000000000E+00 0. -1.
          1   -1    0    0  501    0 -0.00000000000E+00 -0.00000000000E+00 -0.88378980418E+03  0.88378980418E+03  0.00000000000E+00 0. -1.
         25    2    1    2    0    0  0.15531996310E+03  0.53213826025E+02  0.30691381514E+03  0.36983443827E+03  0.12500167836E+03 0.  0.
          2    1    1    2  501    0 -0.25462925495E+03  0.28577042737E+00 -0.82496624620E+03  0.86336866199E+03  0.00000000000E+00 0. -1.
          1    1    1    2  502    0  0.99309291843E+02 -0.53499596452E+02  0.38158564039E+03  0.39790971742E+03  0.00000000000E+00 0. -1.
         22    1    3    3    0    0  0.93267475971E+02  0.88665560470E+02  0.15150901459E+03  0.19878477102E+03  0.00000000000E+00 0. -1.
         22    1    3    3    0    0  0.62052487133E+02 -0.35451734445E+02  0.15540480054E+03  0.17104966725E+03  0.00000000000E+00 0. -1.
</event>
<event>
 7    1  0.6358809E-006  0.3756252E+02  0.7818608E-02  0.1612602E+00
          2   -1    0    0  502    0  0.00000000000E+00  0.00000000000E+00  0.22934774538E+03  0.22934774538E+03  0.00000000000E+00 0. -1.
          1   -1    0    0  501    0 -0.00000000000E+00 -0.00000000000E+00 -0.21353901589E+04  0.21353901589E+04  0.00000000000E+00 0. -1.
         25    2    1    2    0    0 -0.56837596886E+02 -0.14350886074E+02 -0.14379915220E+04  0.14446041395E+04  0.12500016865E+03 0.  0.
          2    1    1    2  501    0  0.21965078226E+02  0.45195274113E+00 -0.69235824081E+03  0.69270672188E+03  0.00000000000E+00 0. -1.
          1    1    1    2  502    0  0.34872518660E+02  0.13898933332E+02  0.22430734928E+03  0.22742704291E+03  0.00000000000E+00 0. -1.
         22    1    3    3    0    0 -0.31104723744E+01  0.39885425022E+02 -0.18438730095E+03  0.18867749977E+03  0.00000000000E+00 0. -1.
         22    1    3    3    0    0 -0.53727124511E+02 -0.54236311095E+02 -0.12536042210E+04  0.12559266397E+04  0.00000000000E+00 0. -1.
</event>
<event>
 7    1  0.6358809E-006  0.1927263E+03  0.7818608E-02  0.1326706E+00
          2   -1    0    0  502    0  0.00000000000E+00  0.00000000000E+00  0.33966959339E+03  0.33966959339E+03  0.00000000000E+00 0. -1.
          1   -1    0    0  501    0 -0.00000000000E+00 -0.00000000000E+00 -0.42155831347E+03  0.42155831347E+03  0.00000000000E+00 0. -1.
         25    2    1    2    0    0 -0.26282877796E+02 -0.19757754920E+03  0.73221613204E+02  0.24640311040E+03  0.12500164223E+03 0.  0.
          2    1    1    2  501    0  0.57047658286E+02  0.18333349926E+03 -0.30540920707E+03  0.36074976234E+03  0.00000000000E+00 0. -1.
          1    1    1    2  502    0 -0.30764780490E+02  0.14244049948E+02  0.15029887379E+03  0.15407503412E+03  0.00000000000E+00 0. -1.
         22    1    3    3    0    0  0.25329774726E+02  0.51731552028E+01  0.11306649910E+02  0.28217004707E+02  0.00000000000E+00 0. -1.
         22    1    3    3    0    0 -0.51612652522E+02 -0.20275070441E+03  0.61914963294E+02  0.21818610569E+03  0.00000000000E+00 0. -1.
</event>
<event>
 7    1  0.6358809E-006  0.1060097E+03  0.7818608E-02  0.1428935E+00
          2   -1    0    0  502    0  0.00000000000E+00  0.00000000000E+00  0.13977202252E+03  0.13977202252E+03  0.00000000000E+00 0. -1.
          1   -1    0    0  501    0 -0.00000000000E+00 -0.00000000000E+00 -0.16274129943E+04  0.16274129943E+04  0.00000000000E+00 0. -1.
         25    2    1    2    0    0  0.11184518185E+03  0.54396418165E+02 -0.15717081904E+01  0.17634108234E+03  0.12500156815E+03 0.  0.
          2    1    1    2  501    0 -0.86076805517E+02 -0.61280665169E+02 -0.15331212075E+04  0.15367580074E+04  0.00000000000E+00 0. -1.
          1    1    1    2  502    0 -0.25768376338E+02  0.68842470045E+01  0.47051943955E+02  0.54085927059E+02  0.00000000000E+00 0. -1.
         22    1    3    3    0    0 -0.23339822327E+01  0.25195476180E+02 -0.44269660601E+02  0.50990806453E+02  0.00000000000E+00 0. -1.
         22    1    3    3    0    0  0.11417916409E+03  0.29200941985E+02  0.42697952410E+02  0.12535027589E+03  0.00000000000E+00 0. -1.
</event>
<event>
 7    1  0.6358809E-006  0.6130241E+02  0.7818608E-02  0.1440645E+00
          2   -1    0    0  502    0  0.00000000000E+00  0.00000000000E+00  0.25842365006E+04  0.25842365006E+04  0.00000000000E+00 0. -1.
          1   -1    0    0  501    0 -0.00000000000E+00 -0.00000000000E+00 -0.25581700644E+03  0.25581700644E+03  0.00000000000E+00 0. -1.
         25    2    1    2    0    0  0.80333627570E+02  0.61956957060E+02  0.97001622504E+02  0.18795266713E+03  0.12499893627E+03 0.  0.
          2    1    1    2  501    0 -0.51356627029E+02 -0.31234537447E+02 -0.20586049094E+03  0.21445661845E+03  0.00000000000E+00 0. -1.
          1    1    1    2  502    0 -0.28977000541E+02 -0.30722419613E+02  0.24372783626E+04  0.24376442215E+04  0.00000000000E+00 0. -1.
         22    1    3    3    0    0  0.13548343841E+02  0.37835643845E+02 -0.24612543744E+02  0.47126116703E+02  0.00000000000E+00 0. -1.
         22    1    3    3    0    0  0.66785283729E+02  0.24121313215E+02  0.12161416625E+03  0.14082655043E+03  0.00000000000E+00 0. -1.
</event>
<event>
 7    1  0.6358809E-006  0.5256910E+02  0.7818608E-02  0.1507788E+00
          2   -1    0    0  502    0  0.00000000000E+00  0.00000000000E+00  0.14631607673E+03  0.14631607673E+03  0.00000000000E+00 0. -1.
          1   -1    0    0  501    0 -0.00000000000E+00 -0.00000000000E+00 -0.18070021569E+04  0.18070021569E+04  0.00000000000E+00 0. -1.
         25    2    1    2    0    0 -0.22288256518E+02 -0.49424327606E+01 -0.49143034243E+03  0.50759331520E+03  0.12500399255E+03 0.  0.
          2    1    1    2  501    0 -0.30480641762E+02  0.16218022974E+01 -0.13022490719E+04  0.13026067500E+04  0.00000000000E+00 0. -1.
          1    1    1    2  502    0  0.52768898280E+02  0.33206304633E+01  0.13299333417E+03  0.14311816847E+03  0.00000000000E+00 0. -1.
         22    1    3    3    0    0 -0.52586159190E+02  0.73743824701E+01 -0.87577294080E+02  0.10241810432E+03  0.00000000000E+00 0.  1.
         22    1    3    3    0    0  0.30297902673E+02 -0.12316815231E+02 -0.40385304835E+03  0.40517521088E+03  0.00000000000E+00 0.  1.
</event>
<event>
 7    1  0.6358809E-006  0.8593133E+02  0.7818608E-02  0.1380009E+00
          2   -1    0    0  502    0  0.00000000000E+00  0.00000000000E+00  0.21266072066E+04  0.21266072066E+04  0.00000000000E+00 0. -1.
          1   -1    0    0  501    0 -0.00000000000E+00 -0.00000000000E+00 -0.29252691022E+03  0.29252691022E+03  0.00000000000E+00 0. -1.
         25    2    1    2    0    0  0.10524034089E+03  0.54401082661E+02  0.34822114363E+03  0.38848191520E+03  0.12500090569E+03 0.  0.
          2    1    1    2  501    0 -0.21342196870E+02 -0.43391141930E+02 -0.26922311739E+03  0.27353129163E+03  0.00000000000E+00 0. -1.
          1    1    1    2  502    0 -0.83898144016E+02 -0.11009940730E+02  0.17550822701E+04  0.17571209100E+04  0.00000000000E+00 0. -1.
         22    1    3    3    0    0 -0.68298237354E+01 -0.23848757036E+02  0.11936045657E+03  0.12191114919E+03  0.00000000000E+00 0. -1.
         22    1    3    3    0    0  0.11207016462E+03  0.78249839697E+02  0.22886068706E+03  0.26657076601E+03  0.00000000000E+00 0. -1.
</event>
<event>
 7    1  0.6358809E-006  0.8035531E+02  0.7818608E-02  0.1388635E+00
          2   -1    0    0  502    0  0.00000000000E+00  0.00000000000E+00  0.83642127257E+02  0.83642127257E+02  0.00000000000E+00 0. -1.
          1   -1    0    0  501    0 -0.00000000000E+00 -0.00000000000E+00 -0.12373342892E+04  0.12373342892E+04  0.00000000000E+00 0. -1.
         25    2    1    2    0    0 -0.16892301390E+02  0.34500054714E+02 -0.24698397433E+03  0.27947038762E+03  0.12500804119E+03 0.  0.
          2    1    1    2  501    0 -0.37067568482E+02  0.30841132165E+02 -0.94661196905E+03  0.94783933238E+03  0.00000000000E+00 0. -1.
          1    1    1    2  502    0  0.53959869873E+02 -0.65341186879E+02  0.39903781404E+02  0.93666696482E+02  0.00000000000E+00 0. -1.
         22    1    3    3    0    0 -0.10453294124E+01 -0.11612418896E+02 -0.22614350133E+03  0.22644386541E+03  0.00000000000E+00 0. -1.
         22    1    3    3    0    0 -0.15846971978E+02  0.46112473610E+02 -0.20840472994E+02  0.53026522212E+02  0.00000000000E+00 0. -1.
</event>
<event>
 7    1  0.6358809E-006  0.1093455E+03  0.7818608E-02  0.1387876E+00
          2   -1    0    0  502    0  0.00000000000E+00  0.00000000000E+00  0.16430321549E+04  0.16430321549E+04  0.00000000000E+00 0. -1.
          1   -1    0    0  501    0 -0.00000000000E+00 -0.00000000000E+00 -0.11033861995E+04  0.11033861995E+04  0.00000000000E+00 0. -1.
         25    2    1    2    0    0 -0.81847857907E+02  0.22579101785E+02  0.32982950539E+03  0.36279509584E+03  0.12499556495E+03 0.  0.
          2    1    1    2  501    0 -0.31310391573E+02 -0.17053219176E+02 -0.10841352226E+04  0.10847213162E+04  0.00000000000E+00 0. -1.
          1    1    1    2  502    0  0.11315824948E+03 -0.55258826086E+01  0.12939516726E+04  0.12989019423E+04  0.00000000000E+00 0. -1.
         22    1    3    3    0    0 -0.35564141277E+02  0.13918379575E+02  0.30892427292E+03  0.31127598018E+03  0.00000000000E+00 0.  1.
         22    1    3    3    0    0 -0.46283716630E+02  0.86607222094E+01  0.20905232471E+02  0.51519115665E+02  0.00000000000E+00 0.  1.
</event>
<event>
 7    1  0.6358809E-006  0.1033017E+03  0.7818608E-02  0.1294490E+00
          2   -1    0    0  502    0  0.00000000000E+00  0.00000000000E+00  0.15683581037E+03  0.15683581037E+03  0.00000000000E+00 0. -1.
          1   -1    0    0  501    0 -0.00000000000E+00 -0.00000000000E+00 -0.80494787771E+03  0.80494787771E+03  0.00000000000E+00 0. -1.
         25    2    1    2    0    0 -0.84812754302E+02  0.93795521106E+02  0.26936112757E+02  0.17983661836E+03  0.12499940825E+03 0.  0.
          2    1    1    2  501    0  0.84461806710E+02  0.64477517516E+01 -0.67641055388E+03  0.68169392523E+03  0.00000000000E+00 0. -1.
          1    1    1    2  502    0  0.35094759124E+00 -0.10024327286E+03  0.13623737845E+01  0.10025314449E+03  0.00000000000E+00 0. -1.
         22    1    3    3    0    0 -0.77284952571E+02  0.34818689804E+02  0.67080355798E+02  0.10809754478E+03  0.00000000000E+00 0.  1.
         22    1    3    3    0    0 -0.75278017304E+01  0.58976831303E+02 -0.40144243041E+02  0.71739073584E+02  0.00000000000E+00 0.  1.
</event>
<event>
 7    1  0.6358809E-006  0.7674096E+02  0.7818608E-02  0.1436465E+00
          2   -1    0    0  502    0  0.00000000000E+00  0.00000000000E+00  0.20576852321E+04  0.20576852321E+04  0.00000000000E+00 0. -1.
          1   -1    0    0  501    0 -0.00000000000E+00 -0.00000000000E+00 -0.71848273466E+03  0.71848273466E+03  0.00000000000E+00 0. -1.
         25    2    1    2    0    0 -0.42331277098E+02  0.60868323511E+02 -0.30889176176E+03  0.34137572208E+03  0.12500549315E+03 0.  0.
          2    1    1    2  501    0  0.68907935636E+02 -0.38389211511E+02 -0.38924430454E+03  0.39715634676E+03  0.00000000000E+00 0. -1.
          1    1    1    2  502    0 -0.26576658538E+02 -0.22479112000E+02  0.20373385638E+04  0.20376358979E+04  0.00000000000E+00 0. -1.
         22    1    3    3    0    0 -0.44508744053E+02  0.95817586101E+02 -0.18957861197E+03  0.21703015509E+03  0.00000000000E+00 0. -1.
         22    1    3    3    0    0  0.21774669552E+01 -0.34949262590E+02 -0.11931314979E+03  0.12434556699E+03  0.00000000000E+00 0. -1.
</event>
<event>
 7    1  0.6358809E-006  0.9534936E+02  0.7818608E-02  0.1294233E+00
          2   -1    0    0  502    0  0.00000000000E+00  0.00000000000E+00  0.30474488405E+03  0.30474488405E+03  0.00000000000E+00 0. -1.
          1   -1    0    0  501    0 -0.00000000000E+00 -0.00000000000E+00 -0.16681135887E+04  0.16681135887E+04  0.00000000000E+00 0. -1.
         25    2    1    2    0    0  0.39767429444E+02  0.30104702392E+01 -0.13059520541E+03  0.18512227528E+03  0.12499855101E+03 0.  0.
          2    1    1    2  501    0  0.60192254165E+01 -0.91795000632E+02 -0.14998088775E+04  0.15026274396E+04  0.00000000000E+00 0. -1.
          1    1    1    2  502    0 -0.45786654860E+02  0.88784530392E+02  0.26703537824E+03  0.28510875790E+03  0.00000000000E+00 0. -1.
         22    1    3    3    0    0  0.45378936781E+02  0.59217639358E+02 -0.70478750172E+02  0.10263152995E+03  0.00000000000E+00 0. -1.
         22    1    3    3    0    0 -0.56115073373E+01 -0.56207169119E+02 -0.60116455237E+02  0.82490745331E+02  0.00000000000E+00 0. -1.
</event>
<event>
 7    1  0.6358809E-006  0.9251617E+02  0.7818608E-02  0.1387105E+00
          2   -1    0    0  502    0  0.00000000000E+00  0.00000000000E+00  0.24437151267E+04  0.24437151267E+04  0.00000000000E+00 0. -1.
          1   -1    0    0  501    0 -0.00000000000E+00 -0.00000000000E+00 -0.86144174862E+02  0.86144174862E+02  0.00000000000E+00 0. -1.
         25    2    1    2    0    0 -0.27561858047E+02  0.54175504602E+02  0.64334417253E+03  0.65818781304E+03  0.12499932632E+03 0.  0.
          2    1    1    2  501    0  0.11354061384E+02 -0.93357315903E+02 -0.50288844151E+02  0.10664647668E+03  0.00000000000E+00 0. -1.
          1    1    1    2  502    0  0.16207796663E+02  0.39181811301E+02  0.17645156235E+04  0.17650250118E+04  0.00000000000E+00 0. -1.
         22    1    3    3    0    0 -0.33381404479E+02 -0.13328749704E+01  0.39343773625E+02  0.51614215520E+02  0.00000000000E+00 0. -1.
         22    1    3    3    0    0  0.58195464326E+01  0.55508379572E+02  0.60400039891E+03  0.60657359752E+03  0.00000000000E+00 0. -1.
</event>
<event>
 7    1  0.6358809E-006  0.1723750E+03  0.7818608E-02  0.1292927E+00
          2   -1    0    0  502    0  0.00000000000E+00  0.00000000000E+00  0.64367888339E+03  0.64367888339E+03  0.00000000000E+00 0. -1.
          1   -1    0    0  501    0 -0.00000000000E+00 -0.00000000000E+00 -0.98531521467E+03  0.98531521467E+03  0.00000000000E+00 0. -1.
         25    2    1    2    0    0 -0.14994516982E+03 -0.77327361075E+02 -0.16058251066E+03  0.26433902609E+03  0.12500121303E+03 0.  0.
          2    1    1    2  501    0  0.26660219199E+02 -0.44071703587E+02 -0.75931673033E+03  0.76106174474E+03  0.00000000000E+00 0. -1.
          1    1    1    2  502    0  0.12328495062E+03  0.12139906466E+03  0.57826290970E+03  0.60359332724E+03  0.00000000000E+00 0. -1.
         22    1    3    3    0    0  0.18955653789E+02 -0.20439461259E+02 -0.62229550169E+01  0.28562450110E+02  0.00000000000E+00 0.  1.
         22    1    3    3    0    0 -0.16890082361E+03 -0.56887899816E+02 -0.15435955564E+03  0.23577657598E+03  0.00000000000E+00 0.  1.
</event>
<event>
 7    1  0.6358809E-006  0.6452647E+02  0.7818608E-02  0.1426663E+00
          2   -1    0    0  502    0  0.00000000000E+00  0.00000000000E+00  0.87828224044E+02  0.87828224044E+02  0.00000000000E+00 0. -1.
          1   -1    0    0  501    0 -0.00000000000E+00 -0.00000000000E+00 -0.11326096309E+04  0.11326096309E+04  0.00000000000E+00 0. -1.
         25    2    1    2    0    0  0.61640136929E+02 -0.48070343641E+02 -0.51509275882E+02  0.15616868646E+03  0.12500075484E+03 0.  0.
          2    1    1    2  501    0 -0.42727379248E+02 -0.12728934152E+02 -0.99931600438E+03  0.10003100176E+04  0.00000000000E+00 0. -1.
          1    1    1    2  502    0 -0.18912757681E+02  0.60799277793E+02  0.60438733570E+01  0.63959150935E+02  0.00000000000E+00 0. -1.
         22    1    3    3    0    0 -0.21412595614E+02  0.65849569274E+01 -0.52134198718E+02  0.56743595098E+02  0.00000000000E+00 0. -1.
         22    1    3    3    0    0  0.83052732543E+02 -0.54655300568E+02  0.62492283628E+00  0.99425091358E+02  0.00000000000E+00 0. -1.
</event>
<event>
 7    1  0.6358809E-006  0.2319320E+03  0.7818608E-02  0.1264825E+00
          2   -1    0    0  502    0  0.00000000000E+00  0.00000000000E+00  0.12540559114E+04  0.12540559114E+04  0.00000000000E+00 0. -1.
          1   -1    0    0  501    0 -0.00000000000E+00 -0.00000000000E+00 -0.16409207736E+04  0.16409207736E+04  0.00000000000E+00 0. -1.
         25    2    1    2    0    0 -0.77433643718E+02  0.22356238599E+03  0.30062601109E+03  0.40246440148E+03  0.12500194522E+03 0.  0.
          2    1    1    2  501    0  0.12054906512E+03 -0.19815823370E+03 -0.15808386618E+04  0.15977639492E+04  0.00000000000E+00 0. -1.
          1    1    1    2  502    0 -0.43115421406E+02 -0.25404152290E+02  0.89334778854E+03  0.89474833434E+03  0.00000000000E+00 0. -1.
         22    1    3    3    0    0 -0.85734646680E+02  0.23341743675E+03  0.25967795852E+03  0.35953688484E+03  0.00000000000E+00 0. -1.
         22    1    3    3    0    0  0.83010029622E+01 -0.98550507598E+01  0.40948052571E+02  0.42927516641E+02  0.00000000000E+00 0. -1.
</event>
<event>
 7    1  0.6358809E-006  0.3656232E+03  0.7818608E-02  0.1313124E+00
          2   -1    0    0  502    0  0.00000000000E+00  0.00000000000E+00  0.31080550737E+03  0.31080550737E+03  0.00000000000E+00 0. -1.
          1   -1    0    0  501    0 -0.00000000000E+00 -0.00000000000E+00 -0.58847234033E+03  0.58847234033E+03  0.00000000000E+00 0. -1.
         25    2    1    2    0    0  0.20421358432E+03  0.30463055626E+03 -0.32289643927E+03  0.50436815561E+03  0.12498864776E+03 0.  0.
          2    1    1    2  501    0 -0.17764634215E+02  0.95657293765E+01 -0.14312198102E+02  0.24737106173E+02  0.00000000000E+00 0. -1.
          1    1    1    2  502    0 -0.18644895010E+03 -0.31419628563E+03  0.59541804412E+02  0.37017258593E+03  0.00000000000E+00 0. -1.
         22    1    3    3    0    0  0.12017682432E+03  0.23432660250E+03 -0.28594995801E+03  0.38874002139E+03  0.00000000000E+00 0. -1.
         22    1    3    3    0    0  0.84036759996E+02  0.70303953760E+02 -0.36946481256E+02  0.11562813422E+03  0.00000000000E+00 0. -1.
</event>
<event>
 7    1  0.6358809E-006  0.6344960E+02  0.7818608E-02  0.1390394E+00
          2   -1    0    0  502    0  0.00000000000E+00  0.00000000000E+00  0.55614057887E+03  0.55614057887E+03  0.00000000000E+00 0. -1.
          1   -1    0    0  501    0 -0.00000000000E+00 -0.00000000000E+00 -0.37980718944E+03  0.37980718944E+03  0.00000000000E+00 0. -1.
         25    2    1    2    0    0 -0.64291029316E+02  0.30994374097E+02 -0.10359771684E+03  0.17734661422E+03  0.12500138784E+03 0.  0.
          2    1    1    2  501    0  0.51369787025E+02  0.31407922995E+02 -0.23354709205E+03  0.24118365793E+03  0.00000000000E+00 0. -1.
          1    1    1    2  502    0  0.12921242291E+02 -0.62402297092E+02  0.51347819832E+03  0.51741749616E+03  0.00000000000E+00 0. -1.
         22    1    3    3    0    0 -0.97474824572E+02  0.21781285927E+02 -0.10216820935E+03  0.14287795087E+03  0.00000000000E+00 0.  1.
         22    1    3    3    0    0  0.33183795256E+02  0.92130881702E+01 -0.14295074870E+01  0.34468663346E+02  0.00000000000E+00 0.  1.
</event>
<event>
 7    1  0.6358809E-006  0.1057697E+03  0.7818608E-02  0.1327627E+00
          2   -1    0    0  502    0  0.00000000000E+00  0.00000000000E+00  0.14819335850E+04  0.14819335850E+04  0.00000000000E+00 0. -1.
          1   -1    0    0  501    0 -0.00000000000E+00 -0.00000000000E+00 -0.40813449859E+03  0.40813449859E+03  0.00000000000E+00 0. -1.
         25    2    1    2    0    0 -0.12920139377E+03 -0.25957068609E+02  0.78943727726E+02  0.19805256423E+03  0.12500374590E+03 0.  0.
          2    1    1    2  501    0  0.10111577294E+03 -0.28500845593E+02 -0.33994580248E+03  0.35580872159E+03  0.00000000000E+00 0. -1.
          1    1    1    2  502    0  0.28085620827E+02  0.54457914202E+02  0.13348011612E+04  0.13362067978E+04  0.00000000000E+00 0. -1.
         22    1    3    3    0    0 -0.94978414897E+02 -0.13543550000E+02  0.11297743312E+03  0.14821682575E+03  0.00000000000E+00 0. -1.
         22    1    3    3    0    0 -0.34222978876E+02 -0.12413518610E+02 -0.34033705390E+02  0.49835738481E+02  0.00000000000E+00 0. -1.
</event>
<event>
 7    1  0.6358809E-006  0.2729556E+03  0.7818608E-02  0.1208170E+00
          2   -1    0    0  502    0  0.00000000000E+00  0.00000000000E+00  0.24884203249E+04  0.24884203249E+04  0.00000000000E+00 0. -1.
          1   -1    0    0  501    0 -0.00000000000E+00 -0.00000000000E+00 -0.49818639429E+03  0.49818639429E+03  0.00000000000E+00 0. -1.
         25    2    1    2    0    0  0.27152710246E+03 -0.50394193915E+01  0.35285119426E+03  0.46247396447E+03  0.12500335757E+03 0.  0.
          2    1    1    2  501    0 -0.26485946295E+03 -0.70534352009E+02 -0.40024140803E+03  0.48509670647E+03  0.00000000000E+00 0. -1.
          1    1    1    2  502    0 -0.66676395059E+01  0.75573771400E+02  0.20376241444E+04  0.20390360482E+04  0.00000000000E+00 0. -1.
         22    1    3    3    0    0  0.87206129773E+02  0.47278485164E+02  0.17442001556E+03  0.20065519196E+03  0.00000000000E+00 0.  1.
         22    1    3    3    0    0  0.18432097269E+03 -0.52317904556E+02  0.17843117869E+03  0.26181877251E+03  0.00000000000E+00 0.  1.
</event>
<event>
 7    1  0.6358809E-006  0.1252061E+03  0.7818608E-02  0.1436338E+00
          2   -1    0    0  502    0  0.00000000000E+00  0.00000000000E+00  0.33514309436E+04  0.33514309436E+04  0.00000000000E+00 0. -1.
          1   -1    0    0  501    0 -0.00000000000E+00 -0.00000000000E+00 -0.10276548911E+04  0.10276548911E+04  0.00000000000E+00 0. -1.
         25    2    1    2    0    0  0.88158679200E+02  0.98562183678E+02  0.32987686263E+02  0.18493111274E+03  0.12499948897E+03 0.  0.
          2    1    1    2  501    0 -0.20319285003E+02  0.65699562191E+01 -0.95035616042E+03  0.95059606001E+03  0.00000000000E+00 0. -1.
          1    1    1    2  502    0 -0.67839394197E+02 -0.10513213990E+03  0.32411445267E+04  0.32435586619E+04  0.00000000000E+00 0. -1.
         22    1    3    3    0    0  0.18532726153E+02  0.71319540508E+02  0.69884327294E+02  0.10155667382E+03  0.00000000000E+00 0.  1.
         22    1    3    3    0    0  0.69625953047E+02  0.27242643170E+02 -0.36896641031E+02  0.83374438912E+02  0.00000000000E+00 0.  1.
</event>
<event>
 7    1  0.6358809E-006  0.2076287E+03  0.7818608E-02  0.1285481E+00
          2   -1    0    0  502    0  0.00000000000E+00  0.00000000000E+00  0.10603798847E+04  0.10603798847E+04  0.00000000000E+00 0. -1.
          1   -1    0    0  501    0 -0.00000000000E+00 -0.00000000000E+00 -0.11215791858E+04  0.11215791858E+04  0.00000000000E+00 0. -1.
         25    2    1    2    0    0 -0.23739331800E+03 -0.89897841326E+01  0.94300374581E+02  0.28452408022E+03  0.12499995173E+03 0.  0.
          2    1    1    2  501    0  0.34385513118E+02  0.30336158683E+02 -0.10139818517E+04  0.10150181484E+04  0.00000000000E+00 0. -1.
          1    1    1    2  502    0  0.20300780488E+03 -0.21346374550E+02  0.85848217592E+03  0.88241684193E+03  0.00000000000E+00 0. -1.
         22    1    3    3    0    0 -0.70617951589E+02 -0.54582456894E+02  0.37022517195E+01  0.89329985755E+02  0.00000000000E+00 0. -1.
         22    1    3    3    0    0 -0.16677536641E+03  0.45592672761E+02  0.90598122861E+02  0.19519409447E+03  0.00000000000E+00 0. -1.
</event>
<event>
 7    1  0.6358809E-006  0.7767721E+02  0.7818608E-02  0.1405757E+00
          2   -1    0    0  502    0  0.00000000000E+00  0.00000000000E+00  0.18217021869E+04  0.18217021869E+04  0.00000000000E+00 0. -1.
          1   -1    0    0  501    0 -0.00000000000E+00 -0.00000000000E+00 -0.38393969110E+03  0.38393969110E+03  0.00000000000E+00 0. -1.
         25    2    1    2    0    0  0.30618764533E+02  0.16450997885E+02  0.29258683026E+03  0.32006312591E+03  0.12500082900E+03 0.  0.
          2    1    1    2  501    0 -0.67664318468E+02 -0.39316183453E+02 -0.36574878649E+03  0.37402726785E+03  0.00000000000E+00 0. -1.
          1    1    1    2  502    0  0.37045553935E+02  0.22865185568E+02  0.15109244521E+04  0.15115514843E+04  0.00000000000E+00 0. -1.
         22    1    3    3    0    0  0.77585703993E+02 -0.57366788824E+01  0.17627859906E+03  0.19268262878E+03  0.00000000000E+00 0.  1.
         22    1    3    3    0    0 -0.46966939461E+02  0.22187676767E+02  0.11630823120E+03  0.12738049713E+03  0.00000000000E+00 0.  1.
</event>
<event>
 7    1  0.6358809E-006  0.1607387E+03  0.7818608E-02  0.1207558E+00
          2   -1    0    0  502    0  0.00000000000E+00  0.00000000000E+00  0.87258118086E+03  0.87258118086E+03  0.00000000000E+00 0. -1.
          1   -1    0    0  501    0 -0.00000000000E+00 -0.00000000000E+00 -0.26078408086E+04  0.26078408086E+04  0.00000000000E+00 0. -1.
         25    2    1    2    0    0 -0.23458730193E+02 -0.11898852608E+03 -0.23588856124E+02  0.17575615996E+03  0.12500084908E+03 0.  0.
          2    1    1    2  501    0  0.14547775897E+03  0.75075094558E+02 -0.25001951389E+04  0.25055489979E+04  0.00000000000E+00 0. -1.
          1    1    1    2  502    0 -0.12201902878E+03  0.43913431521E+02  0.78852436726E+03  0.79911683164E+03  0.00000000000E+00 0. -1.
         22    1    3    3    0    0 -0.26492707435E+02  0.20339843948E+02 -0.13515675312E+02  0.36031184801E+02  0.00000000000E+00 0.  1.
         22    1    3    3    0    0  0.30339772418E+01 -0.13932837003E+03 -0.10073180812E+02  0.13972497516E+03  0.00000000000E+00 0.  1.
</event>
<event>
 7    1  0.6358809E-006  0.5765796E+02  0.7818608E-02  0.1496733E+00
          2   -1    0    0  502    0  0.00000000000E+00  0.00000000000E+00  0.79336494908E+03  0.79336494908E+03  0.00000000000E+00 0. -1.
          1   -1    0    0  501    0 -0.00000000000E+00 -0.00000000000E+00 -0.19732191108E+02  0.19732191108E+02  0.00000000000E+00 0. -1.
         25    2    1    2    0    0 -0.79151435030E+02  0.19069706479E+02  0.46687605352E+03  0.49012923312E+03  0.12499924976E+03 0.  0.
          2    1    1    2  501    0  0.49135709686E+02 -0.19524418989E+02  0.91899660194E+02  0.10602390507E+03  0.00000000000E+00 0. -1.
          1    1    1    2  502    0  0.30015725344E+02  0.45471250985E+00  0.21485704426E+03  0.21694400199E+03  0.00000000000E+00 0. -1.
         22    1    3    3    0    0 -0.78085311033E+02 -0.25145921162E+02  0.40975853868E+03  0.41788957054E+03  0.00000000000E+00 0.  1.
         22    1    3    3    0    0 -0.10661239964E+01  0.44215627641E+02  0.57117514840E+02  0.72239662579E+02  0.00000000000E+00 0.  1.
</event>
<event>
 7    1  0.6358809E-006  0.5670294E+02  0.7818608E-02  0.1448026E+00
          2   -1    0    0  502    0  0.00000000000E+00  0.00000000000E+00  0.12971912654E+04  0.12971912654E+04  0.00000000000E+00 0. -1.
          1   -1    0    0  501    0 -0.00000000000E+00 -0.00000000000E+00 -0.46503042257E+02  0.46503042257E+02  0.00000000000E+00 0. -1.
         25    2    1    2    0    0  0.44074604106E+02  0.16828247349E+02  0.27001033980E+03  0.30125807737E+03  0.12500033977E+03 0.  0.
          2    1    1    2  501    0 -0.22799802025E+02 -0.54451565504E+02 -0.17498757535E+01  0.59058157975E+02  0.00000000000E+00 0. -1.
          1    1    1    2  502    0 -0.21274802081E+02  0.37623318155E+02  0.98242775910E+03  0.98337807232E+03  0.00000000000E+00 0. -1.
         22    1    3    3    0    0  0.23715459808E+02 -0.21157739414E+02  0.25289797536E+03  0.25488714936E+03  0.00000000000E+00 0. -1.
         22    1    3    3    0    0  0.20359144298E+02  0.37985986763E+02  0.17112364444E+02  0.46370928002E+02  0.00000000000E+00 0. -1.
</event>
<event>
 7    1  0.6358809E-006  0.5181148E+02  0.7818608E-02  0.1485643E+00
          2   -1    0    0  502    0  0.00000000000E+00  0.00000000000E+00  0.17146609466E+04  0.17146609466E+04  0.00000000000E+00 0. -1.
          1   -1    0    0  501    0 -0.00000000000E+00 -0.00000000000E+00 -0.34526625504E+04  0.34526625504E+04  0.00000000000E+00 0. -1.
         25    2    1    2    0    0 -0.93677176098E+00 -0.37455803812E+02 -0.99063906313E+02  0.16383538385E+03  0.12499824273E+03 0.  0.
          2    1    1    2  501    0  0.37008839255E+02  0.36482016839E+02 -0.33208160774E+04  0.33212226682E+04  0.00000000000E+00 0. -1.
          1    1    1    2  502    0 -0.36072067494E+02  0.97378697299E+00  0.16818783799E+04  0.16822654449E+04  0.00000000000E+00 0. -1.
         22    1    3    3    0    0  0.41668555205E+02  0.25225738353E+02 -0.15718896186E+02  0.51182907945E+02  0.00000000000E+00 0. -1.
         22    1    3    3    0    0 -0.42605326966E+02 -0.62681542165E+02 -0.83345010127E+02  0.11265247590E+03  0.00000000000E+00 0. -1.
</event>
<event>
 7    1  0.6358809E-006  0.2207493E+03  0.7818608E-02  0.1248970E+00
          2   -1    0    0  502    0  0.00000000000E+00  0.00000000000E+00  0.11940562892E+04  0.11940562892E+04  0.00000000000E+00 0. -1.
          1   -1    0    0  501    0 -0.00000000000E+00 -0.00000000000E+00 -0.58532224509E+03  0.58532224509E+03  0.00000000000E+00 0. -1.
         25    2    1    2    0    0 -0.84122107648E+02  0.14515487089E+03  0.38653715788E+02  0.21275627488E+03  0.12499862887E+03 0.  0.
          2    1    1    2  501    0 -0.18731575661E+02  0.58569376794E+02 -0.48411632341E+03  0.48800600244E+03  0.00000000000E+00 0. -1.
          1    1    1    2  502    0  0.10285368331E+03 -0.20372424768E+03  0.10541966517E+04  0.10786162570E+04  0.00000000000E+00 0. -1.
         22    1    3    3    0    0 -0.72668454835E+02  0.24498994221E+02 -0.18304158266E+02  0.78841278882E+02  0.00000000000E+00 0. -1.
         22    1    3    3    0    0 -0.11453652813E+02  0.12065587667E+03  0.56957874054E+02  0.13391499600E+03  0.00000000000E+00 0. -1.
</event>
<event>
 7    1  0.6358809E-006  0.7113606E+02  0.7818608E-02  0.1375958E+00
          2   -1    0    0  502    0  0.00000000000E+00  0.00000000000E+00  0.95434721350E+02  0.95434721350E+02  0.00000000000E+00 0. -1.
          1   -1    0    0  501    0 -0.00000000000E+00 -0.00000000000E+00 -0.38574334197E+04  0.38574334197E+04  0.00000000000E+00 0. -1.
         25    2    1    2    0    0 -0.54024647163E+01 -0.32641636601E+02 -0.12815861447E+04  0.12880927678E+04  0.12500107598E+03 0.  0.
          2    1    1    2  501    0  0.63641463612E+02  0.48582572876E+02 -0.25620132182E+04  0.25632639803E+04  0.00000000000E+00 0. -1.
          1    1    1    2  502    0 -0.58238998896E+02 -0.15940936275E+02  0.81600664601E+02  0.10151139298E+03  0.00000000000E+00 0. -1.
         22    1    3    3    0    0  0.50064174509E+01 -0.65092311724E+02 -0.11595837995E+04  0.11614201055E+04  0.00000000000E+00 0. -1.
         22    1    3    3    0    0 -0.10408882167E+02  0.32450675123E+02 -0.12200234522E+03  0.12667266234E+03  0.00000000000E+00 0. -1.
</event>
<event>
 7    1  0.6358809E-006  0.9198911E+02  0.7818608E-02  0.1377268E+00
          2   -1    0    0  502    0  0.00000000000E+00  0.00000000000E+00  0.41832489662E+03  0.41832489662E+03  0.00000000000E+00 0. -1.
          1   -1    0    0  501    0 -0.00000000000E+00 -0.00000000000E+00 -0.51888977585E+03  0.51888977585E+03  0.00000000000E+00 0. -1.
         25    2    1    2    0    0 -0.76255522795E+02 -0.43853904392E+02 -0.14688034931E+03  0.21198395945E+03  0.12500116946E+03 0.  0.
          2    1    1    2  501    0  0.94702450672E+02  0.15025855679E+01 -0.33141631187E+03  0.34468475989E+03  0.00000000000E+00 0. -1.
          1    1    1    2  502    0 -0.18446927876E+02  0.42351318824E+02  0.37773178194E+03  0.38054595313E+03  0.00000000000E+00 0. -1.
         22    1    3    3    0    0 -0.24032537512E+02 -0.83732221742E+02 -0.81640058481E+02  0.11938905714E+03  0.00000000000E+00 0. -1.
         22    1    3    3    0    0 -0.52222985283E+02  0.39878317350E+02 -0.65240290827E+02  0.92594902310E+02  0.00000000000E+00 0. -1.
</event>
<event>
 7    1  0.6358809E-006  0.7142979E+02  0.7818608E-02  0.1495782E+00
          2   -1    0    0  502    0  0.00000000000E+00  0.00000000000E+00  0.15008612192E+04  0.15008612192E+04  0.00000000000E+00 0. -1.
          1   -1    0    0  501    0 -0.00000000000E+00 -0.00000000000E+00 -0.44853134048E+02  0.44853134048E+02  0.00000000000E+00 0. -1.
         25    2    1    2    0    0  0.71553475261E+02  0.18922163207E+02  0.15271165510E+03  0.21077120329E+03  0.12500280976E+03 0.  0.
          2    1    1    2  501    0 -0.59302914652E+02 -0.40013572060E+02  0.65775840682E+02  0.97182214693E+02  0.00000000000E+00 0. -1.
          1    1    1    2  502    0 -0.12250560609E+02  0.21091408854E+02  0.12375205894E+04  0.12377609353E+04  0.00000000000E+00 0. -1.
         22    1    3    3    0    0  0.63597169360E+02  0.59184257445E+02  0.14496821113E+03  0.16900638603E+03  0.00000000000E+00 0.  1.
         22    1    3    3    0    0  0.79563059002E+01 -0.40262094239E+02  0.77434439698E+01  0.41764817258E+02  0.00000000000E+00 0.  1.
</event>
<event>
 7    1  0.6358809E-006  0.9785742E+02  0.7818608E-02  0.1377381E+00
          2   -1    0    0  502    0  0.00000000000E+00  0.00000000000E+00  0.40525993889E+03  0.40525993889E+03  0.00000000000E+00 0. -1.
          1   -1    0    0  501    0 -0.00000000000E+00 -0.00000000000E+00 -0.36996626182E+03  0.36996626182E+03  0.00000000000E+00 0. -1.
         25    2    1    2    0    0 -0.85779255477E+02 -0.99039501771E+02  0.23107704187E+02  0.18255418357E+03  0.12500064146E+03 0.  0.
          2    1    1    2  501    0  0.76997625894E+02  0.56553261389E+02 -0.28074041418E+03  0.29655030926E+03  0.00000000000E+00 0. -1.
          1    1    1    2  502    0  0.87816295834E+01  0.42486240382E+02  0.29292638706E+03  0.29612170788E+03  0.00000000000E+00 0. -1.
         22    1    3    3    0    0 -0.10843418824E+03 -0.40826784720E+02 -0.24583317548E+00  0.11586569796E+03  0.00000000000E+00 0. -1.
         22    1    3    3    0    0  0.22654932766E+02 -0.58212717051E+02  0.23353537363E+02  0.66688485606E+02  0.00000000000E+00 0. -1.
</event>
<event>
 7    1  0.6358809E-006  0.6586698E+02  0.7818608E-02  0.1407079E+00
          2   -1    0    0  502    0  0.00000000000E+00  0.00000000000E+00  0.16248899394E+04  0.16248899394E+04  0.00000000000E+00 0. -1.
          1   -1    0    0  501    0 -0.00000000000E+00 -0.00000000000E+00 -0.18183110290E+02  0.18183110290E+02  0.00000000000E+00 0. -1.
         25    2    1    2    0    0  0.45814290248E+02  0.33980117465E+02  0.66145856355E+03  0.67557900709E+03  0.12500386372E+03 0.  0.
          2    1    1    2  501    0 -0.94874789719E+01 -0.69505048613E+02  0.10848546809E+03  0.12919001829E+03  0.00000000000E+00 0. -1.
          1    1    1    2  502    0 -0.36326811276E+02  0.35524931148E+02  0.83676279744E+03  0.83830402429E+03  0.00000000000E+00 0. -1.
         22    1    3    3    0    0  0.71625542296E+02  0.16736135233E+02  0.61692505729E+03  0.62129448963E+03  0.00000000000E+00 0. -1.
         22    1    3    3    0    0 -0.25811252048E+02  0.17243982231E+02  0.44533506269E+02  0.54284517462E+02  0.00000000000E+00 0. -1.
</event>
<event>
 7    1  0.6358809E-006  0.5838046E+02  0.7818608E-02  0.1511471E+00
          2   -1    0    0  502    0  0.00000000000E+00  0.00000000000E+00  0.10397714991E+03  0.10397714991E+03  0.00000000000E+00 0. -1.
          1   -1    0    0  501    0 -0.00000000000E+00 -0.00000000000E+00 -0.23000034418E+04  0.23000034418E+04  0.00000000000E+00 0. -1.
         25    2    1    2    0    0  0.78727145589E+02  0.29362772670E+02 -0.12775151759E+04  0.12863628260E+04  0.12499663836E+03 0.  0.
          2    1    1    2  501    0 -0.26579076432E+02 -0.34915808004E+01 -0.10093613786E+04  0.10097173026E+04  0.00000000000E+00 0. -1.
          1    1    1    2  502    0 -0.52148069158E+02 -0.25871191870E+02  0.90850262732E+02  0.10790046304E+03  0.00000000000E+00 0. -1.
         22    1    3    3    0    0 -0.24683072149E+02  0.33125185905E+01 -0.72900628474E+02  0.77037188825E+02  0.00000000000E+00 0. -1.
         22    1    3    3    0    0  0.10341021774E+03  0.26050254080E+02 -0.12046145475E+04  0.12093256372E+04  0.00000000000E+00 0. -1.
</event>
<event>
 7    1  0.6358809E-006  0.7353481E+02  0.7818608E-02  0.1369723E+00
          2   -1    0    0  502    0  0.00000000000E+00  0.00000000000E+00  0.41888016250E+03  0.41888016250E+03  0.00000000000E+00 0. -1.
          1   -1    0    0  501    0 -0.00000000000E+00 -0.00000000000E+00 -0.43411547533E+03  0.43411547533E+03  0.00000000000E+00 0. -1.
         25    2    1    2    0    0 -0.61036568163E+01  0.14097671247E+02 -0.71264554485E+02  0.14470799422E+03  0.12500307158E+03 0.  0.
          2    1    1    2  501    0 -0.46699114716E+02  0.40005491406E+02 -0.31942901211E+03  0.32529392929E+03  0.00000000000E+00 0. -1.
          1    1    1    2  502    0  0.52802771532E+02 -0.54103162652E+02  0.37545825376E+03  0.38299371432E+03  0.00000000000E+00 0. -1.
         22    1    3    3    0    0  0.45305165116E+02 -0.32856529580E+02 -0.26391019318E+02  0.61875644828E+02  0.00000000000E+00 0. -1.
         22    1    3    3    0    0 -0.51408821932E+02  0.46954200826E+02 -0.44873535167E+02  0.82832349394E+02  0.00000000000E+00 0. -1.
</event>
<event>
 7    1  0.6358809E-006  0.1343240E+03  0.7818608E-02  0.1258141E+00
          2   -1    0    0  502    0  0.00000000000E+00  0.00000000000E+00  0.40367137880E+03  0.40367137880E+03  0.00000000000E+00 0. -1.
          1   -1    0    0  501    0 -0.00000000000E+00 -0.00000000000E+00 -0.89728396038E+03  0.89728396038E+03  0.00000000000E+00 0. -1.
         25    2    1    2    0    0  0.16342389319E+03 -0.63336518654E+02 -0.69713346030E+03  0.72961582307E+03  0.12500121736E+03 0.  0.
          2    1    1    2  501    0 -0.71728664443E+02  0.73516911639E+02 -0.16339826802E+03  0.19299930464E+03  0.00000000000E+00 0. -1.
          1    1    1    2  502    0 -0.91695228743E+02 -0.10180392984E+02  0.36691914674E+03  0.37834021148E+03  0.00000000000E+00 0. -1.
         22    1    3    3    0    0  0.10020717811E+03  0.24569133733E+02 -0.27200534559E+03  0.29091584506E+03  0.00000000000E+00 0. -1.
         22    1    3    3    0    0  0.63216715072E+02 -0.87905652388E+02 -0.42512811471E+03  0.43869997801E+03  0.00000000000E+00 0. -1.
</event>
<event>
 7    1  0.6358809E-006  0.4699364E+02  0.7818608E-02  0.1519736E+00
          2   -1    0    0  502    0  0.00000000000E+00  0.00000000000E+00  0.91811971666E+03  0.91811971666E+03  0.00000000000E+00 0. -1.
          1   -1    0    0  501    0 -0.00000000000E+00 -0.00000000000E+00 -0.15625862597E+03  0.15625862597E+03  0.00000000000E+00 0. -1.
         25    2    1    2    0    0  0.48610299139E+02  0.24171815862E+01 -0.36447876891E+02  0.13897921504E+03  0.12497187898E+03 0.  0.
          2    1    1    2  501    0 -0.36486268147E+02 -0.31492740825E+02 -0.59747488643E+02  0.76764593968E+02  0.00000000000E+00 0. -1.
          1    1    1    2  502    0 -0.12124030992E+02  0.29075559239E+02  0.85805645622E+03  0.85863453363E+03  0.00000000000E+00 0. -1.
         22    1    3    3    0    0 -0.88419407371E+01  0.40467851933E+02 -0.53818288574E+02  0.67913438590E+02  0.00000000000E+00 0.  1.
         22    1    3    3    0    0  0.57452239876E+02 -0.38050670347E+02  0.17370411683E+02  0.71065776452E+02  0.00000000000E+00 0.  1.
</event>
<event>
 7    1  0.6358809E-006  0.5419220E+02  0.7818608E-02  0.1477304E+00
          2   -1    0    0  502    0  0.00000000000E+00  0.00000000000E+00  0.99159018474E+03  0.99159018474E+03  0.00000000000E+00 0. -1.
          1   -1    0    0  501    0 -0.00000000000E+00 -0.00000000000E+00 -0.50457810807E+03  0.50457810807E+03  0.00000000000E+00 0. -1.
         25    2    1    2    0    0 -0.44644340197E+02 -0.12699180712E+02 -0.35329984564E+03  0.37762431622E+03  0.12499982787E+03 0.  0.
          2    1    1    2  501    0 -0.41584409194E+01  0.36351780751E+02 -0.13594454352E+03  0.14078232669E+03  0.00000000000E+00 0. -1.
          1    1    1    2  502    0  0.48802781117E+02 -0.23652600039E+02  0.97625646584E+03  0.97776164990E+03  0.00000000000E+00 0. -1.
         22    1    3    3    0    0  0.21338269178E+02 -0.30546828449E+02 -0.31946215813E+02  0.49081474760E+02  0.00000000000E+00 0. -1.
         22    1    3    3    0    0 -0.65982609375E+02  0.17847647738E+02 -0.32135362983E+03  0.32854284146E+03  0.00000000000E+00 0. -1.
</event>
<event>
 7    1  0.6358809E-006  0.4269461E+02  0.7818608E-02  0.1513440E+00
          2   -1    0    0  502    0  0.00000000000E+00  0.00000000000E+00  0.28165693320E+02  0.28165693320E+02  0.00000000000E+00 0. -1.
          1   -1    0    0  501    0 -0.00000000000E+00 -0.00000000000E+00 -0.18054847468E+04  0.18054847468E+04  0.00000000000E+00 0. -1.
         25    2    1    2    0    0  0.13732013502E+01 -0.67505428963E+02 -0.63322849196E+03  0.64897032332E+03  0.12500115557E+03 0.  0.
          2    1    1    2  501    0  0.19094966258E+02  0.30721311377E+02 -0.11419580625E+04  0.11425308019E+04  0.00000000000E+00 0. -1.
          1    1    1    2  502    0 -0.20468167608E+02  0.36784117585E+02 -0.21324989494E+01  0.42149314864E+02  0.00000000000E+00 0. -1.
         22    1    3    3    0    0 -0.36913311045E+02 -0.21311364517E+02 -0.65931425141E+02  0.78509360022E+02  0.00000000000E+00 0.  1.
         22    1    3    3    0    0  0.38286512395E+02 -0.46194064446E+02 -0.56729706682E+03  0.57046096329E+03  0.00000000000E+00 0.  1.
</event>
<event>
 7    1  0.6358809E-006  0.1194587E+03  0.7818608E-02  0.1287554E+00
          2   -1    0    0  502    0  0.00000000000E+00  0.00000000000E+00  0.58565423020E+03  0.58565423020E+03  0.00000000000E+00 0. -1.
          1   -1    0    0  501    0 -0.00000000000E+00 -0.00000000000E+00 -0.16998568743E+04  0.16998568743E+04  0.00000000000E+00 0. -1.
         25    2    1    2    0    0  0.18817121604E+03  0.25409670442E+02 -0.28822121014E+03  0.36708297710E+03  0.12499755279E+03 0.  0.
          2    1    1    2  501    0 -0.11039480784E+03 -0.33128292630E+02 -0.13669711630E+04  0.13718216567E+04  0.00000000000E+00 0. -1.
          1    1    1    2  502    0 -0.77776408204E+02  0.77186221884E+01  0.54098972907E+03  0.54660647065E+03  0.00000000000E+00 0. -1.
         22    1    3    3    0    0  0.32670292503E+02  0.78210641313E+01 -0.16365249204E+03  0.16706482337E+03  0.00000000000E+00 0.  1.
         22    1    3    3    0    0  0.15550092354E+03  0.17588606311E+02 -0.12456871810E+03  0.20001815373E+03  0.00000000000E+00 0.  1.
</event>
<event>
 7    1  0.6358809E-006  0.1323944E+03  0.7818608E-02  0.1358896E+00
          2   -1    0    0  502    0  0.00000000000E+00  0.00000000000E+00  0.38389684469E+04  0.38389684469E+04  0.00000000000E+00 0. -1.
          1   -1    0    0  501    0 -0.00000000000E+00 -0.00000000000E+00 -0.11877484477E+03  0.11877484477E+03  0.00000000000E+00 0. -1.
         25    2    1    2    0    0  0.11394630978E+03 -0.75739200572E+02  0.91857701533E+02  0.20684062135E+03  0.12500006917E+03 0.  0.
          2    1    1    2  501    0  0.12153029080E+02  0.35354627168E+02 -0.54279130389E+02  0.65908040281E+02  0.00000000000E+00 0. -1.
          1    1    1    2  502    0 -0.12609933886E+03  0.40384573404E+02  0.36826150309E+04  0.36849946300E+04  0.00000000000E+00 0. -1.
         22    1    3    3    0    0  0.24132121444E+02 -0.35420259934E+02 -0.28407198969E+02  0.51419092295E+02  0.00000000000E+00 0.  1.
         22    1    3    3    0    0  0.89814188337E+02 -0.40318940637E+02  0.12026490050E+03  0.15542152905E+03  0.00000000000E+00 0.  1.
</event>
<event>
 7    1  0.6358809E-006  0.6900785E+02  0.7818608E-02  0.1364541E+00
          2   -1    0    0  502    0  0.00000000000E+00  0.00000000000E+00  0.95794620500E+03  0.95794620500E+03  0.00000000000E+00 0. -1.
          1   -1    0    0  501    0 -0.00000000000E+00 -0.00000000000E+00 -0.71724269343E+03  0.71724269343E+03  0.00000000000E+00 0. -1.
         25    2    1    2    0    0  0.64042280276E+02  0.22388263691E+02 -0.17635163419E+03  0.22655488521E+03  0.12499827645E+03 0.  0.
          2    1    1    2  501    0 -0.14194357496E+02 -0.70108992008E+02 -0.51202357088E+03  0.51699602288E+03  0.00000000000E+00 0. -1.
          1    1    1    2  502    0 -0.49847922780E+02  0.47720728316E+02  0.92907871664E+03  0.93163799033E+03  0.00000000000E+00 0. -1.
         22    1    3    3    0    0 -0.16774788809E+02  0.49912347486E+02 -0.95052734800E+02  0.10866304967E+03  0.00000000000E+00 0. -1.
         22    1    3    3    0    0  0.80817069085E+02 -0.27524083794E+02 -0.81298899393E+02  0.11789183554E+03  0.00000000000E+00 0. -1.
</event>
<event>
 7    1  0.6358809E-006  0.4973941E+03  0.7818608E-02  0.1229052E+00
          2   -1    0    0  502    0  0.00000000000E+00  0.00000000000E+00  0.12453923565E+04  0.12453923565E+04  0.00000000000E+00 0. -1.
          1   -1    0    0  501    0 -0.00000000000E+00 -0.00000000000E+00 -0.90570024890E+03  0.90570024890E+03  0.00000000000E+00 0. -1.
         25    2    1    2    0    0 -0.29933308162E+03 -0.37168485401E+03 -0.15934325827E+03  0.51842641072E+03  0.12500297964E+03 0.  0.
          2    1    1    2  501    0  0.32391323195E+03  0.39432837702E+03 -0.45160357878E+03  0.68143997763E+03  0.00000000000E+00 0. -1.
          1    1    1    2  502    0 -0.24580150323E+02 -0.22643523007E+02  0.95063894462E+03  0.95122621703E+03  0.00000000000E+00 0. -1.
         22    1    3    3    0    0 -0.43741099410E+02 -0.91731929547E+02  0.12168579056E+02  0.10235284555E+03  0.00000000000E+00 0. -1.
         22    1    3    3    0    0 -0.25559198221E+03 -0.27995292446E+03 -0.17151183733E+03  0.41607356517E+03  0.00000000000E+00 0. -1.
</event>
<event>
 7    1  0.6358809E-006  0.8569687E+02  0.7818608E-02  0.1327801E+00
          2   -1    0    0  502    0  0.00000000000E+00  0.00000000000E+00  0.96910492808E+03  0.96910492808E+03  0.00000000000E+00 0. -1.
          1   -1    0    0  501    0 -0.00000000000E+00 -0.00000000000E+00 -0.33204127381E+03  0.33204127381E+03  0.00000000000E+00 0. -1.
         25    2    1    2    0    0 -0.89301868489E+02 -0.15680031040E+02  0.40636131500E+02  0.15967823960E+03  0.12500063172E+03 0.  0.
          2    1    1    2  501    0  0.23274156665E+02  0.71833770671E+02 -0.26507285456E+03  0.27561820550E+03  0.00000000000E+00 0. -1.
          1    1    1    2  502    0  0.66027711824E+02 -0.56153739632E+02  0.86150037733E+03  0.86584975680E+03  0.00000000000E+00 0. -1.
         22    1    3    3    0    0  0.16172440147E+02 -0.33703946093E+02  0.37023415788E+02  0.52614039183E+02  0.00000000000E+00 0. -1.
         22    1    3    3    0    0 -0.10547430864E+03  0.18023915054E+02  0.36127157125E+01  0.10706420042E+03  0.00000000000E+00 0. -1.
</event>
<event>
 7    1  0.6358809E-006  0.1013352E+03  0.7818608E-02  0.1421496E+00
          2   -1    0    0  502    0  0.00000000000E+00  0.00000000000E+00  0.88353364660E+03  0.88353364660E+03  0.00000000000E+00 0. -1.
          1   -1    0    0  501    0 -0.00000000000E+00 -0.00000000000E+00 -0.34553387177E+03  0.34553387177E+03  0.00000000000E+00 0. -1.
         25    2    1    2    0    0  0.11182002998E+03  0.39466477005E+02  0.24241483888E+02  0.17399366231E+03  0.12499929229E+03 0.  0.
          2    1    1    2  501    0 -0.99125515857E+02 -0.12801269797E+02 -0.26113961854E+03  0.27961337731E+03  0.00000000000E+00 0. -1.
          1    1    1    2  502    0 -0.12694514118E+02 -0.26665207209E+02  0.77489790949E+03  0.77546047874E+03  0.00000000000E+00 0. -1.
         22    1    3    3    0    0  0.85278189591E+02  0.78011608834E+02 -0.99936161090E+01  0.11600884921E+03  0.00000000000E+00 0.  1.
         22    1    3    3    0    0  0.26541840384E+02 -0.38545131829E+02  0.34235099997E+02  0.57984813102E+02  0.00000000000E+00 0.  1.
</event>
<event>
 7    1  0.6358809E-006  0.1161225E+03  0.7818608E-02  0.1366897E+00
          2   -1    0    0  502    0  0.00000000000E+00  0.00000000000E+00  0.16323094853E+03  0.16323094853E+03  0.00000000000E+00 0. -1.
          1   -1    0    0  501    0 -0.00000000000E+00 -0.00000000000E+00 -0.17543418813E+04  0.17543418813E+04  0.00000000000E+00 0. -1.
         25    2    1    2    0    0  0.37565150966E+02 -0.14710957887E+03 -0.41044489426E+03  0.45513022531E+03  0.12500456793E+03 0.  0.
          2    1    1    2  501    0 -0.23401036171E+02  0.10984708368E+03 -0.13162944230E+04  0.13210772114E+04  0.00000000000E+00 0. -1.
          1    1    1    2  502    0 -0.14164114795E+02  0.37262495187E+02  0.13562838452E+03  0.14136539316E+03  0.00000000000E+00 0. -1.
         22    1    3    3    0    0  0.80261544294E+02 -0.68205504910E+02 -0.25048566257E+03  0.27172959637E+03  0.00000000000E+00 0. -1.
         22    1    3    3    0    0 -0.42696393327E+02 -0.78904073958E+02 -0.15995923169E+03  0.18340062894E+03  0.00000000000E+00 0. -1.
</event>
<event>
 7    1  0.6358809E-006  0.4136941E+03  0.7818608E-02  0.1267989E+00
          2   -1    0    0  502    0  0.00000000000E+00  0.00000000000E+00  0.22072483950E+03  0.22072483950E+03  0.00000000000E+00 0. -1.
          1   -1    0    0  501    0 -0.00000000000E+00 -0.00000000000E+00 -0.31738255523E+04  0.31738255523E+04  0.00000000000E+00 0. -1.
         25    2    1    2    0    0  0.19792101509E+03  0.33714271943E+03 -0.13943744732E+04  0.14535278145E+04  0.12499997803E+03 0.  0.
          2    1    1    2  501    0  0.74735993686E+01  0.26159184186E+02 -0.15218065180E+04  0.15220496825E+04  0.00000000000E+00 0. -1.
          1    1    1    2  502    0 -0.20539461445E+03 -0.36330190362E+03 -0.36919721646E+02  0.41897289491E+03  0.00000000000E+00 0. -1.
         22    1    3    3    0    0  0.37574720028E+02  0.34918169007E+02 -0.36981132667E+03  0.37335178511E+03  0.00000000000E+00 0. -1.
         22    1    3    3    0    0  0.16034629506E+03  0.30222455043E+03 -0.10245631465E+04  0.10801760294E+04  0.00000000000E+00 0. -1.
</event>
<event>
 7    1  0.6358809E-006  0.4022454E+02  0.7818608E-02  0.1512660E+00
          2   -1    0    0  502    0  0.00000000000E+00  0.00000000000E+00  0.13009372265E+04  0.13009372265E+04  0.00000000000E+00 0. -1.
          1   -1    0    0  501    0 -0.00000000000E+00 -0.00000000000E+00 -0.75054466079E+03  0.75054466079E+03  0.00000000000E+00 0. -1.
         25    2    1    2    0    0 -0.50096358903E+02  0.75938899073E+01  0.24919339512E+03  0.28336008895E+03  0.12501311731E+03 0.  0.
          2    1    1    2  501    0  0.19145950746E+02 -0.33512473884E+02 -0.73255932310E+03  0.73357536436E+03  0.00000000000E+00 0. -1.
          1    1    1    2  502    0  0.30950408157E+02  0.25918583977E+02  0.10337584937E+04  0.10345464339E+04  0.00000000000E+00 0. -1.
         22    1    3    3    0    0 -0.34199845407E+02 -0.37113341985E+01  0.25917496343E+03  0.26144801605E+03  0.00000000000E+00 0. -1.
         22    1    3    3    0    0 -0.15896513496E+02  0.11305224106E+02 -0.99815683020E+01  0.21912072909E+02  0.00000000000E+00 0. -1.
</event>
<event>
 7    1  0.6358809E-006  0.5121701E+02  0.7818608E-02  0.1454206E+00
          2   -1    0    0  502    0  0.00000000000E+00  0.00000000000E+00  0.14929623832E+04  0.14929623832E+04  0.00000000000E+00 0. -1.
          1   -1    0    0  501    0 -0.00000000000E+00 -0.00000000000E+00 -0.13191523133E+02  0.13191523133E+02  0.00000000000E+00 0. -1.
         25    2    1    2    0    0  0.13446556855E+02 -0.10749928063E+02  0.55919131470E+03  0.57324895079E+03  0.12499224897E+03 0.  0.
          2    1    1    2  501    0 -0.35381770936E+02  0.50869933016E+02  0.17011947306E+03  0.18105318255E+03  0.00000000000E+00 0. -1.
          1    1    1    2  502    0  0.21935214081E+02 -0.40120004952E+02  0.75046007231E+03  0.75185177299E+03  0.00000000000E+00 0. -1.
         22    1    3    3    0    0 -0.26378117016E+01  0.16325058692E+02  0.53015726024E+03  0.53041510742E+03  0.00000000000E+00 0. -1.
         22    1    3    3    0    0  0.16084368557E+02 -0.27074986756E+02  0.29034054461E+02  0.42833843373E+02  0.00000000000E+00 0. -1.
</event>
<event>
 7    1  0.6358809E-006  0.3651619E+02  0.7818608E-02  0.1591678E+00
          2   -1    0    0  502    0  0.00000000000E+00  0.00000000000E+00  0.23022960993E+03  0.23022960993E+03  0.00000000000E+00 0. -1.
          1   -1    0    0  501    0 -0.00000000000E+00 -0.00000000000E+00 -0.97884362829E+03  0.97884362829E+03  0.00000000000E+00 0. -1.
         25    2    1    2    0    0 -0.11539313197E+02 -0.17308888613E+02  0.93347966898E+02  0.15738853723E+03  0.12499822140E+03 0.  0.
          2    1    1    2  501    0  0.35584703318E+02  0.84587503245E+01 -0.94489904206E+03  0.94560669480E+03  0.00000000000E+00 0. -1.
          1    1    1    2  502    0 -0.24045390122E+02  0.88501382888E+01  0.10293705680E+03  0.10607800619E+03  0.00000000000E+00 0. -1.
         22    1    3    3    0    0  0.55566551067E+01 -0.49326228318E+02 -0.75057303603E+01  0.50202482053E+02  0.00000000000E+00 0. -1.
         22    1    3    3    0    0 -0.17095968303E+02  0.32017339705E+02  0.10085369726E+03  0.10718605518E+03  0.00000000000E+00 0. -1.
</event>
<event>
 7    1  0.6358809E-006  0.1370687E+03  0.7818608E-02  0.1388564E+00
          2   -1    0    0  502    0  0.00000000000E+00  0.00000000000E+00  0.30274428894E+03  0.30274428894E+03  0.00000000000E+00 0. -1.
          1   -1    0    0  501    0 -0.00000000000E+00 -0.00000000000E+00 -0.41916543227E+03  0.41916543227E+03  0.00000000000E+00 0. -1.
         25    2    1    2    0    0 -0.32897451381E+02  0.13996891903E+03  0.13787286734E+03  0.23517640177E+03  0.12500188719E+03 0.  0.
          2    1    1    2  501    0  0.48020226792E+01 -0.13670198882E+03 -0.35589090269E+03  0.38127264233E+03  0.00000000000E+00 0. -1.
          1    1    1    2  502    0  0.28095428702E+02 -0.32669302091E+01  0.10159689203E+03  0.10546067711E+03  0.00000000000E+00 0. -1.
         22    1    3    3    0    0 -0.61884346304E+02  0.12334539145E+03  0.14588516478E+03  0.20081394178E+03  0.00000000000E+00 0. -1.
         22    1    3    3    0    0  0.28986894923E+02  0.16623527577E+02 -0.80122974411E+01  0.34362459991E+02  0.00000000000E+00 0. -1.
</event>
<event>
 7    1  0.1041271E-005  0.1196483E+03  0.7818608E-02  0.1320278E+00
          2   -1    0    0  502    0  0.00000000000E+00  0.00000000000E+00  0.17007944220E+04  0.17007944220E+04  0.00000000000E+00 0. -1.
          1   -1    0    0  501    0 -0.00000000000E+00 -0.00000000000E+00 -0.11214481016E+04  0.11214481016E+04  0.00000000000E+00 0. -1.
         25    2    1    2    0    0 -0.44596587577E+02 -0.74833142524E+02 -0.23795978180E+03  0.28255654606E+03  0.12499795647E+03 0.  0.
          2    1    1    2  501    0 -0.56820127145E+02  0.10699245934E+02 -0.85807125528E+03  0.86001702300E+03  0.00000000000E+00 0. -1.
          1    1    1    2  502    0  0.10141671472E+03  0.64133896590E+02  0.16753773575E+04  0.16796689545E+04  0.00000000000E+00 0. -1.
         22    1    3    3    0    0 -0.44036308110E+02 -0.54638363078E+02 -0.34682560670E+02  0.78277884274E+02  0.00000000000E+00 0. -1.
         22    1    3    3    0    0 -0.56027946751E+00 -0.20194779446E+02 -0.20327722113E+03  0.20427866178E+03  0.00000000000E+00 0. -1.
</event>
<event>
 7    1  0.6358809E-006  0.5904851E+02  0.7818608E-02  0.1413426E+00
          2   -1    0    0  502    0  0.00000000000E+00  0.00000000000E+00  0.73578179789E+03  0.73578179789E+03  0.00000000000E+00 0. -1.
          1   -1    0    0  501    0 -0.00000000000E+00 -0.00000000000E+00 -0.19758580002E+04  0.19758580002E+04  0.00000000000E+00 0. -1.
         25    2    1    2    0    0 -0.45086329951E+02 -0.67201652043E+02 -0.49596091545E+02  0.15695828030E+03  0.12500916075E+03 0.  0.
          2    1    1    2  501    0  0.53227258780E+02  0.87369306961E+01 -0.18709143061E+04  0.18716916989E+04  0.00000000000E+00 0. -1.
          1    1    1    2  502    0 -0.81409288294E+01  0.58464721346E+02  0.68043419539E+03  0.68298981883E+03  0.00000000000E+00 0. -1.
         22    1    3    3    0    0 -0.70307676358E+02  0.54662150250E+01 -0.34755958434E+02  0.78619498270E+02  0.00000000000E+00 0.  1.
         22    1    3    3    0    0  0.25221346407E+02 -0.72667867068E+02 -0.14840133112E+02  0.78338782027E+02  0.00000000000E+00 0.  1.
</event>
<event>
 7    1  0.6358809E-006  0.6688724E+02  0.7818608E-02  0.1474345E+00
          2   -1    0    0  502    0  0.00000000000E+00  0.00000000000E+00  0.13453266071E+04  0.13453266071E+04  0.00000000000E+00 0. -1.
          1   -1    0    0  501    0 -0.00000000000E+00 -0.00000000000E+00 -0.56542900152E+03  0.56542900152E+03  0.00000000000E+00 0. -1.
         25    2    1    2    0    0  0.49152164552E+02  0.37653537588E+02  0.30690047638E+02  0.14283039666E+03  0.12499967605E+03 0.  0.
          2    1    1    2  501    0  0.16755127921E+02 -0.25214907950E+02 -0.50801429879E+03  0.50891556634E+03  0.00000000000E+00 0. -1.
          1    1    1    2  502    0 -0.65907292473E+02 -0.12438629638E+02  0.12572218567E+04  0.12590096456E+04  0.00000000000E+00 0. -1.
         22    1    3    3    0    0  0.24838821832E+01  0.72378234667E+02  0.41786600993E+02  0.83611593375E+02  0.00000000000E+00 0.  1.
         22    1    3    3    0    0  0.46668282369E+02 -0.34724697078E+02 -0.11096553356E+02  0.59218803287E+02  0.00000000000E+00 0.  1.
</event>
<event>
 7    1  0.6358809E-006  0.9029927E+02  0.7818608E-02  0.1445175E+00
          2   -1    0    0  502    0  0.00000000000E+00  0.00000000000E+00  0.29844602681E+04  0.29844602681E+04  0.00000000000E+00 0. -1.
          1   -1    0    0  501    0 -0.00000000000E+00 -0.00000000000E+00 -0.45425630458E+03  0.45425630458E+03  0.00000000000E+00 0. -1.
         25    2    1    2    0    0  0.62766130950E+02  0.43377390088E+01 -0.15280303855E+03  0.20720271077E+03  0.12500316631E+03 0.  0.
          2    1    1    2  501    0  0.27617392448E+02 -0.23820530569E+01 -0.27286012711E+03  0.27426455023E+03  0.00000000000E+00 0. -1.
          1    1    1    2  502    0 -0.90383523398E+02 -0.19556859520E+01  0.29558671292E+04  0.29572493117E+04  0.00000000000E+00 0. -1.
         22    1    3    3    0    0  0.52169507737E+02  0.62155729430E+02 -0.90086343296E+02  0.12124578956E+03  0.00000000000E+00 0. -1.
         22    1    3    3    0    0  0.10596623212E+02 -0.57817990422E+02 -0.62716695256E+02  0.85956921209E+02  0.00000000000E+00 0. -1.
</event>
<event>
 7    1  0.6358809E-006  0.1604779E+03  0.7818608E-02  0.1256945E+00
          2   -1    0    0  502    0  0.00000000000E+00  0.00000000000E+00  0.99482029627E+03  0.99482029627E+03  0.00000000000E+00 0. -1.
          1   -1    0    0  501    0 -0.00000000000E+00 -0.00000000000E+00 -0.25799770463E+03  0.25799770463E+03  0.00000000000E+00 0. -1.
         25    2    1    2    0    0  0.23091563350E+02 -0.94668675280E+02  0.12157183658E+03  0.19974972432E+03  0.12499945015E+03 0.  0.
          2    1    1    2  501    0  0.23134434258E+02 -0.74636700846E+02 -0.20231340354E+03  0.21687911936E+03  0.00000000000E+00 0. -1.
          1    1    1    2  502    0 -0.46225997608E+02  0.16930537613E+03  0.81756415860E+03  0.83618915723E+03  0.00000000000E+00 0. -1.
         22    1    3    3    0    0  0.58425275282E+02 -0.10731991963E+01  0.43477055443E+02  0.72834874190E+02  0.00000000000E+00 0.  1.
         22    1    3    3    0    0 -0.35333711932E+02 -0.93595476084E+02  0.78094781139E+02  0.12691485013E+03  0.00000000000E+00 0.  1.
</event>
<event>
 7    1  0.6358809E-006  0.8208057E+02  0.7818608E-02  0.1372557E+00
          2   -1    0    0  502    0  0.00000000000E+00  0.00000000000E+00  0.36185488869E+04  0.36185488869E+04  0.00000000000E+00 0. -1.
          1   -1    0    0  501    0 -0.00000000000E+00 -0.00000000000E+00 -0.12981492956E+03  0.12981492956E+03  0.00000000000E+00 0. -1.
         25    2    1    2    0    0  0.89223394344E+01  0.12559352408E+03  0.65585641729E+03  0.67943047575E+03  0.12499915940E+03 0.  0.
          2    1    1    2  501    0 -0.25936746922E+02 -0.47151610856E+02 -0.11131826163E+03  0.12364361940E+03  0.00000000000E+00 0. -1.
          1    1    1    2  502    0  0.17014407487E+02 -0.78441913227E+02  0.29441958016E+04  0.29452897213E+04  0.00000000000E+00 0. -1.
         22    1    3    3    0    0 -0.34798817483E+01 -0.16621768025E+02  0.14352831373E+02  0.22235029069E+02  0.00000000000E+00 0. -1.
         22    1    3    3    0    0  0.12402221183E+02  0.14221529211E+03  0.64150358592E+03  0.65719544669E+03  0.00000000000E+00 0. -1.
</event>
<event>
 7    1  0.6358809E-006  0.5298420E+02  0.7818608E-02  0.1522043E+00
          2   -1    0    0  502    0  0.00000000000E+00  0.00000000000E+00  0.58856274449E+03  0.58856274449E+03  0.00000000000E+00 0. -1.
          1   -1    0    0  501    0 -0.00000000000E+00 -0.00000000000E+00 -0.36540497436E+03  0.36540497436E+03  0.00000000000E+00 0. -1.
         25    2    1    2    0    0  0.68772180878E+02  0.40593536944E+02  0.30086585526E+03  0.33544301592E+03  0.12499722381E+03 0.  0.
          2    1    1    2  501    0 -0.47437819188E+02 -0.23220675085E+02 -0.34540393864E+03  0.34941869909E+03  0.00000000000E+00 0. -1.
          1    1    1    2  502    0 -0.21334361689E+02 -0.17372861859E+02  0.26769585351E+03  0.26910600384E+03  0.00000000000E+00 0. -1.
         22    1    3    3    0    0  0.75647183674E+02  0.88516715057E+01  0.29201030159E+03  0.30177949685E+03  0.00000000000E+00 0. -1.
         22    1    3    3    0    0 -0.68750027968E+01  0.31741865438E+02  0.88555536733E+01  0.33663519065E+02  0.00000000000E+00 0. -1.
</event>
<event>
 7    1  0.6358809E-006  0.3353405E+02  0.7818608E-02  0.1569395E+00
          2   -1    0    0  502    0  0.00000000000E+00  0.00000000000E+00  0.13458326522E+03  0.13458326522E+03  0.00000000000E+00 0. -1.
          1   -1    0    0  501    0 -0.00000000000E+00 -0.00000000000E+00 -0.45500954774E+03  0.45500954774E+03  0.00000000000E+00 0. -1.
         25    2    1    2    0    0  0.89373422900E+01 -0.94039418647E+01 -0.19490010846E+03  0.23190342447E+03  0.12499934317E+03 0.  0.
          2    1    1    2  501    0 -0.24380883584E+02 -0.20746479755E+02 -0.23804182018E+03  0.24018482895E+03  0.00000000000E+00 0. -1.
          1    1    1    2  502    0  0.15443541294E+02  0.30150421620E+02  0.11251564612E+03  0.11750455954E+03  0.00000000000E+00 0. -1.
         22    1    3    3    0    0  0.53461196457E+02  0.32744162298E+02 -0.11734414955E+03  0.13304108059E+03  0.00000000000E+00 0.  1.
         22    1    3    3    0    0 -0.44523854167E+02 -0.42148104162E+02 -0.77555958903E+02  0.98862343872E+02  0.00000000000E+00 0.  1.
</event>
<event>
 7    1  0.1334792E-005  0.6395348E+02  0.7818608E-02  0.1413235E+00
          2   -1    0    0  502    0  0.00000000000E+00  0.00000000000E+00  0.10388248423E+04  0.10388248423E+04  0.00000000000E+00 0. -1.
          1   -1    0    0  501    0 -0.00000000000E+00 -0.00000000000E+00 -0.16621657883E+04  0.16621657883E+04  0.00000000000E+00 0. -1.
         25    2    1    2    0    0  0.13272900135E+02 -0.11225778713E+03 -0.31849150831E+03  0.36033216909E+03  0.12499780224E+03 0.  0.
          2    1    1    2  501    0  0.15516014706E+00  0.49876410485E+02 -0.13212829284E+04  0.13222239815E+04  0.00000000000E+00 0. -1.
          1    1    1    2  502    0 -0.13428060282E+02  0.62381376642E+02  0.10164334907E+04  0.10184344800E+04  0.00000000000E+00 0. -1.
         22    1    3    3    0    0  0.53811258390E+02 -0.99416588213E+02 -0.15782844847E+03  0.19413688132E+03  0.00000000000E+00 0.  1.
         22    1    3    3    0    0 -0.40538358255E+02 -0.12841198913E+02 -0.16066305984E+03  0.16619528777E+03  0.00000000000E+00 0.  1.
</event>
<event>
 7    1  0.6358809E-006  0.7532053E+02  0.7818608E-02  0.1366328E+00
          2   -1    0    0  502    0  0.00000000000E+00  0.00000000000E+00  0.31636629862E+04  0.31636629862E+04  0.00000000000E+00 0. -1.
          1   -1    0    0  501    0 -0.00000000000E+00 -0.00000000000E+00 -0.40543512007E+02  0.40543512007E+02  0.00000000000E+00 0. -1.
         25    2    1    2    0    0  0.24386583346E+02 -0.10611614446E+03  0.52306027889E+03  0.54870383978E+03  0.12501402670E+03 0.  0.
          2    1    1    2  501    0 -0.52834536916E+02  0.51309317130E+02  0.22225154621E+02  0.76929135010E+02  0.00000000000E+00 0. -1.
          1    1    1    2  502    0  0.28447953570E+02  0.54806827330E+02  0.25778340407E+04  0.25785735234E+04  0.00000000000E+00 0. -1.
         22    1    3    3    0    0  0.38524292152E+02 -0.84819884997E+02  0.51274511987E+03  0.52113922509E+03  0.00000000000E+00 0.  1.
         22    1    3    3    0    0 -0.14137708806E+02 -0.21296259463E+02  0.10315159024E+02  0.27564614691E+02  0.00000000000E+00 0.  1.
</event>
<event>
 7    1  0.6358809E-006  0.5400464E+02  0.7818608E-02  0.1436479E+00
          2   -1    0    0  502    0  0.00000000000E+00  0.00000000000E+00  0.12804215344E+04  0.12804215344E+04  0.00000000000E+00 0. -1.
          1   -1    0    0  501    0 -0.00000000000E+00 -0.00000000000E+00 -0.11116691452E+03  0.11116691452E+03  0.00000000000E+00 0. -1.
         25    2    1    2    0    0  0.38171817664E+02 -0.68958466538E+00  0.66331117156E+02  0.14658166641E+03  0.12501521760E+03 0.  0.
          2    1    1    2  501    0 -0.29666602412E+02  0.49410546686E+02 -0.58739643085E+02  0.82291281994E+02  0.00000000000E+00 0. -1.
          1    1    1    2  502    0 -0.85052152523E+01 -0.48720962020E+02  0.11616631458E+04  0.11627155005E+04  0.00000000000E+00 0. -1.
         22    1    3    3    0    0 -0.12841612348E+01  0.51749790422E+02  0.62063171729E+02  0.80817864139E+02  0.00000000000E+00 0.  1.
         22    1    3    3    0    0  0.39455978899E+02 -0.52439375088E+02  0.42679454266E+01  0.65763802267E+02  0.00000000000E+00 0.  1.
</event>
<event>
 7    1  0.6358809E-006  0.9517144E+02  0.7818608E-02  0.1419737E+00
          2   -1    0    0  502    0  0.00000000000E+00  0.00000000000E+00  0.26511615420E+04  0.26511615420E+04  0.00000000000E+00 0. -1.
          1   -1    0    0  501    0 -0.00000000000E+00 -0.00000000000E+00 -0.21196673393E+02  0.21196673393E+02  0.00000000000E+00 0. -1.
         25    2    1    2    0    0  0.24169357324E+02 -0.89613209452E+02  0.16148871223E+04  0.16223748383E+04  0.12500005265E+03 0.  0.
          2    1    1    2  501    0 -0.54206343454E+02  0.78950886935E+02  0.11636796650E+03  0.15070857257E+03  0.00000000000E+00 0. -1.
          1    1    1    2  502    0  0.30036986130E+02  0.10662322517E+02  0.89870977987E+03  0.89927480455E+03  0.00000000000E+00 0. -1.
         22    1    3    3    0    0  0.21251437334E+01  0.20491844969E+02  0.74312565698E+03  0.74341117426E+03  0.00000000000E+00 0.  1.
         22    1    3    3    0    0  0.22044213591E+02 -0.11010505442E+03  0.87176146527E+03  0.87896366403E+03  0.00000000000E+00 0.  1.
</event>
<event>
 7    1  0.6358809E-006  0.1425056E+03  0.7818608E-02  0.1408606E+00
          2   -1    0    0  502    0  0.00000000000E+00  0.00000000000E+00  0.66802743515E+03  0.66802743515E+03  0.00000000000E+00 0. -1.
          1   -1    0    0  501    0 -0.00000000000E+00 -0.00000000000E+00 -0.13540658518E+04  0.13540658518E+04  0.00000000000E+00 0. -1.
         25    2    1    2    0    0  0.14218020370E+03  0.46336033115E+02  0.12013993457E+03  0.22896310883E+03  0.12501305148E+03 0.  0.
          2    1    1    2  501    0 -0.26540975408E+01 -0.23053498675E+02 -0.12894106427E+04  0.12896194452E+04  0.00000000000E+00 0. -1.
          1    1    1    2  502    0 -0.13952610616E+03 -0.23282534439E+02  0.48323229142E+03  0.50351073294E+03  0.00000000000E+00 0. -1.
         22    1    3    3    0    0  0.51491058992E+02  0.67857154752E+02  0.11717699170E+02  0.85983876867E+02  0.00000000000E+00 0. -1.
         22    1    3    3    0    0  0.90689144704E+02 -0.21521121637E+02  0.10842223540E+03  0.14297923197E+03  0.00000000000E+00 0. -1.
</event>
<event>
 7    1  0.6358809E-006  0.2213093E+03  0.7818608E-02  0.1304243E+00
          2   -1    0    0  502    0  0.00000000000E+00  0.00000000000E+00  0.34985777211E+03  0.34985777211E+03  0.00000000000E+00 0. -1.
          1   -1    0    0  501    0 -0.00000000000E+00 -0.00000000000E+00 -0.74971296256E+03  0.74971296256E+03  0.00000000000E+00 0. -1.
         25    2    1    2    0    0  0.59957467682E+02 -0.22476258995E+03 -0.20377385780E+03  0.33355978167E+03  0.12500089221E+03 0.  0.
          2    1    1    2  501    0  0.27753211980E+02  0.23143343485E+02 -0.43777878984E+03  0.43926771331E+03  0.00000000000E+00 0. -1.
          1    1    1    2  502    0 -0.87710679662E+02  0.20161924647E+03  0.24169745719E+03  0.32674323969E+03  0.00000000000E+00 0. -1.
         22    1    3    3    0    0 -0.15823981543E+02 -0.93628953795E+02 -0.14013618552E+03  0.16927767093E+03  0.00000000000E+00 0. -1.
         22    1    3    3    0    0  0.75781449225E+02 -0.13113363616E+03 -0.63637672278E+02  0.16428211075E+03  0.00000000000E+00 0. -1.
</event>
<event>
 7    1  0.6358809E-006  0.6198111E+02  0.7818608E-02  0.1397572E+00
          2   -1    0    0  502    0  0.00000000000E+00  0.00000000000E+00  0.11261249168E+03  0.11261249168E+03  0.00000000000E+00 0. -1.
          1   -1    0    0  501    0 -0.00000000000E+00 -0.00000000000E+00 -0.95132671020E+03  0.95132671020E+03  0.00000000000E+00 0. -1.
         25    2    1    2    0    0  0.72324968369E+02 -0.90404659525E+02 -0.62867096115E+03  0.65134934314E+03  0.12499954360E+03 0.  0.
          2    1    1    2  501    0 -0.46633547461E+02  0.34825561386E+02 -0.29899183761E+03  0.30460404862E+03  0.00000000000E+00 0. -1.
          1    1    1    2  502    0 -0.25691420908E+02  0.55579098140E+02  0.88948580245E+02  0.10798581011E+03  0.00000000000E+00 0. -1.
         22    1    3    3    0    0  0.60851061838E+02  0.93542174148E+01 -0.34450484581E+03  0.34996277216E+03  0.00000000000E+00 0. -1.
         22    1    3    3    0    0  0.11473906531E+02 -0.99758876940E+02 -0.28416611534E+03  0.30138657098E+03  0.00000000000E+00 0. -1.
</event>
<event>
 7    1  0.6358809E-006  0.9861473E+02  0.7818608E-02  0.1313503E+00
          2   -1    0    0  502    0  0.00000000000E+00  0.00000000000E+00  0.37541946278E+03  0.37541946278E+03  0.00000000000E+00 0. -1.
          1   -1    0    0  501    0 -0.00000000000E+00 -0.00000000000E+00 -0.76207132035E+03  0.76207132035E+03  0.00000000000E+00 0. -1.
         25    2    1    2    0    0 -0.40153471811E+02 -0.28022043355E+02  0.25195605348E+02  0.13659282111E+03  0.12500097615E+03 0.  0.
          2    1    1    2  501    0  0.10018230697E+03 -0.16184544991E+02 -0.69792605291E+03  0.70526534685E+03  0.00000000000E+00 0. -1.
          1    1    1    2  502    0 -0.60028835156E+02  0.44206588346E+02  0.28607858999E+03  0.29563261517E+03  0.00000000000E+00 0. -1.
         22    1    3    3    0    0 -0.30453678059E+02 -0.77547798479E+02  0.21200191499E+02  0.85968224804E+02  0.00000000000E+00 0. -1.
         22    1    3    3    0    0 -0.96997937519E+01  0.49525755124E+02  0.39954138484E+01  0.50624596307E+02  0.00000000000E+00 0. -1.
</event>
<event>
 7    1  0.6358809E-006  0.8768580E+02  0.7818608E-02  0.1359253E+00
          2   -1    0    0  502    0  0.00000000000E+00  0.00000000000E+00  0.12288606503E+04  0.12288606503E+04  0.00000000000E+00 0. -1.
          1   -1    0    0  501    0 -0.00000000000E+00 -0.00000000000E+00 -0.34947954621E+04  0.34947954621E+04  0.00000000000E+00 0. -1.
         25    2    1    2    0    0 -0.13481620420E+03 -0.21300580465E+02  0.19866176095E+03  0.27151121127E+03  0.12499087543E+03 0.  0.
          2    1    1    2  501    0  0.49600308959E+02  0.26588750531E+02 -0.34563073988E+04  0.34567655383E+04  0.00000000000E+00 0. -1.
          1    1    1    2  502    0  0.85215895242E+02 -0.52881700665E+01  0.99171082600E+03  0.99537936283E+03  0.00000000000E+00 0. -1.
         22    1    3    3    0    0 -0.58224093622E+02  0.36869734717E+02  0.14696279787E+03  0.16231908814E+03  0.00000000000E+00 0. -1.
         22    1    3    3    0    0 -0.76592110579E+02 -0.58170315182E+02  0.51698963071E+02  0.10919212313E+03  0.00000000000E+00 0. -1.
</event>
<event>
 7    1  0.6358809E-006  0.1438097E+03  0.7818608E-02  0.1208401E+00
          2   -1    0    0  502    0  0.00000000000E+00  0.00000000000E+00  0.18431457572E+04  0.18431457572E+04  0.00000000000E+00 0. -1.
          1   -1    0    0  501    0 -0.00000000000E+00 -0.00000000000E+00 -0.12028391597E+03  0.12028391597E+03  0.00000000000E+00 0. -1.
         25    2    1    2    0    0 -0.49999926812E+02  0.18957412824E+03  0.54014299093E+03  0.58806427135E+03  0.12500717503E+03 0.  0.
          2    1    1    2  501    0  0.12653874337E+03 -0.67978819257E+02 -0.36098150486E+02  0.14810891232E+03  0.00000000000E+00 0. -1.
          1    1    1    2  502    0 -0.76538816554E+02 -0.12159530898E+03  0.12188170008E+04  0.12272564895E+04  0.00000000000E+00 0. -1.
         22    1    3    3    0    0 -0.55237577160E+02  0.19146388706E+03  0.39131488402E+03  0.43913203987E+03  0.00000000000E+00 0. -1.
         22    1    3    3    0    0  0.52376503483E+01 -0.18897588208E+01  0.14882810690E+03  0.14893223148E+03  0.00000000000E+00 0. -1.
</event>
<event>
 7    1  0.6358809E-006  0.1269210E+03  0.7818608E-02  0.1269869E+00
          2   -1    0    0  502    0  0.00000000000E+00  0.00000000000E+00  0.28681914568E+03  0.28681914568E+03  0.00000000000E+00 0. -1.
          1   -1    0    0  501    0 -0.00000000000E+00 -0.00000000000E+00 -0.95630523286E+03  0.95630523286E+03  0.00000000000E+00 0. -1.
         25    2    1    2    0    0 -0.78938689699E+01 -0.15118999138E+03 -0.28837745000E+02  0.19843662947E+03  0.12499901486E+03 0.  0.
          2    1    1    2  501    0  0.75204774372E+02  0.43891037296E+02 -0.82028030307E+03  0.82488905730E+03  0.00000000000E+00 0. -1.
          1    1    1    2  502    0 -0.67310905402E+02  0.10729895409E+03  0.17963196089E+03  0.21979869178E+03  0.00000000000E+00 0. -1.
         22    1    3    3    0    0 -0.88083427044E+01 -0.16775252873E+03 -0.46405035751E+02  0.17427542896E+03  0.00000000000E+00 0. -1.
         22    1    3    3    0    0  0.91447373447E+00  0.16562537348E+02  0.17567290750E+02  0.24161200507E+02  0.00000000000E+00 0. -1.
</event>
<event>
 7    1  0.6358809E-006  0.1296655E+03  0.7818608E-02  0.1320793E+00
          2   -1    0    0  502    0  0.00000000000E+00  0.00000000000E+00  0.94970379689E+03  0.94970379689E+03  0.00000000000E+00 0. -1.
          1   -1    0    0  501    0 -0.00000000000E+00 -0.00000000000E+00 -0.97382619244E+03  0.97382619244E+03  0.00000000000E+00 0. -1.
         25    2    1    2    0    0 -0.77476973530E+02  0.36146903954E+02  0.72390402619E+02  0.16785279484E+03  0.12499964101E+03 0.  0.
          2    1    1    2  501    0 -0.32447249906E+02  0.42042431150E+02 -0.91984026663E+03  0.92137207802E+03  0.00000000000E+00 0. -1.
          1    1    1    2  502    0  0.10992422344E+03 -0.78189335104E+02  0.82332746846E+03  0.83430511646E+03  0.00000000000E+00 0. -1.
         22    1    3    3    0    0 -0.51884336865E+02 -0.35966482729E+02  0.65581700662E+02  0.91030389176E+02  0.00000000000E+00 0.  1.
         22    1    3    3    0    0 -0.25592636666E+02  0.72113386683E+02  0.68087019567E+01  0.76822405669E+02  0.00000000000E+00 0.  1.
</event>
<event>
 7    1  0.6358809E-006  0.1064433E+03  0.7818608E-02  0.1456535E+00
          2   -1    0    0  502    0  0.00000000000E+00  0.00000000000E+00  0.19620183261E+04  0.19620183261E+04  0.00000000000E+00 0. -1.
          1   -1    0    0  501    0 -0.00000000000E+00 -0.00000000000E+00 -0.84336469606E+02  0.84336469606E+02  0.00000000000E+00 0. -1.
         25    2    1    2    0    0 -0.28775910273E+02  0.11860589073E+03  0.48045008186E+03  0.51122574690E+03  0.12499629117E+03 0.  0.
          2    1    1    2  501    0 -0.72597638148E+01 -0.20375242275E+02 -0.65336035631E+02  0.68823340666E+02  0.00000000000E+00 0. -1.
          1    1    1    2  502    0  0.36035674088E+02 -0.98230648453E+02  0.14625678103E+04  0.14663057082E+04  0.00000000000E+00 0. -1.
         22    1    3    3    0    0 -0.74828697468E+02  0.10029383337E+03  0.34229286301E+03  0.36444833796E+03  0.00000000000E+00 0.  1.
         22    1    3    3    0    0  0.46052787195E+02  0.18312057355E+02  0.13815721885E+03  0.14677740893E+03  0.00000000000E+00 0.  1.
</event>
<event>
 7    1  0.6358809E-006  0.4645482E+02  0.7818608E-02  0.1472663E+00
          2   -1    0    0  502    0  0.00000000000E+00  0.00000000000E+00  0.27612846751E+03  0.27612846751E+03  0.00000000000E+00 0. -1.
          1   -1    0    0  501    0 -0.00000000000E+00 -0.00000000000E+00 -0.22389915151E+04  0.22389915151E+04  0.00000000000E+00 0. -1.
         25    2    1    2    0    0 -0.79024420924E+01  0.72065456401E+02 -0.20481424018E+03  0.25065876055E+03  0.12500025065E+03 0.  0.
          2    1    1    2  501    0 -0.23071611182E+02 -0.37601566021E+02 -0.20088908554E+04  0.20093751880E+04  0.00000000000E+00 0. -1.
          1    1    1    2  502    0  0.30974053274E+02 -0.34463890380E+02  0.25084204804E+03  0.25508603407E+03  0.00000000000E+00 0. -1.
         22    1    3    3    0    0  0.45007837038E+02  0.71697158211E+02 -0.16125187854E+03  0.18212181699E+03  0.00000000000E+00 0.  1.
         22    1    3    3    0    0 -0.52910279130E+02  0.36829819055E+00 -0.43562361635E+02  0.68536943559E+02  0.00000000000E+00 0.  1.
</event>
<event>
 7    1  0.6358809E-006  0.7069253E+02  0.7818608E-02  0.1416923E+00
          2   -1    0    0  502    0  0.00000000000E+00  0.00000000000E+00  0.30265305156E+03  0.30265305156E+03  0.00000000000E+00 0. -1.
          1   -1    0    0  501    0 -0.00000000000E+00 -0.00000000000E+00 -0.75002568548E+02  0.75002568548E+02  0.00000000000E+00 0. -1.
         25    2    1    2    0    0  0.37929677387E+02 -0.47891792042E+01  0.58699992715E+02  0.14329077885E+03  0.12499984598E+03 0.  0.
          2    1    1    2  501    0  0.37373806781E+02  0.22937858645E+02 -0.48164822707E+01  0.44115136790E+02  0.00000000000E+00 0. -1.
          1    1    1    2  502    0 -0.75303484168E+02 -0.18148679441E+02  0.17376697257E+03  0.19024970446E+03  0.00000000000E+00 0. -1.
         22    1    3    3    0    0 -0.29840539564E+02  0.27544930179E+02 -0.96628344602E+01  0.41743877992E+02  0.00000000000E+00 0. -1.
         22    1    3    3    0    0  0.67770216951E+02 -0.32334109383E+02  0.68362827176E+02  0.10154690086E+03  0.00000000000E+00 0. -1.
</event>
<event>
 7    1  0.6358809E-006  0.1483285E+03  0.7818608E-02  0.1205032E+00
          2   -1    0    0  502    0  0.00000000000E+00  0.00000000000E+00  0.20534495296E+04  0.20534495296E+04  0.00000000000E+00 0. -1.
          1   -1    0    0  501    0 -0.00000000000E+00 -0.00000000000E+00 -0.30577168596E+04  0.30577168596E+04  0.00000000000E+00 0. -1.
         25    2    1    2    0    0  0.14959380758E+03  0.24241267398E+03 -0.69635767544E+02  0.31877344876E+03  0.12500063896E+03 0.  0.
          2    1    1    2  501    0 -0.50521271217E+02 -0.13736411361E+03 -0.28589352454E+04  0.28626791710E+04  0.00000000000E+00 0. -1.
          1    1    1    2  502    0 -0.99072536360E+02 -0.10504856038E+03  0.19243036830E+04  0.19297137694E+04  0.00000000000E+00 0. -1.
         22    1    3    3    0    0 -0.48476354535E+01  0.72204121143E+02  0.14904130739E+02  0.73885504617E+02  0.00000000000E+00 0.  1.
         22    1    3    3    0    0  0.15444144303E+03  0.17020855284E+03 -0.84539898283E+02  0.24488794414E+03  0.00000000000E+00 0.  1.
</event>
<event>
 7    1  0.6358809E-006  0.2199842E+03  0.7818608E-02  0.1243282E+00
          2   -1    0    0  502    0  0.00000000000E+00  0.00000000000E+00  0.32587323477E+03  0.32587323477E+03  0.00000000000E+00 0. -1.
          1   -1    0    0  501    0 -0.00000000000E+00 -0.00000000000E+00 -0.10581222697E+04  0.10581222697E+04  0.00000000000E+00 0. -1.
         25    2    1    2    0    0 -0.14663585046E+03  0.16008519696E+03 -0.13932251943E+02  0.25089496309E+03  0.12499932773E+03 0.  0.
          2    1    1    2  501    0 -0.46470920265E+02 -0.45927834568E+02 -0.86345057667E+03  0.86591905555E+03  0.00000000000E+00 0. -1.
          1    1    1    2  502    0  0.19310677072E+03 -0.11415736239E+03  0.14513379370E+03  0.26718148582E+03  0.00000000000E+00 0. -1.
         22    1    3    3    0    0 -0.11918287066E+03  0.15626505062E+03 -0.52481993560E+02  0.20341504948E+03  0.00000000000E+00 0.  1.
         22    1    3    3    0    0 -0.27452979795E+02  0.38201463377E+01  0.38549741617E+02  0.47479913610E+02  0.00000000000E+00 0.  1.
</event>
<event>
 7    1  0.6358809E-006  0.5125038E+02  0.7818608E-02  0.1454622E+00
          2   -1    0    0  502    0  0.00000000000E+00  0.00000000000E+00  0.76299432842E+02  0.76299432842E+02  0.00000000000E+00 0. -1.
          1   -1    0    0  501    0 -0.00000000000E+00 -0.00000000000E+00 -0.84960478259E+03  0.84960478259E+03  0.00000000000E+00 0. -1.
         25    2    1    2    0    0 -0.97340541862E+01 -0.68183073884E+01 -0.19951680839E+02  0.12713589093E+03  0.12499689624E+03 0.  0.
          2    1    1    2  501    0  0.31182739552E+01  0.51891557208E+02 -0.75137289417E+03  0.75316909352E+03  0.00000000000E+00 0. -1.
          1    1    1    2  502    0  0.66157802310E+01 -0.45073249819E+02 -0.19807747420E+01  0.45599230980E+02  0.00000000000E+00 0. -1.
         22    1    3    3    0    0  0.17168391313E+02  0.52559441322E+02 -0.27065027347E+02  0.61561061051E+02  0.00000000000E+00 0.  1.
         22    1    3    3    0    0 -0.26902445500E+02 -0.59377748711E+02  0.71133465080E+01  0.65574829884E+02  0.00000000000E+00 0.  1.
</event>
<event>
 7    1  0.6358809E-006  0.8104953E+02  0.7818608E-02  0.1374047E+00
          2   -1    0    0  502    0  0.00000000000E+00  0.00000000000E+00  0.10935490634E+04  0.10935490634E+04  0.00000000000E+00 0. -1.
          1   -1    0    0  501    0 -0.00000000000E+00 -0.00000000000E+00 -0.31537892853E+03  0.31537892853E+03  0.00000000000E+00 0. -1.
         25    2    1    2    0    0 -0.51497170863E+02  0.11233681149E+02  0.32356290253E+03  0.35084949576E+03  0.12499705029E+03 0.  0.
          2    1    1    2  501    0 -0.84510169045E+01  0.53166841242E+02 -0.29674682621E+03  0.30159046995E+03  0.00000000000E+00 0. -1.
          1    1    1    2  502    0  0.59948187768E+02 -0.64400522391E+02  0.75135405854E+03  0.75648802620E+03  0.00000000000E+00 0. -1.
         22    1    3    3    0    0 -0.18837205264E+02  0.66828247135E+02  0.19564196942E+03  0.20759729072E+03  0.00000000000E+00 0.  1.
         22    1    3    3    0    0 -0.32659965599E+02 -0.55594565986E+02  0.12792093311E+03  0.14325220504E+03  0.00000000000E+00 0.  1.
</event>
<event>
 7    1  0.6358809E-006  0.5775198E+02  0.7818608E-02  0.1415234E+00
          2   -1    0    0  502    0  0.00000000000E+00  0.00000000000E+00  0.43288393924E+03  0.43288393924E+03  0.00000000000E+00 0. -1.
          1   -1    0    0  501    0 -0.00000000000E+00 -0.00000000000E+00 -0.68721507689E+02  0.68721507689E+02  0.00000000000E+00 0. -1.
         25    2    1    2    0    0 -0.12592036092E+02  0.22527223691E+00  0.98577389251E+02  0.15969201815E+03  0.12500171546E+03 0.  0.
          2    1    1    2  501    0 -0.17359142487E+01  0.57725888114E+02 -0.11145213175E+02  0.58817576740E+02  0.00000000000E+00 0. -1.
          1    1    1    2  502    0  0.14327950341E+02 -0.57951160351E+02  0.27673025548E+03  0.28309585204E+03  0.00000000000E+00 0. -1.
         22    1    3    3    0    0  0.16717808629E+02  0.58069266561E+02  0.53603290603E+02  0.80776466918E+02  0.00000000000E+00 0. -1.
         22    1    3    3    0    0 -0.29309844721E+02 -0.57843994324E+02  0.44974098648E+02  0.78915551231E+02  0.00000000000E+00 0. -1.
</event>
<event>
 7    1  0.8929839E-006  0.6480853E+02  0.7818608E-02  0.1383108E+00
          2   -1    0    0  502    0  0.00000000000E+00  0.00000000000E+00  0.64691545148E+03  0.64691545148E+03  0.00000000000E+00 0. -1.
          1   -1    0    0  501    0 -0.00000000000E+00 -0.00000000000E+00 -0.16183581796E+04  0.16183581796E+04  0.00000000000E+00 0. -1.
         25    2    1    2    0    0 -0.49994406763E+02  0.90688471680E+02 -0.20957515534E+03  0.26508803546E+03  0.12500432475E+03 0.  0.
          2    1    1    2  501    0 -0.79617968765E+01 -0.62010878235E+02 -0.13786278960E+04  0.13800447872E+04  0.00000000000E+00 0. -1.
          1    1    1    2  502    0  0.57956203640E+02 -0.28677593445E+02  0.61676032322E+03  0.62014080836E+03  0.00000000000E+00 0. -1.
         22    1    3    3    0    0 -0.36412168557E+02  0.80806900022E+02 -0.22528308901E+03  0.24209103929E+03  0.00000000000E+00 0. -1.
         22    1    3    3    0    0 -0.13582238206E+02  0.98815716580E+01  0.15707933665E+02  0.22996996177E+02  0.00000000000E+00 0. -1.
</event>
<event>
 7    1  0.6358809E-006  0.1320701E+03  0.7818608E-02  0.1366262E+00
          2   -1    0    0  502    0  0.00000000000E+00  0.00000000000E+00  0.16062453138E+04  0.16062453138E+04  0.00000000000E+00 0. -1.
          1   -1    0    0  501    0 -0.00000000000E+00 -0.00000000000E+00 -0.11343977122E+03  0.11343977122E+03  0.00000000000E+00 0. -1.
         25    2    1    2    0    0 -0.13247030545E+03 -0.69587575764E+01  0.54088499678E+03  0.57077062500E+03  0.12500288192E+03 0.  0.
          2    1    1    2  501    0  0.12934677299E+03 -0.28138596301E+02 -0.53574180789E+02  0.14280252495E+03  0.00000000000E+00 0. -1.
          1    1    1    2  502    0  0.31235324621E+01  0.35097353878E+02  0.10054947266E+04  0.10061119350E+04  0.00000000000E+00 0. -1.
         22    1    3    3    0    0 -0.31878719285E+02 -0.35409241468E+02  0.50745986174E+02  0.69607630598E+02  0.00000000000E+00 0. -1.
         22    1    3    3    0    0 -0.10059158616E+03  0.28450483892E+02  0.49013901061E+03  0.50116299440E+03  0.00000000000E+00 0. -1.
</event>
<event>
 7    1  0.6358809E-006  0.9016137E+02  0.7818608E-02  0.1306260E+00
          2   -1    0    0  502    0  0.00000000000E+00  0.00000000000E+00  0.57775592150E+03  0.57775592150E+03  0.00000000000E+00 0. -1.
          1   -1    0    0  501    0 -0.00000000000E+00 -0.00000000000E+00 -0.10966028659E+04  0.10966028659E+04  0.00000000000E+00 0. -1.
         25    2    1    2    0    0 -0.19500309690E+02 -0.17510492602E+03  0.99691588778E+02  0.23791969796E+03  0.12500149043E+03 0.  0.
          2    1    1    2  501    0  0.75009234704E+01  0.88855589820E+02 -0.10208875450E+04  0.10247745895E+04  0.00000000000E+00 0. -1.
          1    1    1    2  502    0  0.11999386220E+02  0.86249336199E+02  0.40234901179E+03  0.41166450000E+03  0.00000000000E+00 0. -1.
         22    1    3    3    0    0 -0.55949747820E+02 -0.91135874292E+02  0.62659161497E+01  0.10712321676E+03  0.00000000000E+00 0. -1.
         22    1    3    3    0    0  0.36449438130E+02 -0.83969051727E+02  0.93425672628E+02  0.13079648120E+03  0.00000000000E+00 0. -1.
</event>
<event>
 7    1  0.6358809E-006  0.1817281E+03  0.7818608E-02  0.1267913E+00
          2   -1    0    0  502    0  0.00000000000E+00  0.00000000000E+00  0.25600088151E+04  0.25600088151E+04  0.00000000000E+00 0. -1.
          1   -1    0    0  501    0 -0.00000000000E+00 -0.00000000000E+00 -0.26683528153E+04  0.26683528153E+04  0.00000000000E+00 0. -1.
         25    2    1    2    0    0  0.21410293225E+03 -0.10483219790E+03 -0.27352305276E+03  0.38375760750E+03  0.12500074242E+03 0.  0.
          2    1    1    2  501    0 -0.16541064584E+03  0.66486962985E+02 -0.23359321835E+04  0.23427249868E+04  0.00000000000E+00 0. -1.
          1    1    1    2  502    0 -0.48692286406E+02  0.38345234913E+02  0.25011112360E+04  0.25018790360E+04  0.00000000000E+00 0. -1.
         22    1    3    3    0    0  0.18647903316E+03 -0.98340383889E+02 -0.28383628199E+03  0.35356512256E+03  0.00000000000E+00 0. -1.
         22    1    3    3    0    0  0.27623899085E+02 -0.64918140091E+01  0.10313229230E+02  0.30192484942E+02  0.00000000000E+00 0. -1.
</event>
<event>
 7    1  0.6358809E-006  0.1086467E+03  0.7818608E-02  0.1340467E+00
          2   -1    0    0  502    0  0.00000000000E+00  0.00000000000E+00  0.15417339398E+04  0.15417339398E+04  0.00000000000E+00 0. -1.
          1   -1    0    0  501    0 -0.00000000000E+00 -0.00000000000E+00 -0.10743872491E+03  0.10743872491E+03  0.00000000000E+00 0. -1.
         25    2    1    2    0    0  0.40135861123E+02 -0.76960083952E+02  0.10276077470E+04  0.10388152346E+04  0.12500267218E+03 0.  0.
          2    1    1    2  501    0 -0.91015742163E+02  0.61023554639E+02 -0.70435460271E+02  0.13026470591E+03  0.00000000000E+00 0. -1.
          1    1    1    2  502    0  0.50879881039E+02  0.15936529314E+02  0.47712292817E+03  0.48009272422E+03  0.00000000000E+00 0. -1.
         22    1    3    3    0    0  0.78031652229E+02 -0.62014490563E+02  0.88207705324E+03  0.88769063510E+03  0.00000000000E+00 0.  1.
         22    1    3    3    0    0 -0.37895791106E+02 -0.14945593389E+02  0.14553069378E+03  0.15112459951E+03  0.00000000000E+00 0.  1.
</event>
<event>
 7    1  0.6358809E-006  0.6126350E+02  0.7818608E-02  0.1496537E+00
          2   -1    0    0  502    0  0.00000000000E+00  0.00000000000E+00  0.33322450533E+03  0.33322450533E+03  0.00000000000E+00 0. -1.
          1   -1    0    0  501    0 -0.00000000000E+00 -0.00000000000E+00 -0.10488467377E+04  0.10488467377E+04  0.00000000000E+00 0. -1.
         25    2    1    2    0    0 -0.12605383501E+02  0.67485306484E+02  0.15144596352E+03  0.20802458661E+03  0.12500074593E+03 0.  0.
          2    1    1    2  501    0  0.35037495782E+02 -0.50246916367E+02 -0.10183255688E+04  0.10201663309E+04  0.00000000000E+00 0. -1.
          1    1    1    2  502    0 -0.22432112281E+02 -0.17238390117E+02  0.15125737284E+03  0.15388032556E+03  0.00000000000E+00 0. -1.
         22    1    3    3    0    0 -0.27596000900E+02  0.81256393767E+02  0.39900827476E+02  0.94637290890E+02  0.00000000000E+00 0. -1.
         22    1    3    3    0    0  0.14990617400E+02 -0.13771087283E+02  0.11154513605E+03  0.11338729572E+03  0.00000000000E+00 0. -1.
</event>
<event>
 7    1  0.1072821E-005  0.7157820E+02  0.7818608E-02  0.1456200E+00
          2   -1    0    0  502    0  0.00000000000E+00  0.00000000000E+00  0.18412519289E+04  0.18412519289E+04  0.00000000000E+00 0. -1.
          1   -1    0    0  501    0 -0.00000000000E+00 -0.00000000000E+00 -0.29210857441E+04  0.29210857441E+04  0.00000000000E+00 0. -1.
         25    2    1    2    0    0  0.16322682229E+02  0.47449818199E+02 -0.58532718958E+03  0.60062484213E+03  0.12499746767E+03 0.  0.
          2    1    1    2  501    0  0.31750440019E+02  0.56228722618E+01 -0.23272988712E+04  0.23275222326E+04  0.00000000000E+00 0. -1.
          1    1    1    2  502    0 -0.48073122249E+02 -0.53072690461E+02  0.18327922455E+04  0.18341905983E+04  0.00000000000E+00 0. -1.
         22    1    3    3    0    0 -0.19371824905E+02  0.27636466927E+02 -0.53388958647E+03  0.53495526210E+03  0.00000000000E+00 0.  1.
         22    1    3    3    0    0  0.35694507135E+02  0.19813351272E+02 -0.51437603106E+02  0.65669580031E+02  0.00000000000E+00 0.  1.
</event>
<event>
 7    1  0.6358809E-006  0.5661919E+02  0.7818608E-02  0.1473799E+00
          2   -1    0    0  502    0  0.00000000000E+00  0.00000000000E+00  0.89494720546E+03  0.89494720546E+03  0.00000000000E+00 0. -1.
          1   -1    0    0  501    0 -0.00000000000E+00 -0.00000000000E+00 -0.64780926250E+03  0.64780926250E+03  0.00000000000E+00 0. -1.
         25    2    1    2    0    0  0.22397104618E+02  0.38059933977E+00  0.50299711328E+03  0.51877640574E+03  0.12498435119E+03 0.  0.
          2    1    1    2  501    0 -0.54476479503E+02  0.15743863135E+02 -0.63781985401E+03  0.64033563248E+03  0.00000000000E+00 0. -1.
          1    1    1    2  502    0  0.32079374884E+02 -0.16124462475E+02  0.38196068370E+03  0.38364442974E+03  0.00000000000E+00 0. -1.
         22    1    3    3    0    0  0.24104193867E+02 -0.43777981654E+02  0.43381872486E+03  0.43668777162E+03  0.00000000000E+00 0. -1.
         22    1    3    3    0    0 -0.17070892482E+01  0.44158580994E+02  0.69178388412E+02  0.82088634125E+02  0.00000000000E+00 0. -1.
</event>
<event>
 7    1  0.6358809E-006  0.7011290E+02  0.7818608E-02  0.1378563E+00
          2   -1    0    0  502    0  0.00000000000E+00  0.00000000000E+00  0.42471296567E+03  0.42471296567E+03  0.00000000000E+00 0. -1.
          1   -1    0    0  501    0 -0.00000000000E+00 -0.00000000000E+00 -0.71717131180E+03  0.71717131180E+03  0.00000000000E+00 0. -1.
         25    2    1    2    0    0 -0.71755247381E+02  0.67614946672E+02 -0.11287029963E+03  0.19515446193E+03  0.12499985172E+03 0.  0.
          2    1    1    2  501    0  0.69164123583E+02 -0.77018209537E+01 -0.55864274483E+03  0.56296066504E+03  0.00000000000E+00 0. -1.
          1    1    1    2  502    0  0.25911237980E+01 -0.59913125718E+02  0.37905469833E+03  0.38376915050E+03  0.00000000000E+00 0. -1.
         22    1    3    3    0    0 -0.85558715903E+02  0.99206532156E+01 -0.26017504522E+02  0.89975684319E+02  0.00000000000E+00 0. -1.
         22    1    3    3    0    0  0.13803468522E+02  0.57694293456E+02 -0.86852795110E+02  0.10517877761E+03  0.00000000000E+00 0. -1.
</event>
<event>
 7    1  0.6358809E-006  0.7361022E+02  0.7818608E-02  0.1403853E+00
          2   -1    0    0  502    0  0.00000000000E+00  0.00000000000E+00  0.71368836809E+03  0.71368836809E+03  0.00000000000E+00 0. -1.
          1   -1    0    0  501    0 -0.00000000000E+00 -0.00000000000E+00 -0.22685823330E+04  0.22685823330E+04  0.00000000000E+00 0. -1.
         25    2    1    2    0    0 -0.81234049072E+01  0.26137882839E+02 -0.30819332264E+03  0.33370208404E+03  0.12499911259E+03 0.  0.
          2    1    1    2  501    0 -0.18812315107E+02  0.42669050731E+02 -0.19454070708E+04  0.19459658841E+04  0.00000000000E+00 0. -1.
          1    1    1    2  502    0  0.26935720015E+02 -0.68806933569E+02  0.69870642850E+03  0.70260273295E+03  0.00000000000E+00 0. -1.
         22    1    3    3    0    0 -0.64996257676E+02  0.28364880879E+02 -0.17836423080E+03  0.19194498902E+03  0.00000000000E+00 0. -1.
         22    1    3    3    0    0  0.56872852769E+02 -0.22269980397E+01 -0.12982909184E+03  0.14175709502E+03  0.00000000000E+00 0. -1.
</event>
<event>
 7    1  0.6358809E-006  0.1691490E+03  0.7818608E-02  0.1240071E+00
          2   -1    0    0  502    0  0.00000000000E+00  0.00000000000E+00  0.53838464708E+03  0.53838464708E+03  0.00000000000E+00 0. -1.
          1   -1    0    0  501    0 -0.00000000000E+00 -0.00000000000E+00 -0.11648586265E+04  0.11648586265E+04  0.00000000000E+00 0. -1.
         25    2    1    2    0    0 -0.87098846247E+02 -0.93803920418E+02 -0.43399270276E+03  0.46942438902E+03  0.12499682575E+03 0.  0.
          2    1    1    2  501    0  0.98928865091E+02  0.18078464326E+03 -0.69437258786E+03  0.72430884183E+03  0.00000000000E+00 0. -1.
          1    1    1    2  502    0 -0.11830018844E+02 -0.86980722837E+02  0.50189131115E+03  0.50951004278E+03  0.00000000000E+00 0. -1.
         22    1    3    3    0    0  0.18223367775E+02 -0.16024563103E+02 -0.11021530144E+02  0.26652427327E+02  0.00000000000E+00 0.  1.
         22    1    3    3    0    0 -0.10532221402E+03 -0.77779357315E+02 -0.42297117262E+03  0.44277196169E+03  0.00000000000E+00 0.  1.
</event>
<event>
 7    1  0.6358809E-006  0.8412119E+02  0.7818608E-02  0.1333892E+00
          2   -1    0    0  502    0  0.00000000000E+00  0.00000000000E+00  0.96061769059E+03  0.96061769059E+03  0.00000000000E+00 0. -1.
          1   -1    0    0  501    0 -0.00000000000E+00 -0.00000000000E+00 -0.18203033998E+04  0.18203033998E+04  0.00000000000E+00 0. -1.
         25    2    1    2    0    0  0.30763661766E+02  0.51524070923E+02 -0.62023801901E+02  0.15190039120E+03  0.12500257627E+03 0.  0.
          2    1    1    2  501    0 -0.68619666350E+02  0.24660338353E+02 -0.17105870428E+04  0.17121404212E+04  0.00000000000E+00 0. -1.
          1    1    1    2  502    0  0.37856004583E+02 -0.76184409276E+02  0.91292513545E+03  0.91688027803E+03  0.00000000000E+00 0. -1.
         22    1    3    3    0    0  0.17222225213E+02  0.79963809790E+02  0.60150419464E+00  0.81799619343E+02  0.00000000000E+00 0. -1.
         22    1    3    3    0    0  0.13541436553E+02 -0.28439738867E+02 -0.62625306095E+02  0.70100771852E+02  0.00000000000E+00 0. -1.
</event>
<event>
 7    1  0.6358809E-006  0.3723365E+02  0.7818608E-02  0.1536206E+00
          2   -1    0    0  502    0  0.00000000000E+00  0.00000000000E+00  0.64561426754E+03  0.64561426754E+03  0.00000000000E+00 0. -1.
          1   -1    0    0  501    0 -0.00000000000E+00 -0.00000000000E+00 -0.15778549306E+04  0.15778549306E+04  0.00000000000E+00 0. -1.
         25    2    1    2    0    0 -0.40841373009E+02 -0.17519023057E+02 -0.55308340024E+03  0.56878170165E+03  0.12504576197E+03 0.  0.
          2    1    1    2  501    0  0.10429108476E+02  0.36130913072E+02 -0.10160759232E+04  0.10167716022E+04  0.00000000000E+00 0. -1.
          1    1    1    2  502    0  0.30412264533E+02 -0.18611890015E+02  0.63691866040E+03  0.63791589434E+03  0.00000000000E+00 0. -1.
         22    1    3    3    0    0  0.27097674095E+02 -0.49464468212E+02 -0.27627414244E+03  0.28197237336E+03  0.00000000000E+00 0. -1.
         22    1    3    3    0    0 -0.67939047104E+02  0.31945445155E+02 -0.27680925781E+03  0.28680932829E+03  0.00000000000E+00 0. -1.
</event>
<event>
 7    1  0.6358809E-006  0.1511777E+03  0.7818608E-02  0.1374864E+00
          2   -1    0    0  502    0  0.00000000000E+00  0.00000000000E+00  0.11384216763E+03  0.11384216763E+03  0.00000000000E+00 0. -1.
          1   -1    0    0  501    0 -0.00000000000E+00 -0.00000000000E+00 -0.85567552141E+03  0.85567552141E+03  0.00000000000E+00 0. -1.
         25    2    1    2    0    0 -0.69620007868E+02 -0.15217479712E+03 -0.37255868964E+03  0.42711776332E+03  0.12500196859E+03 0.  0.
          2    1    1    2  501    0  0.45020244840E+02  0.13745312183E+03 -0.44155558368E+03  0.46464127736E+03  0.00000000000E+00 0. -1.
          1    1    1    2  502    0  0.24599763028E+02  0.14721675284E+02  0.72280919545E+02  0.77758648358E+02  0.00000000000E+00 0. -1.
         22    1    3    3    0    0 -0.70701676049E+02 -0.16660546194E+02 -0.14729327363E+03  0.16423035423E+03  0.00000000000E+00 0. -1.
         22    1    3    3    0    0  0.10816681807E+01 -0.13551425092E+03 -0.22526541601E+03  0.26288740909E+03  0.00000000000E+00 0. -1.
</event>
<event>
 7    1  0.6358809E-006  0.6800360E+02  0.7818608E-02  0.1439539E+00
          2   -1    0    0  502    0  0.00000000000E+00  0.00000000000E+00  0.54418277736E+02  0.54418277736E+02  0.00000000000E+00 0. -1.
          1   -1    0    0  501    0 -0.00000000000E+00 -0.00000000000E+00 -0.90834244015E+03  0.90834244015E+03  0.00000000000E+00 0. -1.
         25    2    1    2    0    0 -0.80345257784E+02  0.33808188801E+02 -0.28920900299E+03  0.32690172680E+03  0.12499814999E+03 0.  0.
          2    1    1    2  501    0  0.45175309558E+02 -0.49188981413E+02 -0.58745749835E+03  0.59124163998E+03  0.00000000000E+00 0. -1.
          1    1    1    2  502    0  0.35169948225E+02  0.15380792612E+02  0.22742338920E+02  0.44617351099E+02  0.00000000000E+00 0. -1.
         22    1    3    3    0    0 -0.95655759298E+02  0.40638453517E+02 -0.12826126697E+03  0.16508319356E+03  0.00000000000E+00 0.  1.
         22    1    3    3    0    0  0.15310501515E+02 -0.68302647163E+01 -0.16094773601E+03  0.16181853324E+03  0.00000000000E+00 0.  1.
</event>
<event>
 7    1  0.6358809E-006  0.3907093E+02  0.7818608E-02  0.1522393E+00
          2   -1    0    0  502    0  0.00000000000E+00  0.00000000000E+00  0.69931102798E+03  0.69931102798E+03  0.00000000000E+00 0. -1.
          1   -1    0    0  501    0 -0.00000000000E+00 -0.00000000000E+00 -0.81568607037E+02  0.81568607037E+02  0.00000000000E+00 0. -1.
         25    2    1    2    0    0  0.13844806528E+01 -0.10820147751E+02  0.23370365758E+03  0.26525647728E+03  0.12499842714E+03 0.  0.
          2    1    1    2  501    0 -0.39070664422E+02  0.14361770608E+00 -0.59050446551E+02  0.70806021512E+02  0.00000000000E+00 0. -1.
          1    1    1    2  502    0  0.37686183769E+02  0.10676530045E+02  0.44308920991E+03  0.44481713622E+03  0.00000000000E+00 0. -1.
         22    1    3    3    0    0  0.49043710981E+01  0.38773169853E+02  0.16478167429E+02  0.42413931180E+02  0.00000000000E+00 0. -1.
         22    1    3    3    0    0 -0.35198904454E+01 -0.49593317604E+02  0.21722549016E+03  0.22284254610E+03  0.00000000000E+00 0. -1.
</event>
<event>
 7    1  0.6358809E-006  0.4320098E+02  0.7818608E-02  0.1552087E+00
          2   -1    0    0  502    0  0.00000000000E+00  0.00000000000E+00  0.26231830650E+04  0.26231830650E+04  0.00000000000E+00 0. -1.
          1   -1    0    0  501    0 -0.00000000000E+00 -0.00000000000E+00 -0.97894909160E+02  0.97894909160E+02  0.00000000000E+00 0. -1.
         25    2    1    2    0    0  0.14256056046E+02 -0.46885739412E+02  0.64507145832E+03  0.65889570179E+03  0.12499940721E+03 0.  0.
          2    1    1    2  501    0  0.19464114332E+02  0.19748397875E+02 -0.88626759374E+02  0.92863089774E+02  0.00000000000E+00 0. -1.
          1    1    1    2  502    0 -0.33720170378E+02  0.27137341537E+02  0.19688434569E+04  0.19693191826E+04  0.00000000000E+00 0. -1.
         22    1    3    3    0    0  0.19957350181E+02  0.20215846672E+02  0.34811465290E+02  0.44931218530E+02  0.00000000000E+00 0. -1.
         22    1    3    3    0    0 -0.57012941350E+01 -0.67101586084E+02  0.61025999303E+03  0.61396448326E+03  0.00000000000E+00 0. -1.
</event>
<event>
 7    1  0.6358809E-006  0.1370291E+03  0.7818608E-02  0.1262901E+00
          2   -1    0    0  502    0  0.00000000000E+00  0.00000000000E+00  0.84083683209E+03  0.84083683209E+03  0.00000000000E+00 0. -1.
          1   -1    0    0  501    0 -0.00000000000E+00 -0.00000000000E+00 -0.84938308447E+03  0.84938308447E+03  0.00000000000E+00 0. -1.
         25    2    1    2    0    0 -0.98178782206E+02 -0.48416232242E+02 -0.24358591804E+03  0.29485979042E+03  0.12499996686E+03 0.  0.
          2    1    1    2  501    0 -0.36741236918E+02  0.78097027674E+02 -0.57104143266E+03  0.57752695352E+03  0.00000000000E+00 0. -1.
          1    1    1    2  502    0  0.13492001912E+03 -0.29680795431E+02  0.80608109832E+03  0.81783317262E+03  0.00000000000E+00 0. -1.
         22    1    3    3    0    0 -0.98176415539E+02 -0.21039954918E+02 -0.78313469191E+02  0.12733533574E+03  0.00000000000E+00 0.  1.
         22    1    3    3    0    0 -0.23666677342E-02 -0.27376277324E+02 -0.16527244885E+03  0.16752445468E+03  0.00000000000E+00 0.  1.
</event>
<event>
 7    1  0.6358809E-006  0.9945058E+02  0.7818608E-02  0.1418274E+00
          2   -1    0    0  502    0  0.00000000000E+00  0.00000000000E+00  0.11466371903E+04  0.11466371903E+04  0.00000000000E+00 0. -1.
          1   -1    0    0  501    0 -0.00000000000E+00 -0.00000000000E+00 -0.32240066503E+03  0.32240066503E+03  0.00000000000E+00 0. -1.
         25    2    1    2    0    0 -0.10292516812E+03  0.17883623632E+02  0.68101272687E+02  0.17656828160E+03  0.12500064199E+03 0.  0.
          2    1    1    2  501    0  0.14360120700E+02  0.27301140950E+02 -0.26485716570E+03  0.26664748937E+03  0.00000000000E+00 0. -1.
          1    1    1    2  502    0  0.88565047416E+02 -0.45184764582E+02  0.10209924182E+04  0.10258220843E+04  0.00000000000E+00 0. -1.
         22    1    3    3    0    0  0.28582774148E+02 -0.32158113454E+01  0.19672639968E+02  0.34847226345E+02  0.00000000000E+00 0. -1.
         22    1    3    3    0    0 -0.13150794226E+03  0.21099434977E+02  0.48428632719E+02  0.14172105525E+03  0.00000000000E+00 0. -1.
</event>
<event>
 7    1  0.6358809E-006  0.1290142E+03  0.7818608E-02  0.1260482E+00
          2   -1    0    0  502    0  0.00000000000E+00  0.00000000000E+00  0.10532940716E+04  0.10532940716E+04  0.00000000000E+00 0. -1.
          1   -1    0    0  501    0 -0.00000000000E+00 -0.00000000000E+00 -0.26671529121E+03  0.26671529121E+03  0.00000000000E+00 0. -1.
         25    2    1    2    0    0 -0.15853990533E+03 -0.83280006876E+02  0.28520467936E+03  0.35921768164E+03  0.12500069020E+03 0.  0.
          2    1    1    2  501    0  0.67946361996E+02  0.10786149940E+03 -0.20869251084E+03  0.24454728631E+03  0.00000000000E+00 0. -1.
          1    1    1    2  502    0  0.90593543333E+02 -0.24581492522E+02  0.71006661186E+03  0.71624439485E+03  0.00000000000E+00 0. -1.
         22    1    3    3    0    0 -0.15180458978E+03 -0.50397284150E+02  0.28362040560E+03  0.32561488633E+03  0.00000000000E+00 0. -1.
         22    1    3    3    0    0 -0.67353155471E+01 -0.32882722726E+02  0.15842737577E+01  0.33602795311E+02  0.00000000000E+00 0. -1.
</event>
<event>
 7    1  0.6358809E-006  0.4710584E+02  0.7818608E-02  0.1466516E+00
          2   -1    0    0  502    0  0.00000000000E+00  0.00000000000E+00  0.17682024688E+04  0.17682024688E+04  0.00000000000E+00 0. -1.
          1   -1    0    0  501    0 -0.00000000000E+00 -0.00000000000E+00 -0.81625436721E+02  0.81625436721E+02  0.00000000000E+00 0. -1.
         25    2    1    2    0    0  0.37504527514E+01 -0.73316212544E+01  0.43124693779E+03  0.44907348886E+03  0.12500103391E+03 0.  0.
          2    1    1    2  501    0 -0.42519249091E+02 -0.20274957494E+02 -0.64608747208E+02  0.79957805500E+02  0.00000000000E+00 0. -1.
          1    1    1    2  502    0  0.38768796339E+02  0.27606578748E+02  0.13199388415E+04  0.13207966112E+04  0.00000000000E+00 0. -1.
         22    1    3    3    0    0  0.83192043752E+01  0.56832313089E+02  0.15141656887E+03  0.16194473842E+03  0.00000000000E+00 0. -1.
         22    1    3    3    0    0 -0.45687516238E+01 -0.64163934343E+02  0.27983036891E+03  0.28712875044E+03  0.00000000000E+00 0. -1.
</event>
<event>
 7    1  0.6358809E-006  0.9976195E+02  0.7818608E-02  0.1297246E+00
          2   -1    0    0  502    0  0.00000000000E+00  0.00000000000E+00  0.20663112265E+04  0.20663112265E+04  0.00000000000E+00 0. -1.
          1   -1    0    0  501    0 -0.00000000000E+00 -0.00000000000E+00 -0.11749039381E+04  0.11749039381E+04  0.00000000000E+00 0. -1.
         25    2    1    2    0    0 -0.41807199369E+01  0.18570005362E+02  0.10272137391E+03  0.16290176884E+03  0.12499192820E+03 0.  0.
          2    1    1    2  501    0 -0.47092678290E+02  0.71360680230E+02 -0.11418286803E+04  0.11450252409E+04  0.00000000000E+00 0. -1.
          1    1    1    2  502    0  0.51273398227E+02 -0.89930685592E+02  0.19305145947E+04  0.19332881549E+04  0.00000000000E+00 0. -1.
         22    1    3    3    0    0 -0.37149352275E+01 -0.46643066290E+02  0.73487571596E+01  0.47364338995E+02  0.00000000000E+00 0.  1.
         22    1    3    3    0    0 -0.46578470944E+00  0.65213071652E+02  0.95372616754E+02  0.11553742985E+03  0.00000000000E+00 0.  1.
</event>
<event>
 7    1  0.6358809E-006  0.5281920E+02  0.7818608E-02  0.1440707E+00
          2   -1    0    0  502    0  0.00000000000E+00  0.00000000000E+00  0.56271996010E+03  0.56271996010E+03  0.00000000000E+00 0. -1.
          1   -1    0    0  501    0 -0.00000000000E+00 -0.00000000000E+00 -0.93263582890E+02  0.93263582890E+02  0.00000000000E+00 0. -1.
         25    2    1    2    0    0 -0.49968051639E+02  0.82307246607E+02  0.28998381860E+03  0.33013360078E+03  0.12500516104E+03 0.  0.
          2    1    1    2  501    0  0.13239235148E+02 -0.49884839549E+02 -0.61305435171E+02  0.80138199042E+02  0.00000000000E+00 0. -1.
          1    1    1    2  502    0  0.36728816491E+02 -0.32422407058E+02  0.24077799379E+03  0.24571174317E+03  0.00000000000E+00 0. -1.
         22    1    3    3    0    0  0.39516040799E+02  0.45675330586E+02  0.12691692064E+03  0.14055482222E+03  0.00000000000E+00 0.  1.
         22    1    3    3    0    0 -0.89484092438E+02  0.36631916021E+02  0.16306689796E+03  0.18957877856E+03  0.00000000000E+00 0.  1.
</event>
<event>
 7    1  0.6358809E-006  0.8776558E+02  0.7818608E-02  0.1361401E+00
          2   -1    0    0  502    0  0.00000000000E+00  0.00000000000E+00  0.10523007471E+04  0.10523007471E+04  0.00000000000E+00 0. -1.
          1   -1    0    0  501    0 -0.00000000000E+00 -0.00000000000E+00 -0.77483352521E+02  0.77483352521E+02  0.00000000000E+00 0. -1.
         25    2    1    2    0    0  0.46181084791E+02 -0.75868567145E+01  0.14278054001E+03  0.19544799993E+03  0.12499354016E+03 0.  0.
          2    1    1    2  501    0 -0.10000347413E+03 -0.47616203525E+01 -0.35218914949E+00  0.10011739061E+03  0.00000000000E+00 0. -1.
          1    1    1    2  502    0  0.53822389338E+02  0.12348477067E+02  0.83238904370E+03  0.83421870906E+03  0.00000000000E+00 0. -1.
         22    1    3    3    0    0  0.40151642354E+02  0.49108263387E+02  0.32438397811E+02  0.71246231965E+02  0.00000000000E+00 0. -1.
         22    1    3    3    0    0  0.60294424365E+01 -0.56695120102E+02  0.11034214220E+03  0.12420176796E+03  0.00000000000E+00 0. -1.
</event>
<event>
 7    1  0.6358809E-006  0.1059448E+03  0.7818608E-02  0.1343601E+00
          2   -1    0    0  502    0  0.00000000000E+00  0.00000000000E+00  0.15966261818E+04  0.15966261818E+04  0.00000000000E+00 0. -1.
          1   -1    0    0  501    0 -0.00000000000E+00 -0.00000000000E+00 -0.46319847242E+03  0.46319847242E+03  0.00000000000E+00 0. -1.
         25    2    1    2    0    0  0.95679580652E+02  0.10029796940E+03  0.39759975714E+03  0.43923176619E+03  0.12499885093E+03 0.  0.
          2    1    1    2  501    0 -0.52818566454E+02 -0.65042866445E+01 -0.43851422433E+03  0.44173162853E+03  0.00000000000E+00 0. -1.
          1    1    1    2  502    0 -0.42861014198E+02 -0.93793682758E+02  0.11743421765E+04  0.11788612595E+04  0.00000000000E+00 0. -1.
         22    1    3    3    0    0  0.97971639419E+02  0.36951037729E+02  0.33152654232E+03  0.34766890799E+03  0.00000000000E+00 0.  1.
         22    1    3    3    0    0 -0.22920587669E+01  0.63346931673E+02  0.66073214823E+02  0.91562858206E+02  0.00000000000E+00 0.  1.
</event>
<event>
 7    1  0.6358809E-006  0.8469128E+02  0.7818608E-02  0.1316683E+00
          2   -1    0    0  502    0  0.00000000000E+00  0.00000000000E+00  0.70041685632E+03  0.70041685632E+03  0.00000000000E+00 0. -1.
          1   -1    0    0  501    0 -0.00000000000E+00 -0.00000000000E+00 -0.58811901664E+03  0.58811901664E+03  0.00000000000E+00 0. -1.
         25    2    1    2    0    0 -0.26151659305E+02 -0.74427742770E+02 -0.16620996856E+02  0.14873613316E+03  0.12499112605E+03 0.  0.
          2    1    1    2  501    0  0.85962557865E+02  0.14941592794E+02 -0.49883265791E+03  0.50640579889E+03  0.00000000000E+00 0. -1.
          1    1    1    2  502    0 -0.59810898559E+02  0.59486149976E+02  0.62775149443E+03  0.63339394092E+03  0.00000000000E+00 0. -1.
         22    1    3    3    0    0 -0.63066802723E+02 -0.39513024122E+02  0.29556381268E+02  0.80076715434E+02  0.00000000000E+00 0.  1.
         22    1    3    3    0    0  0.36915143418E+02 -0.34914718648E+02 -0.46177378124E+02  0.68659417724E+02  0.00000000000E+00 0.  1.
</event>
<event>
 7    1  0.6358809E-006  0.1488061E+03  0.7818608E-02  0.1269707E+00
          2   -1    0    0  502    0  0.00000000000E+00  0.00000000000E+00  0.34844330489E+02  0.34844330489E+02  0.00000000000E+00 0. -1.
          1   -1    0    0  501    0 -0.00000000000E+00 -0.00000000000E+00 -0.33067748585E+04  0.33067748585E+04  0.00000000000E+00 0. -1.
         25    2    1    2    0    0  0.89813674908E+02  0.10008120301E+03 -0.14232846609E+04  0.14350774515E+04  0.12500129000E+03 0.  0.
          2    1    1    2  501    0 -0.55797790899E+02  0.49191748006E+02 -0.16683711285E+04  0.16700285758E+04  0.00000000000E+00 0. -1.
          1    1    1    2  502    0 -0.34015884008E+02 -0.14927295102E+03 -0.18027473863E+03  0.23651316170E+03  0.00000000000E+00 0. -1.
         22    1    3    3    0    0  0.11574801016E+02  0.10177044692E+03 -0.67761583273E+03  0.68531337113E+03  0.00000000000E+00 0. -1.
         22    1    3    3    0    0  0.78238873891E+02 -0.16892439071E+01 -0.74566882814E+03  0.74976408036E+03  0.00000000000E+00 0. -1.
</event>
<event>
 7    1  0.6358809E-006  0.7161746E+02  0.7818608E-02  0.1390279E+00
          2   -1    0    0  502    0  0.00000000000E+00  0.00000000000E+00  0.77307964429E+03  0.77307964429E+03  0.00000000000E+00 0. -1.
          1   -1    0    0  501    0 -0.00000000000E+00 -0.00000000000E+00 -0.19135132689E+04  0.19135132689E+04  0.00000000000E+00 0. -1.
         25    2    1    2    0    0  0.13253599290E+02 -0.98392820451E+02  0.24013504784E+03  0.28835002610E+03  0.12499636532E+03 0.  0.
          2    1    1    2  501    0 -0.41117016544E+02  0.34061581350E+02 -0.18866115342E+04  0.18873669175E+04  0.00000000000E+00 0. -1.
          1    1    1    2  502    0  0.27863417254E+02  0.64331239101E+02  0.50604286175E+03  0.51087596956E+03  0.00000000000E+00 0. -1.
         22    1    3    3    0    0  0.27726107536E+01 -0.12579807815E+03  0.21756959126E+03  0.25133517637E+03  0.00000000000E+00 0. -1.
         22    1    3    3    0    0  0.10480988536E+02  0.27405257702E+02  0.22565456576E+02  0.37014849735E+02  0.00000000000E+00 0. -1.
</event>
<event>
 7    1  0.6358809E-006  0.8704346E+02  0.7818608E-02  0.1485524E+00
          2   -1    0    0  502    0  0.00000000000E+00  0.00000000000E+00  0.75314584791E+03  0.75314584791E+03  0.00000000000E+00 0. -1.
          1   -1    0    0  501    0 -0.00000000000E+00 -0.00000000000E+00 -0.59957355860E+03  0.59957355860E+03  0.00000000000E+00 0. -1.
         25    2    1    2    0    0 -0.46282065711E+02  0.96317952163E+02 -0.49946850200E+02  0.17187049711E+03  0.12500240965E+03 0.  0.
          2    1    1    2  501    0  0.33554489891E+02 -0.78993412936E+02 -0.48472740479E+03  0.49226671635E+03  0.00000000000E+00 0. -1.
          1    1    1    2  502    0  0.12727575820E+02 -0.17324539227E+02  0.68824654429E+03  0.68858219304E+03  0.00000000000E+00 0. -1.
         22    1    3    3    0    0  0.13151782583E+01 -0.29089827733E+02 -0.11776986962E+01  0.29143348223E+02  0.00000000000E+00 0. -1.
         22    1    3    3    0    0 -0.47597243969E+02  0.12540777990E+03 -0.48769151504E+02  0.14272714889E+03  0.00000000000E+00 0. -1.
</event>
<event>
 7    1  0.6358809E-006  0.6126307E+02  0.7818608E-02  0.1410451E+00
          2   -1    0    0  502    0  0.00000000000E+00  0.00000000000E+00  0.86429504404E+02  0.86429504404E+02  0.00000000000E+00 0. -1.
          1   -1    0    0  501    0 -0.00000000000E+00 -0.00000000000E+00 -0.45766349417E+03  0.45766349417E+03  0.00000000000E+00 0. -1.
         25    2    1    2    0    0  0.15413189809E+02  0.20416109197E+02 -0.14012382595E+03  0.18951026577E+03  0.12500028120E+03 0.  0.
          2    1    1    2  501    0 -0.29429739317E+02  0.44327147121E+02 -0.27172144860E+03  0.27688183609E+03  0.00000000000E+00 0. -1.
          1    1    1    2  502    0  0.14016549507E+02 -0.64743256318E+02  0.40611284780E+02  0.77700896715E+02  0.00000000000E+00 0. -1.
         22    1    3    3    0    0  0.25156119641E+02  0.52605925536E+02 -0.14428434830E+03  0.15562193586E+03  0.00000000000E+00 0.  1.
         22    1    3    3    0    0 -0.97429298316E+01 -0.32189816339E+02  0.41605223528E+01  0.33888329907E+02  0.00000000000E+00 0.  1.
</event>
<event>
 7    1  0.6358809E-006  0.4689497E+02  0.7818608E-02  0.1556545E+00
          2   -1    0    0  502    0  0.00000000000E+00  0.00000000000E+00  0.41702428995E+02  0.41702428995E+02  0.00000000000E+00 0. -1.
          1   -1    0    0  501    0 -0.00000000000E+00 -0.00000000000E+00 -0.13586325924E+04  0.13586325924E+04  0.00000000000E+00 0. -1.
         25    2    1    2    0    0 -0.63301319981E+01  0.54197686926E+02 -0.11035118736E+03  0.17544100645E+03  0.12499880940E+03 0.  0.
          2    1    1    2  501    0  0.25973165001E+02 -0.39014499816E+02 -0.11975642669E+04  0.11984810844E+04  0.00000000000E+00 0. -1.
          1    1    1    2  502    0 -0.19643033003E+02 -0.15183187110E+02 -0.90147091788E+01  0.26412930507E+02  0.00000000000E+00 0. -1.
         22    1    3    3    0    0 -0.21629368581E+02  0.88102593437E+02 -0.10347887785E+03  0.13761458759E+03  0.00000000000E+00 0. -1.
         22    1    3    3    0    0  0.15299236583E+02 -0.33904906511E+02 -0.68723095088E+01  0.37826418857E+02  0.00000000000E+00 0. -1.
</event>
<event>
 7    1  0.6358809E-006  0.7033584E+02  0.7818608E-02  0.1395626E+00
          2   -1    0    0  502    0  0.00000000000E+00  0.00000000000E+00  0.46320910624E+03  0.46320910624E+03  0.00000000000E+00 0. -1.
          1   -1    0    0  501    0 -0.00000000000E+00 -0.00000000000E+00 -0.17942420582E+03  0.17942420582E+03  0.00000000000E+00 0. -1.
         25    2    1    2    0    0  0.10728534709E+03  0.31994894562E+02  0.24815922319E+02  0.16963712141E+03  0.12500841565E+03 0.  0.
          2    1    1    2  501    0 -0.55385494157E+02 -0.36431979300E+02 -0.94652300285E+02  0.11555907592E+03  0.00000000000E+00 0. -1.
          1    1    1    2  502    0 -0.51899852928E+02  0.44370847381E+01  0.35362127839E+03  0.35743711473E+03  0.00000000000E+00 0. -1.
         22    1    3    3    0    0  0.86274314116E+01  0.58781144094E+02  0.31395119413E+02  0.67196048967E+02  0.00000000000E+00 0.  1.
         22    1    3    3    0    0  0.98657915674E+02 -0.26786249532E+02 -0.65791970939E+01  0.10244107244E+03  0.00000000000E+00 0.  1.
</event>
<event>
 7    1  0.6358809E-006  0.1663463E+03  0.7818608E-02  0.1304534E+00
          2   -1    0    0  502    0  0.00000000000E+00  0.00000000000E+00  0.13774917144E+04  0.13774917144E+04  0.00000000000E+00 0. -1.
          1   -1    0    0  501    0 -0.00000000000E+00 -0.00000000000E+00 -0.36821568987E+03  0.36821568987E+03  0.00000000000E+00 0. -1.
         25    2    1    2    0    0 -0.71167452596E+02 -0.13332121949E+03  0.32033633818E+03  0.37560250743E+03  0.12499008022E+03 0.  0.
          2    1    1    2  501    0  0.33804888696E+02 -0.34004442450E+02 -0.33170910727E+03  0.33515668642E+03  0.00000000000E+00 0. -1.
          1    1    1    2  502    0  0.37362563900E+02  0.16732566194E+03  0.10206487936E+04  0.10349482104E+04  0.00000000000E+00 0. -1.
         22    1    3    3    0    0  0.32682823491E+02 -0.60091810876E+02  0.97946852521E+02  0.11946873484E+03  0.00000000000E+00 0.  1.
         22    1    3    3    0    0 -0.10385027609E+03 -0.73229408619E+02  0.22238948566E+03  0.25613377259E+03  0.00000000000E+00 0.  1.
</event>
<event>
 7    1  0.6358809E-006  0.1324736E+03  0.7818608E-02  0.1373674E+00
          2   -1    0    0  502    0  0.00000000000E+00  0.00000000000E+00  0.80528784049E+03  0.80528784049E+03  0.00000000000E+00 0. -1.
          1   -1    0    0  501    0 -0.00000000000E+00 -0.00000000000E+00 -0.31043327128E+03  0.31043327128E+03  0.00000000000E+00 0. -1.
         25    2    1    2    0    0 -0.32513629775E+02  0.13935307560E+03 -0.34738004841E+02  0.19315931963E+03  0.12500951154E+03 0.  0.
          2    1    1    2  501    0  0.57012733737E+02 -0.11718779844E+03 -0.17444543523E+03  0.21774903394E+03  0.00000000000E+00 0. -1.
          1    1    1    2  502    0 -0.24499103962E+02 -0.22165277169E+02  0.70403800929E+03  0.70481275821E+03  0.00000000000E+00 0. -1.
         22    1    3    3    0    0 -0.44425543406E+02  0.97353832105E+02  0.33516905975E+02  0.11213732884E+03  0.00000000000E+00 0.  1.
         22    1    3    3    0    0  0.11911913631E+02  0.41999243499E+02 -0.68254910816E+02  0.81021990789E+02  0.00000000000E+00 0.  1.
</event>
<event>
 7    1  0.6358809E-006  0.3482009E+02  0.7818608E-02  0.1578925E+00
          2   -1    0    0  502    0  0.00000000000E+00  0.00000000000E+00  0.21370101529E+04  0.21370101529E+04  0.00000000000E+00 0. -1.
          1   -1    0    0  501    0 -0.00000000000E+00 -0.00000000000E+00 -0.76154413232E+03  0.76154413232E+03  0.00000000000E+00 0. -1.
         25    2    1    2    0    0  0.11688886210E+01 -0.59791535496E+01 -0.55090025421E+03  0.56493723647E+03  0.12500349787E+03 0.  0.
          2    1    1    2  501    0 -0.47720163390E+01 -0.28661450673E+02 -0.20244570142E+03  0.20452020173E+03  0.00000000000E+00 0. -1.
          1    1    1    2  502    0  0.36031277180E+01  0.34640604223E+02  0.21288119762E+04  0.21290968470E+04  0.00000000000E+00 0. -1.
         22    1    3    3    0    0  0.40938695011E+02  0.10084957397E+02 -0.48156812597E+03  0.48341032577E+03  0.00000000000E+00 0. -1.
         22    1    3    3    0    0 -0.39769806390E+02 -0.16064110946E+02 -0.69332128241E+02  0.81526910693E+02  0.00000000000E+00 0. -1.
</event>
<event>
 7    1  0.6358809E-006  0.5409689E+02  0.7818608E-02  0.1457404E+00
          2   -1    0    0  502    0  0.00000000000E+00  0.00000000000E+00  0.17036380287E+04  0.17036380287E+04  0.00000000000E+00 0. -1.
          1   -1    0    0  501    0 -0.00000000000E+00 -0.00000000000E+00 -0.71175892154E+02  0.71175892154E+02  0.00000000000E+00 0. -1.
         25    2    1    2    0    0  0.54974106061E+02 -0.36689595953E+02  0.28783084125E+03  0.32068931742E+03  0.12500706517E+03 0.  0.
          2    1    1    2  501    0 -0.10797838030E+01  0.42277357245E+02 -0.45972230567E+02  0.62465885506E+02  0.00000000000E+00 0. -1.
          1    1    1    2  502    0 -0.53894322258E+02 -0.55877612924E+01  0.13906035259E+04  0.13916587180E+04  0.00000000000E+00 0. -1.
         22    1    3    3    0    0  0.65438692609E+02 -0.72560681593E+02  0.24547556293E+03  0.26420735607E+03  0.00000000000E+00 0.  1.
         22    1    3    3    0    0 -0.10464586548E+02  0.35871085640E+02  0.42355278320E+02  0.56481961352E+02  0.00000000000E+00 0.  1.
</event>
<event>
 7    1  0.6358809E-006  0.8194407E+02  0.7818608E-02  0.1356795E+00
          2   -1    0    0  502    0  0.00000000000E+00  0.00000000000E+00  0.11328232441E+04  0.11328232441E+04  0.00000000000E+00 0. -1.
          1   -1    0    0  501    0 -0.00000000000E+00 -0.00000000000E+00 -0.92712872171E+03  0.92712872171E+03  0.00000000000E+00 0. -1.
         25    2    1    2    0    0 -0.43315852197E+02  0.77141031213E+02  0.75419333760E+03  0.76958394291E+03  0.12499941180E+03 0.  0.
          2    1    1    2  501    0  0.77694185781E+02 -0.26169432046E+02 -0.91504051994E+03  0.91870581734E+03  0.00000000000E+00 0. -1.
          1    1    1    2  502    0 -0.34378333584E+02 -0.50971599167E+02  0.36654170472E+03  0.37166220556E+03  0.00000000000E+00 0. -1.
         22    1    3    3    0    0  0.42773163149E+02  0.30514522895E+02  0.33597956124E+03  0.34006314879E+03  0.00000000000E+00 0.  1.
         22    1    3    3    0    0 -0.86089015346E+02  0.46626508318E+02  0.41821377637E+03  0.42952079412E+03  0.00000000000E+00 0.  1.
</event>
<event>
 7    1  0.6358809E-006  0.6382278E+02  0.7818608E-02  0.1463427E+00
          2   -1    0    0  502    0  0.00000000000E+00  0.00000000000E+00  0.22842145158E+03  0.22842145158E+03  0.00000000000E+00 0. -1.
          1   -1    0    0  501    0 -0.00000000000E+00 -0.00000000000E+00 -0.44656224844E+03  0.44656224844E+03  0.00000000000E+00 0. -1.
         25    2    1    2    0    0  0.37799938816E+02  0.10785354152E+02  0.61151934764E+02  0.14460119161E+03  0.12499914500E+03 0.  0.
          2    1    1    2  501    0  0.32123291362E+02 -0.12060592706E+02 -0.39429506831E+03  0.39578525065E+03  0.00000000000E+00 0. -1.
          1    1    1    2  502    0 -0.69923230178E+02  0.12752385530E+01  0.11500233668E+03  0.13459725775E+03  0.00000000000E+00 0. -1.
         22    1    3    3    0    0 -0.31995554929E+02  0.42731452283E+02  0.33447366245E+02  0.62995387594E+02  0.00000000000E+00 0.  1.
         22    1    3    3    0    0  0.69795493745E+02 -0.31946098130E+02  0.27704568519E+02  0.81605804019E+02  0.00000000000E+00 0.  1.
</event>
<event>
 7    1  0.9978369E-006  0.1008421E+03  0.7818608E-02  0.1356203E+00
          2   -1    0    0  502    0  0.00000000000E+00  0.00000000000E+00  0.15345352431E+04  0.15345352431E+04  0.00000000000E+00 0. -1.
          1   -1    0    0  501    0 -0.00000000000E+00 -0.00000000000E+00 -0.73380980992E+03  0.73380980992E+03  0.00000000000E+00 0. -1.
         25    2    1    2    0    0  0.44210281834E+01  0.69027041189E+02 -0.36670270116E+02  0.14749170261E+03  0.12499926289E+03 0.  0.
          2    1    1    2  501    0  0.46540585562E+02  0.18842050031E+02 -0.63899890414E+03  0.64096852376E+03  0.00000000000E+00 0. -1.
          1    1    1    2  502    0 -0.50961613745E+02 -0.87869091221E+02  0.14763946074E+04  0.14798848266E+04  0.00000000000E+00 0. -1.
         22    1    3    3    0    0 -0.23731249101E+02  0.98317427109E+02 -0.17793185844E+02  0.10269413868E+03  0.00000000000E+00 0. -1.
         22    1    3    3    0    0  0.28152277284E+02 -0.29290385920E+02 -0.18877084273E+02  0.44797563932E+02  0.00000000000E+00 0. -1.
</event>
<event>
 7    1  0.6358809E-006  0.1572365E+03  0.7818608E-02  0.1243263E+00
          2   -1    0    0  502    0  0.00000000000E+00  0.00000000000E+00  0.78664076818E+03  0.78664076818E+03  0.00000000000E+00 0. -1.
          1   -1    0    0  501    0 -0.00000000000E+00 -0.00000000000E+00 -0.43326376895E+03  0.43326376895E+03  0.00000000000E+00 0. -1.
         25    2    1    2    0    0 -0.16793021694E+02  0.87131436991E+02 -0.13621721983E+03  0.20507045808E+03  0.12499947564E+03 0.  0.
          2    1    1    2  501    0  0.61312941704E+02  0.67822626372E+02 -0.24565434222E+03  0.26211684670E+03  0.00000000000E+00 0. -1.
          1    1    1    2  502    0 -0.44519920010E+02 -0.15495406336E+03  0.73524856127E+03  0.75271723236E+03  0.00000000000E+00 0. -1.
         22    1    3    3    0    0  0.69923208090E+01  0.10042208632E+03 -0.45721500115E+02  0.11056194437E+03  0.00000000000E+00 0. -1.
         22    1    3    3    0    0 -0.23785342503E+02 -0.13290649326E+02 -0.90495719711E+02  0.94508513709E+02  0.00000000000E+00 0. -1.
</event>
<event>
 7    1  0.6358809E-006  0.7531175E+02  0.7818608E-02  0.1366133E+00
          2   -1    0    0  502    0  0.00000000000E+00  0.00000000000E+00  0.18619266952E+04  0.18619266952E+04  0.00000000000E+00 0. -1.
          1   -1    0    0  501    0 -0.00000000000E+00 -0.00000000000E+00 -0.66006560307E+03  0.66006560307E+03  0.00000000000E+00 0. -1.
         25    2    1    2    0    0 -0.10032276287E+03 -0.74201396490E+02  0.27469613550E+03  0.32657772446E+03  0.12499815702E+03 0.  0.
          2    1    1    2  501    0  0.72589561180E+02  0.18909232859E+02 -0.63129076193E+03  0.63573172768E+03  0.00000000000E+00 0. -1.
          1    1    1    2  502    0  0.27733201693E+02  0.55292163632E+02  0.15584557185E+04  0.15596828461E+04  0.00000000000E+00 0. -1.
         22    1    3    3    0    0 -0.84837009829E+02 -0.10798889147E+03  0.23510523460E+03  0.27227447595E+03  0.00000000000E+00 0. -1.
         22    1    3    3    0    0 -0.15485753043E+02  0.33787494976E+02  0.39590900901E+02  0.54303248505E+02  0.00000000000E+00 0. -1.
</event>
<event>
 7    1  0.6358809E-006  0.1866070E+03  0.7818608E-02  0.1222182E+00
          2   -1    0    0  502    0  0.00000000000E+00  0.00000000000E+00  0.18214369143E+04  0.18214369143E+04  0.00000000000E+00 0. -1.
          1   -1    0    0  501    0 -0.00000000000E+00 -0.00000000000E+00 -0.71634346868E+02  0.71634346868E+02  0.00000000000E+00 0. -1.
         25    2    1    2    0    0  0.13104722246E+03  0.44275270131E+02  0.40709209097E+03  0.44774982973E+03  0.12498906126E+03 0.  0.
          2    1    1    2  501    0 -0.17252509813E+03 -0.13049533186E+03  0.18783373355E+03  0.28648813690E+03  0.00000000000E+00 0. -1.
          1    1    1    2  502    0  0.41477875679E+02  0.86220061731E+02  0.11548767429E+04  0.11588332945E+04  0.00000000000E+00 0. -1.
         22    1    3    3    0    0  0.86407110877E+02  0.70587596512E+02  0.36284205276E+03  0.37960921069E+03  0.00000000000E+00 0. -1.
         22    1    3    3    0    0  0.44640111578E+02 -0.26312326381E+02  0.44250038209E+02  0.68140619037E+02  0.00000000000E+00 0. -1.
</event>
<event>
 7    1  0.6358809E-006  0.8959563E+02  0.7818608E-02  0.1405500E+00
          2   -1    0    0  502    0  0.00000000000E+00  0.00000000000E+00  0.96209725223E+03  0.96209725223E+03  0.00000000000E+00 0. -1.
          1   -1    0    0  501    0 -0.00000000000E+00 -0.00000000000E+00 -0.13596753285E+03  0.13596753285E+03  0.00000000000E+00 0. -1.
         25    2    1    2    0    0  0.52854869925E+02  0.10015151237E+03 -0.25794024288E+02  0.17062839014E+03  0.12499901250E+03 0.  0.
          2    1    1    2  501    0  0.96461595691E+01 -0.36568357358E+02 -0.25423689425E+02  0.45570353721E+02  0.00000000000E+00 0. -1.
          1    1    1    2  502    0 -0.62501029494E+02 -0.63583155014E+02  0.87734743309E+03  0.88186604121E+03  0.00000000000E+00 0. -1.
         22    1    3    3    0    0  0.90474360981E+01  0.28541167707E+00 -0.56591665745E+02  0.57311030278E+02  0.00000000000E+00 0. -1.
         22    1    3    3    0    0  0.43807433826E+02  0.99866100695E+02  0.30797641457E+02  0.11331735986E+03  0.00000000000E+00 0. -1.
</event>
<event>
 7    1  0.8683978E-006  0.6901213E+02  0.7818608E-02  0.1427600E+00
          2   -1    0    0  502    0  0.00000000000E+00  0.00000000000E+00  0.29634895536E+04  0.29634895536E+04  0.00000000000E+00 0. -1.
          1   -1    0    0  501    0 -0.00000000000E+00 -0.00000000000E+00 -0.49398548201E+03  0.49398548201E+03  0.00000000000E+00 0. -1.
         25    2    1    2    0    0 -0.85559235184E+02  0.42265537066E+02 -0.22979654030E+03  0.27845698049E+03  0.12500032681E+03 0.  0.
          2    1    1    2  501    0  0.16718190835E+02 -0.37862460673E+02 -0.23766521469E+03  0.24124223948E+03  0.00000000000E+00 0. -1.
          1    1    1    2  502    0  0.68841044348E+02 -0.44030763934E+01  0.29369658265E+04  0.29377758156E+04  0.00000000000E+00 0. -1.
         22    1    3    3    0    0 -0.79252848705E+02  0.83679595949E+02 -0.16366679910E+03  0.20017519810E+03  0.00000000000E+00 0. -1.
         22    1    3    3    0    0 -0.63063864785E+01 -0.41414058883E+02 -0.66129741198E+02  0.78281782392E+02  0.00000000000E+00 0. -1.
</event>
<event>
 7    1  0.6358809E-006  0.1713808E+03  0.7818608E-02  0.1313041E+00
          2   -1    0    0  502    0  0.00000000000E+00  0.00000000000E+00  0.22834644825E+04  0.22834644825E+04  0.00000000000E+00 0. -1.
          1   -1    0    0  501    0 -0.00000000000E+00 -0.00000000000E+00 -0.84626503593E+03  0.84626503593E+03  0.00000000000E+00 0. -1.
         25    2    1    2    0    0  0.11538787260E+03  0.16552498208E+03 -0.14495897936E+03  0.27811967518E+03  0.12499826873E+03 0.  0.
          2    1    1    2  501    0 -0.75877125816E+02 -0.14836501794E+03 -0.62357418712E+03  0.64545664735E+03  0.00000000000E+00 0. -1.
          1    1    1    2  502    0 -0.39510746785E+02 -0.17159964147E+02  0.22057326131E+04  0.22061531959E+04  0.00000000000E+00 0. -1.
         22    1    3    3    0    0  0.12295984371E+03  0.13598769797E+03 -0.68343760967E+02  0.19565951759E+03  0.00000000000E+00 0.  1.
         22    1    3    3    0    0 -0.75719711035E+01  0.29537284117E+02 -0.76615218391E+02  0.82460157582E+02  0.00000000000E+00 0.  1.
</event>
<event>
 7    1  0.6358809E-006  0.1317426E+03  0.7818608E-02  0.1400298E+00
          2   -1    0    0  502    0  0.00000000000E+00  0.00000000000E+00  0.11590377523E+03  0.11590377523E+03  0.00000000000E+00 0. -1.
          1   -1    0    0  501    0 -0.00000000000E+00 -0.00000000000E+00 -0.84245718924E+03  0.84245718924E+03  0.00000000000E+00 0. -1.
         25    2    1    2    0    0 -0.11244922532E+03  0.42713726655E+02 -0.11169339265E+03  0.20632472418E+03  0.12500074849E+03 0.  0.
          2    1    1    2  501    0  0.13144038040E+03 -0.23808449097E+02 -0.67399949395E+03  0.68710896784E+03  0.00000000000E+00 0. -1.
          1    1    1    2  502    0 -0.18991155072E+02 -0.18905277558E+02  0.59139472583E+02  0.64927272451E+02  0.00000000000E+00 0. -1.
         22    1    3    3    0    0  0.11860101154E+02 -0.43434318285E-02  0.18072962918E+02  0.21616984222E+02  0.00000000000E+00 0. -1.
         22    1    3    3    0    0 -0.12430932648E+03  0.42718070087E+02 -0.12976635557E+03  0.18470773995E+03  0.00000000000E+00 0. -1.
</event>
<event>
 7    1  0.6358809E-006  0.5227942E+02  0.7818608E-02  0.1457830E+00
          2   -1    0    0  502    0  0.00000000000E+00  0.00000000000E+00  0.16634679176E+04  0.16634679176E+04  0.00000000000E+00 0. -1.
          1   -1    0    0  501    0 -0.00000000000E+00 -0.00000000000E+00 -0.17675256885E+03  0.17675256885E+03  0.00000000000E+00 0. -1.
         25    2    1    2    0    0  0.25659773300E+02 -0.35321498317E+02 -0.11501382063E+03  0.17538350420E+03  0.12500064959E+03 0.  0.
          2    1    1    2  501    0 -0.55580395420E+02 -0.75491708090E+01 -0.58617709714E+01  0.56396193966E+02  0.00000000000E+00 0. -1.
          1    1    1    2  502    0  0.29920622120E+02  0.42870669126E+02  0.16075909403E+04  0.16084407883E+04  0.00000000000E+00 0. -1.
         22    1    3    3    0    0 -0.39123868197E+02 -0.43235526100E+02 -0.86132559411E+02  0.10401348745E+03  0.00000000000E+00 0.  1.
         22    1    3    3    0    0  0.64783641497E+02  0.79140277824E+01 -0.28881261224E+02  0.71370016752E+02  0.00000000000E+00 0.  1.
</event>
<event>
 7    1  0.6358809E-006  0.9530448E+02  0.7818608E-02  0.1410916E+00
          2   -1    0    0  502    0  0.00000000000E+00  0.00000000000E+00  0.77864146727E+03  0.77864146727E+03  0.00000000000E+00 0. -1.
          1   -1    0    0  501    0 -0.00000000000E+00 -0.00000000000E+00 -0.15452375272E+04  0.15452375272E+04  0.00000000000E+00 0. -1.
         25    2    1    2    0    0 -0.71283525423E+02  0.10422995115E+03 -0.10911346296E+04  0.11055066905E+04  0.12500015656E+03 0.  0.
          2    1    1    2  501    0  0.28015642893E+02 -0.19403306820E+02 -0.44332192295E+03  0.44462983698E+03  0.00000000000E+00 0. -1.
          1    1    1    2  502    0  0.43267882530E+02 -0.84826644327E+02  0.76786049256E+03  0.77374246703E+03  0.00000000000E+00 0. -1.
         22    1    3    3    0    0 -0.41497087796E+02  0.58607181530E+02 -0.19643413381E+03  0.20914870056E+03  0.00000000000E+00 0.  1.
         22    1    3    3    0    0 -0.29786437627E+02  0.45622769617E+02 -0.89470049575E+03  0.89635798990E+03  0.00000000000E+00 0.  1.
</event>
<event>
 7    1  0.6358809E-006  0.1773765E+03  0.7818608E-02  0.1206446E+00
          2   -1    0    0  502    0  0.00000000000E+00  0.00000000000E+00  0.10150523229E+04  0.10150523229E+04  0.00000000000E+00 0. -1.
          1   -1    0    0  501    0 -0.00000000000E+00 -0.00000000000E+00 -0.12663130609E+03  0.12663130609E+03  0.00000000000E+00 0. -1.
         25    2    1    2    0    0 -0.14553181834E+01  0.19416202676E+03  0.83509355911E+03  0.86643370755E+03  0.12500042611E+03 0.  0.
          2    1    1    2  501    0  0.90618092648E+02 -0.77019592268E+02  0.75635655794E+00  0.11892951015E+03  0.00000000000E+00 0. -1.
          1    1    1    2  502    0 -0.89162774465E+02 -0.11714243449E+03  0.52571101131E+02  0.15632041128E+03  0.00000000000E+00 0. -1.
         22    1    3    3    0    0 -0.21143932728E+02  0.10818433621E+02  0.29048959145E+03  0.29145892873E+03  0.00000000000E+00 0.  1.
         22    1    3    3    0    0  0.19688614544E+02  0.18334359314E+03  0.54460396766E+03  0.57497477882E+03  0.00000000000E+00 0.  1.
</event>
<event>
 7    1  0.6358809E-006  0.1069185E+03  0.7818608E-02  0.1412697E+00
          2   -1    0    0  502    0  0.00000000000E+00  0.00000000000E+00  0.19185619961E+04  0.19185619961E+04  0.00000000000E+00 0. -1.
          1   -1    0    0  501    0 -0.00000000000E+00 -0.00000000000E+00 -0.19559884805E+03  0.19559884805E+03  0.00000000000E+00 0. -1.
         25    2    1    2    0    0  0.54691968087E+02  0.12268541920E+03  0.87351692814E+03  0.89258051420E+03  0.12500090851E+03 0.  0.
          2    1    1    2  501    0 -0.52090529919E+02 -0.92839825161E+02 -0.17060253655E+03  0.20109172514E+03  0.00000000000E+00 0. -1.
          1    1    1    2  502    0 -0.26014381681E+01 -0.29845594036E+02  0.10200487565E+04  0.10204886049E+04  0.00000000000E+00 0. -1.
         22    1    3    3    0    0 -0.33979221429E+02  0.17963499432E+02  0.32037955056E+03  0.32267682163E+03  0.00000000000E+00 0. -1.
         22    1    3    3    0    0  0.88671189516E+02  0.10472191976E+03  0.55313737758E+03  0.56990369257E+03  0.00000000000E+00 0. -1.
</event>
<event>
 7    1  0.6358809E-006  0.3721901E+02  0.7818608E-02  0.1608573E+00
          2   -1    0    0  502    0  0.00000000000E+00  0.00000000000E+00  0.34451199546E+03  0.34451199546E+03  0.00000000000E+00 0. -1.
          1   -1    0    0  501    0 -0.00000000000E+00 -0.00000000000E+00 -0.30509218303E+03  0.30509218303E+03  0.00000000000E+00 0. -1.
         25    2    1    2    0    0 -0.44221603130E+02 -0.72080731837E+01 -0.30927023625E+02  0.13634110822E+03  0.12499964200E+03 0.  0.
          2    1    1    2  501    0  0.34672821057E+02 -0.13395919183E+02 -0.21945105580E+03  0.22257677566E+03  0.00000000000E+00 0. -1.
          1    1    1    2  502    0  0.95487820732E+01  0.20603992367E+02  0.28979789186E+03  0.29068629460E+03  0.00000000000E+00 0. -1.
         22    1    3    3    0    0 -0.76666452973E+02  0.30928418343E+02 -0.17506734855E+02  0.84503241582E+02  0.00000000000E+00 0.  1.
         22    1    3    3    0    0  0.32444849843E+02 -0.38136491527E+02 -0.13420288770E+02  0.51837866642E+02  0.00000000000E+00 0.  1.
</event>
<event>
 7    1  0.6358809E-006  0.1962472E+03  0.7818608E-02  0.1282634E+00
          2   -1    0    0  502    0  0.00000000000E+00  0.00000000000E+00  0.11162785521E+04  0.11162785521E+04  0.00000000000E+00 0. -1.
          1   -1    0    0  501    0 -0.00000000000E+00 -0.00000000000E+00 -0.23569394168E+03  0.23569394168E+03  0.00000000000E+00 0. -1.
         25    2    1    2    0    0 -0.13534624117E+03 -0.16046729233E+03  0.23278901959E+03  0.33746655701E+03  0.12499837018E+03 0.  0.
          2    1    1    2  501    0  0.15670963784E+03  0.11544093983E+03 -0.13067833146E+03  0.23443836609E+03  0.00000000000E+00 0. -1.
          1    1    1    2  502    0 -0.21363396661E+02  0.45026352492E+02  0.77847392227E+03  0.78006757065E+03  0.00000000000E+00 0. -1.
         22    1    3    3    0    0 -0.10809894932E+02 -0.97808543889E+01 -0.15616721194E+02  0.21363541884E+02  0.00000000000E+00 0. -1.
         22    1    3    3    0    0 -0.12453634624E+03 -0.15068643794E+03  0.24840574078E+03  0.31610301512E+03  0.00000000000E+00 0. -1.
</event>
<event>
 7    1  0.6358809E-006  0.5634113E+02  0.7818608E-02  0.1481945E+00
          2   -1    0    0  502    0  0.00000000000E+00  0.00000000000E+00  0.38135686315E+03  0.38135686315E+03  0.00000000000E+00 0. -1.
          1   -1    0    0  501    0 -0.00000000000E+00 -0.00000000000E+00 -0.10339455131E+03  0.10339455131E+03  0.00000000000E+00 0. -1.
         25    2    1    2    0    0  0.55948068617E+02  0.68383685956E+02  0.72461194810E+02  0.16935630639E+03  0.12499767548E+03 0.  0.
          2    1    1    2  501    0 -0.19718274722E+02 -0.27769014600E+02 -0.46469383368E+02  0.57613645263E+02  0.00000000000E+00 0. -1.
          1    1    1    2  502    0 -0.36229793895E+02 -0.40614671355E+02  0.25197050040E+03  0.25778146281E+03  0.00000000000E+00 0. -1.
         22    1    3    3    0    0  0.42723221063E+02  0.43086812445E+02 -0.26609187719E+02  0.66255534831E+02  0.00000000000E+00 0.  1.
         22    1    3    3    0    0  0.13224847554E+02  0.25296873511E+02  0.99070382529E+02  0.10310077156E+03  0.00000000000E+00 0.  1.
</event>
<event>
 7    1  0.6358809E-006  0.1819188E+03  0.7818608E-02  0.1316582E+00
          2   -1    0    0  502    0  0.00000000000E+00  0.00000000000E+00  0.85553568169E+03  0.85553568169E+03  0.00000000000E+00 0. -1.
          1   -1    0    0  501    0 -0.00000000000E+00 -0.00000000000E+00 -0.11422250384E+03  0.11422250384E+03  0.00000000000E+00 0. -1.
         25    2    1    2    0    0 -0.19536216811E+03 -0.70265422434E+02  0.19409437793E+03  0.31048569965E+03  0.12500054329E+03 0.  0.
          2    1    1    2  501    0  0.15684187587E+03  0.62438498587E+02  0.73825746581E+02  0.18425032155E+03  0.00000000000E+00 0. -1.
          1    1    1    2  502    0  0.38520292246E+02  0.78269238470E+01  0.47339305333E+03  0.47502216432E+03  0.00000000000E+00 0. -1.
         22    1    3    3    0    0 -0.87802145267E+02 -0.75138187781E+02  0.39572913139E+02  0.12215146103E+03  0.00000000000E+00 0.  1.
         22    1    3    3    0    0 -0.10756002285E+03  0.48727653469E+01  0.15452146479E+03  0.18833423863E+03  0.00000000000E+00 0.  1.
</event>
<event>
 7    1  0.6358809E-006  0.3615078E+02  0.7818608E-02  0.1552392E+00
          2   -1    0    0  502    0  0.00000000000E+00  0.00000000000E+00  0.87251461121E+03  0.87251461121E+03  0.00000000000E+00 0. -1.
          1   -1    0    0  501    0 -0.00000000000E+00 -0.00000000000E+00 -0.79945831078E+03  0.79945831078E+03  0.00000000000E+00 0. -1.
         25    2    1    2    0    0  0.50851293219E+02  0.45232200603E+02 -0.72408792030E+02  0.15968770687E+03  0.12500129827E+03 0.  0.
          2    1    1    2  501    0 -0.20293510026E+02 -0.26112837804E+02 -0.68261765556E+03  0.68341829835E+03  0.00000000000E+00 0. -1.
          1    1    1    2  502    0 -0.30557783193E+02 -0.19119362799E+02  0.82808274801E+03  0.82886691676E+03  0.00000000000E+00 0. -1.
         22    1    3    3    0    0 -0.12565681580E+02  0.77756166115E+01  0.30059692837E+02  0.33495398202E+02  0.00000000000E+00 0. -1.
         22    1    3    3    0    0  0.63416974799E+02  0.37456583992E+02 -0.10246848487E+03  0.12619230867E+03  0.00000000000E+00 0. -1.
</event>
<event>
 7    1  0.6358809E-006  0.1037231E+03  0.7818608E-02  0.1305262E+00
          2   -1    0    0  502    0  0.00000000000E+00  0.00000000000E+00  0.16024567771E+03  0.16024567771E+03  0.00000000000E+00 0. -1.
          1   -1    0    0  501    0 -0.00000000000E+00 -0.00000000000E+00 -0.54039968193E+03  0.54039968193E+03  0.00000000000E+00 0. -1.
         25    2    1    2    0    0 -0.37477980198E+02 -0.10024905808E+03 -0.38479330881E+03  0.41850474796E+03  0.12500344360E+03 0.  0.
          2    1    1    2  501    0  0.10013919607E+03  0.56561900609E+02 -0.10012405699E+03  0.15248584845E+03  0.00000000000E+00 0. -1.
          1    1    1    2  502    0 -0.62661215870E+02  0.43687157474E+02  0.10476336157E+03  0.12965476324E+03  0.00000000000E+00 0. -1.
         22    1    3    3    0    0  0.90269096404E+01  0.27294737063E+02 -0.71428661209E+02  0.76997022092E+02  0.00000000000E+00 0. -1.
         22    1    3    3    0    0 -0.46504889838E+02 -0.12754379515E+03 -0.31336464760E+03  0.34150772586E+03  0.00000000000E+00 0. -1.
</event>
<event>
 7    1  0.6358809E-006  0.4434214E+02  0.7818608E-02  0.1508730E+00
          2   -1    0    0  502    0  0.00000000000E+00  0.00000000000E+00  0.13125128135E+04  0.13125128135E+04  0.00000000000E+00 0. -1.
          1   -1    0    0  501    0 -0.00000000000E+00 -0.00000000000E+00 -0.28610300014E+03  0.28610300014E+03  0.00000000000E+00 0. -1.
         25    2    1    2    0    0  0.37646080643E+02 -0.28995748991E+01  0.55723836110E+03  0.57233474222E+03  0.12500732439E+03 0.  0.
          2    1    1    2  501    0 -0.30444368080E+02 -0.32328114002E+02 -0.27634894404E+03  0.27989409671E+03  0.00000000000E+00 0. -1.
          1    1    1    2  502    0 -0.72017125627E+01  0.35227688901E+02  0.74552039627E+03  0.74638697469E+03  0.00000000000E+00 0. -1.
         22    1    3    3    0    0 -0.57052822460E+01  0.52770875082E+02  0.15203566019E+03  0.16103464681E+03  0.00000000000E+00 0.  1.
         22    1    3    3    0    0  0.43351362889E+02 -0.55670449981E+02  0.40520270091E+03  0.41130009541E+03  0.00000000000E+00 0.  1.
</event>
<event>
 7    1  0.6358809E-006  0.8896351E+02  0.7818608E-02  0.1385748E+00
          2   -1    0    0  502    0  0.00000000000E+00  0.00000000000E+00  0.14389435297E+04  0.14389435297E+04  0.00000000000E+00 0. -1.
          1   -1    0    0  501    0 -0.00000000000E+00 -0.00000000000E+00 -0.62070549568E+03  0.62070549568E+03  0.00000000000E+00 0. -1.
         25    2    1    2    0    0  0.18000204540E+02 -0.71642614819E+02 -0.25702170844E+03  0.29519753225E+03  0.12499901127E+03 0.  0.
          2    1    1    2  501    0  0.20408833959E+02  0.94274273900E+02 -0.33748731825E+03  0.35100120969E+03  0.00000000000E+00 0. -1.
          1    1    1    2  502    0 -0.38409038500E+02 -0.22631659081E+02  0.14127470607E+04  0.14134502834E+04  0.00000000000E+00 0. -1.
         22    1    3    3    0    0  0.62757529365E+02 -0.75704139487E+02 -0.19738578631E+03  0.22052386008E+03  0.00000000000E+00 0.  1.
         22    1    3    3    0    0 -0.44757324825E+02  0.40615246678E+01 -0.59635922129E+02  0.74673672176E+02  0.00000000000E+00 0.  1.
</event>
<event>
 7    1  0.6358809E-006  0.5666643E+02  0.7818608E-02  0.1460692E+00
          2   -1    0    0  502    0  0.00000000000E+00  0.00000000000E+00  0.90240783514E+03  0.90240783514E+03  0.00000000000E+00 0. -1.
          1   -1    0    0  501    0 -0.00000000000E+00 -0.00000000000E+00 -0.41238829648E+02  0.41238829648E+02  0.00000000000E+00 0. -1.
         25    2    1    2    0    0  0.67430090754E+02  0.47513980967E+02  0.27674600859E+03  0.31467215381E+03  0.12500326232E+03 0.  0.
          2    1    1    2  501    0 -0.13045017377E+02 -0.37198016025E+02 -0.24514754161E+01  0.39495247895E+02  0.00000000000E+00 0. -1.
          1    1    1    2  502    0 -0.54385073377E+02 -0.10315964942E+02  0.58687447232E+03  0.58947926308E+03  0.00000000000E+00 0. -1.
         22    1    3    3    0    0 -0.35592757423E+02  0.24168006734E+01  0.48316707423E+02  0.60059882806E+02  0.00000000000E+00 0. -1.
         22    1    3    3    0    0  0.10302284818E+03  0.45097180294E+02  0.22842930116E+03  0.25461227101E+03  0.00000000000E+00 0. -1.
</event>
<event>
 7    1  0.7137245E-006  0.1271614E+03  0.7818608E-02  0.1236506E+00
          2   -1    0    0  502    0  0.00000000000E+00  0.00000000000E+00  0.19436965223E+04  0.19436965223E+04  0.00000000000E+00 0. -1.
          1   -1    0    0  501    0 -0.00000000000E+00 -0.00000000000E+00 -0.13068961320E+04  0.13068961320E+04  0.00000000000E+00 0. -1.
         25    2    1    2    0    0 -0.11630404228E+03 -0.17742993795E+03 -0.39211265680E+03  0.46301743628E+03  0.12499919018E+03 0.  0.
          2    1    1    2  501    0  0.26318812118E+01  0.12105429566E+03 -0.87303895482E+03  0.88139553320E+03  0.00000000000E+00 0. -1.
          1    1    1    2  502    0  0.11367216106E+03  0.56375642288E+02  0.19019520019E+04  0.19061796848E+04  0.00000000000E+00 0. -1.
         22    1    3    3    0    0 -0.73692553003E+02 -0.18761707859E+03 -0.33602313687E+03  0.39184475122E+03  0.00000000000E+00 0. -1.
         22    1    3    3    0    0 -0.42611489273E+02  0.10187140644E+02 -0.56089519925E+02  0.71172685055E+02  0.00000000000E+00 0. -1.
</event>
<event>
 7    1  0.6358809E-006  0.2911141E+03  0.7818608E-02  0.1199570E+00
          2   -1    0    0  502    0  0.00000000000E+00  0.00000000000E+00  0.28274741971E+03  0.28274741971E+03  0.00000000000E+00 0. -1.
          1   -1    0    0  501    0 -0.00000000000E+00 -0.00000000000E+00 -0.19416472348E+04  0.19416472348E+04  0.00000000000E+00 0. -1.
         25    2    1    2    0    0 -0.86415882000E+02 -0.23061191844E+03 -0.71451298598E+03  0.76603110971E+03  0.12500116928E+03 0.  0.
          2    1    1    2  501    0 -0.75934975447E+02 -0.18050636618E+02 -0.11137583861E+04  0.11164898964E+04  0.00000000000E+00 0. -1.
          1    1    1    2  502    0  0.16235085745E+03  0.24866255505E+03  0.16937155700E+03  0.34187364847E+03  0.00000000000E+00 0. -1.
         22    1    3    3    0    0 -0.25602497070E+02 -0.21000867800E+03 -0.56516416888E+03  0.60346472182E+03  0.00000000000E+00 0. -1.
         22    1    3    3    0    0 -0.60813384930E+02 -0.20603240434E+02 -0.14934881710E+03  0.16256638789E+03  0.00000000000E+00 0. -1.
</event>
<event>
 7    1  0.6358809E-006  0.1002427E+03  0.7818608E-02  0.1377865E+00
          2   -1    0    0  502    0  0.00000000000E+00  0.00000000000E+00  0.21284674555E+03  0.21284674555E+03  0.00000000000E+00 0. -1.
          1   -1    0    0  501    0 -0.00000000000E+00 -0.00000000000E+00 -0.12284339274E+04  0.12284339274E+04  0.00000000000E+00 0. -1.
         25    2    1    2    0    0 -0.52291917637E+02 -0.74507883593E+02 -0.11721138528E+03  0.19407047451E+03  0.12505587099E+03 0.  0.
          2    1    1    2  501    0  0.18398144678E+02  0.99622149639E+02 -0.10678093424E+04  0.10726042402E+04  0.00000000000E+00 0. -1.
          1    1    1    2  502    0  0.33893772959E+02 -0.25114266045E+02  0.16943354581E+03  0.17460595823E+03  0.00000000000E+00 0. -1.
         22    1    3    3    0    0 -0.52420334974E+02  0.22921483634E+02 -0.45349474014E+02  0.73005895133E+02  0.00000000000E+00 0. -1.
         22    1    3    3    0    0  0.12841733753E+00 -0.97429367227E+02 -0.71861911267E+02  0.12106457938E+03  0.00000000000E+00 0. -1.
</event>
<event>
 7    1  0.6358809E-006  0.3355778E+03  0.7818608E-02  0.1309524E+00
          2   -1    0    0  502    0  0.00000000000E+00  0.00000000000E+00  0.10317004711E+04  0.10317004711E+04  0.00000000000E+00 0. -1.
          1   -1    0    0  501    0 -0.00000000000E+00 -0.00000000000E+00 -0.46525007854E+03  0.46525007854E+03  0.00000000000E+00 0. -1.
         25    2    1    2    0    0 -0.32646584322E+03  0.41110327550E+02  0.16017124748E+03  0.38672995407E+03  0.12504088546E+03 0.  0.
          2    1    1    2  501    0 -0.54943774170E+01  0.22036497405E+02 -0.31389248827E+03  0.31471302736E+03  0.00000000000E+00 0. -1.
          1    1    1    2  502    0  0.33196022064E+03 -0.63146824955E+02  0.72017163339E+03  0.79550756824E+03  0.00000000000E+00 0. -1.
         22    1    3    3    0    0 -0.39495810948E+02 -0.30448790654E+02 -0.10564615725E+01  0.49881500035E+02  0.00000000000E+00 0. -1.
         22    1    3    3    0    0 -0.28697003227E+03  0.71559118203E+02  0.16122770905E+03  0.33684845403E+03  0.00000000000E+00 0. -1.
</event>
<event>
 7    1  0.9027324E-006  0.7441451E+02  0.7818608E-02  0.1361840E+00
          2   -1    0    0  502    0  0.00000000000E+00  0.00000000000E+00  0.89146540998E+03  0.89146540998E+03  0.00000000000E+00 0. -1.
          1   -1    0    0  501    0 -0.00000000000E+00 -0.00000000000E+00 -0.33500374213E+04  0.33500374213E+04  0.00000000000E+00 0. -1.
         25    2    1    2    0    0 -0.87800428428E+02 -0.44500246809E+01 -0.14266388714E+04  0.14348008123E+04  0.12500473377E+03 0.  0.
          2    1    1    2  501    0  0.33631325085E+02  0.55493404337E+02 -0.19172070316E+04  0.19183048209E+04  0.00000000000E+00 0. -1.
          1    1    1    2  502    0  0.54169103343E+02 -0.51043379656E+02  0.88527389167E+03  0.88839719812E+03  0.00000000000E+00 0. -1.
         22    1    3    3    0    0 -0.11059390061E+03  0.27131853141E+02 -0.10658819390E+04  0.10719475063E+04  0.00000000000E+00 0. -1.
         22    1    3    3    0    0  0.22793472180E+02 -0.31581877822E+02 -0.36075693240E+03  0.36285330597E+03  0.00000000000E+00 0. -1.
</event>
<event>
 7    1  0.6358809E-006  0.6567410E+02  0.7818608E-02  0.1470647E+00
          2   -1    0    0  502    0  0.00000000000E+00  0.00000000000E+00  0.76228830483E+03  0.76228830483E+03  0.00000000000E+00 0. -1.
          1   -1    0    0  501    0 -0.00000000000E+00 -0.00000000000E+00 -0.13255568599E+04  0.13255568599E+04  0.00000000000E+00 0. -1.
         25    2    1    2    0    0  0.18818155531E+01 -0.53958006889E+02  0.49907146837E+02  0.14502143280E+03  0.12500193969E+03 0.  0.
          2    1    1    2  501    0 -0.33419254073E+02  0.56719048313E+02 -0.12767743169E+04  0.12784703959E+04  0.00000000000E+00 0. -1.
          1    1    1    2  502    0  0.31537438520E+02 -0.27610414235E+01  0.66359861494E+03  0.66435333605E+03  0.00000000000E+00 0. -1.
         22    1    3    3    0    0  0.42437152291E+02 -0.70048513747E+02  0.58376954636E+02  0.10057621491E+03  0.00000000000E+00 0. -1.
         22    1    3    3    0    0 -0.40555336738E+02  0.16090506858E+02 -0.84698077997E+01  0.44445217887E+02  0.00000000000E+00 0. -1.
</event>
<event>
 7    1  0.6358809E-006  0.7027582E+02  0.7818608E-02  0.1388713E+00
          2   -1    0    0  502    0  0.00000000000E+00  0.00000000000E+00  0.56543988442E+03  0.56543988442E+03  0.00000000000E+00 0. -1.
          1   -1    0    0  501    0 -0.00000000000E+00 -0.00000000000E+00 -0.30941725992E+03  0.30941725992E+03  0.00000000000E+00 0. -1.
         25    2    1    2    0    0  0.68294444563E+02 -0.60060492388E+02  0.22976537847E+03  0.27692657507E+03  0.12499921973E+03 0.  0.
          2    1    1    2  501    0 -0.13897524010E+02  0.68844573706E+02 -0.27901832894E+03  0.28772199149E+03  0.00000000000E+00 0. -1.
          1    1    1    2  502    0 -0.54396920553E+02 -0.87840813179E+01  0.30527557497E+03  0.31020857778E+03  0.00000000000E+00 0. -1.
         22    1    3    3    0    0 -0.12276423235E+02 -0.34704663610E+02  0.54222637947E+01  0.37209208381E+02  0.00000000000E+00 0. -1.
         22    1    3    3    0    0  0.80570867798E+02 -0.25355828778E+02  0.22434311467E+03  0.23971736669E+03  0.00000000000E+00 0. -1.
</event>
<event>
 7    1  0.6358809E-006  0.8394637E+02  0.7818608E-02  0.1370187E+00
          2   -1    0    0  502    0  0.00000000000E+00  0.00000000000E+00  0.91431643767E+03  0.91431643767E+03  0.00000000000E+00 0. -1.
          1   -1    0    0  501    0 -0.00000000000E+00 -0.00000000000E+00 -0.36090860404E+03  0.36090860404E+03  0.00000000000E+00 0. -1.
         25    2    1    2    0    0 -0.22526137576E+01 -0.52095354998E+02 -0.23671557962E+03  0.27272364930E+03  0.12499969189E+03 0.  0.
          2    1    1    2  501    0 -0.52256848719E+02 -0.12185524802E+02 -0.97283805629E+02  0.11110087349E+03  0.00000000000E+00 0. -1.
          1    1    1    2  502    0  0.54509462477E+02  0.64280879800E+02  0.88740721888E+03  0.89140051892E+03  0.00000000000E+00 0. -1.
         22    1    3    3    0    0  0.21178671458E+02 -0.42045074105E+02 -0.24212583984E+03  0.24666018467E+03  0.00000000000E+00 0.  1.
         22    1    3    3    0    0 -0.23431285216E+02 -0.10050280892E+02  0.54102602264E+01  0.26063464632E+02  0.00000000000E+00 0.  1.
</event>
<event>
 7    1  0.6358809E-006  0.1211623E+03  0.7818608E-02  0.1243306E+00
          2   -1    0    0  502    0  0.00000000000E+00  0.00000000000E+00  0.21631387725E+04  0.21631387725E+04  0.00000000000E+00 0. -1.
          1   -1    0    0  501    0 -0.00000000000E+00 -0.00000000000E+00 -0.45252514134E+02  0.45252514134E+02  0.00000000000E+00 0. -1.
         25    2    1    2    0    0  0.37656380205E+02  0.87922326528E+02  0.28032501069E+03  0.32148775351E+03  0.12499570220E+03 0.  0.
          2    1    1    2  501    0 -0.15310560804E+03 -0.51155926182E+02  0.26934950614E+03  0.31401817218E+03  0.00000000000E+00 0. -1.
          1    1    1    2  502    0  0.11544922783E+03 -0.36766400346E+02  0.15682117415E+04  0.15728853609E+04  0.00000000000E+00 0. -1.
         22    1    3    3    0    0 -0.31741276258E+02  0.32193481610E+02  0.26258282864E+02  0.52282179523E+02  0.00000000000E+00 0. -1.
         22    1    3    3    0    0  0.69397656463E+02  0.55728844917E+02  0.25406672783E+03  0.26920557399E+03  0.00000000000E+00 0. -1.
</event>
<event>
 7    1  0.6358809E-006  0.1512609E+03  0.7818608E-02  0.1245521E+00
          2   -1    0    0  502    0  0.00000000000E+00  0.00000000000E+00  0.16897452452E+04  0.16897452452E+04  0.00000000000E+00 0. -1.
          1   -1    0    0  501    0 -0.00000000000E+00 -0.00000000000E+00 -0.80322484954E+03  0.80322484954E+03  0.00000000000E+00 0. -1.
         25    2    1    2    0    0 -0.60856366864E+02 -0.21293920474E+03  0.23069068933E+03  0.34335090864E+03  0.12500020006E+03 0.  0.
          2    1    1    2  501    0 -0.70583810264E+01  0.14954907728E+03 -0.73783003134E+03  0.75286645722E+03  0.00000000000E+00 0. -1.
          1    1    1    2  502    0  0.67914747891E+02  0.63390127462E+02  0.13936597376E+04  0.13967527289E+04  0.00000000000E+00 0. -1.
         22    1    3    3    0    0  0.23950942468E+02 -0.97653179458E+02  0.14528799265E+03  0.17668727151E+03  0.00000000000E+00 0. -1.
         22    1    3    3    0    0 -0.84807309333E+02 -0.11528602528E+03  0.85402696681E+02  0.16666363713E+03  0.00000000000E+00 0. -1.
</event>
<event>
 7    1  0.6358809E-006  0.5043674E+02  0.7818608E-02  0.1534804E+00
          2   -1    0    0  502    0  0.00000000000E+00  0.00000000000E+00  0.43972703168E+03  0.43972703168E+03  0.00000000000E+00 0. -1.
          1   -1    0    0  501    0 -0.00000000000E+00 -0.00000000000E+00 -0.15754682515E+04  0.15754682515E+04  0.00000000000E+00 0. -1.
         25    2    1    2    0    0 -0.29061169798E+01  0.30430664022E+02 -0.13425658757E+04  0.13487189216E+04  0.12500051149E+03 0.  0.
          2    1    1    2  501    0  0.20535417125E+02  0.16851305142E+02 -0.22759284281E+03  0.22913788849E+03  0.00000000000E+00 0. -1.
          1    1    1    2  502    0 -0.17629300145E+02 -0.47281969163E+02  0.43441749875E+03  0.43733847310E+03  0.00000000000E+00 0. -1.
         22    1    3    3    0    0  0.12434086085E+02 -0.37060643618E+02 -0.89311728756E+03  0.89397236374E+03  0.00000000000E+00 0. -1.
         22    1    3    3    0    0 -0.15340203065E+02  0.67491307639E+02 -0.44944858817E+03  0.45474655782E+03  0.00000000000E+00 0. -1.
</event>
<event>
 7    1  0.6358809E-006  0.5594274E+02  0.7818608E-02  0.1421777E+00
          2   -1    0    0  502    0  0.00000000000E+00  0.00000000000E+00  0.50497996871E+03  0.50497996871E+03  0.00000000000E+00 0. -1.
          1   -1    0    0  501    0 -0.00000000000E+00 -0.00000000000E+00 -0.12985493251E+03  0.12985493251E+03  0.00000000000E+00 0. -1.
         25    2    1    2    0    0  0.50630642940E+01  0.12884839994E+02  0.17637205575E+03  0.21662073312E+03  0.12500314495E+03 0.  0.
          2    1    1    2  501    0 -0.46298140505E+02  0.31401788314E+02 -0.99357572689E+02  0.11402419644E+03  0.00000000000E+00 0. -1.
          1    1    1    2  502    0  0.41235076211E+02 -0.44286628309E+02  0.29811055315E+03  0.30418997165E+03  0.00000000000E+00 0. -1.
         22    1    3    3    0    0  0.11124410165E+02 -0.44286945277E+02  0.14306927343E+03  0.15017956926E+03  0.00000000000E+00 0. -1.
         22    1    3    3    0    0 -0.60613458714E+01  0.57171785271E+02  0.33302782314E+02  0.66441163857E+02  0.00000000000E+00 0. -1.
</event>
<event>
 7    1  0.6358809E-006  0.4671217E+02  0.7818608E-02  0.1503501E+00
          2   -1    0    0  502    0  0.00000000000E+00  0.00000000000E+00  0.32996350137E+03  0.32996350137E+03  0.00000000000E+00 0. -1.
          1   -1    0    0  501    0 -0.00000000000E+00 -0.00000000000E+00 -0.71382122802E+03  0.71382122802E+03  0.00000000000E+00 0. -1.
         25    2    1    2    0    0  0.12887462074E+02 -0.28990144400E+01  0.14532394058E+03  0.19214234936E+03  0.12500057500E+03 0.  0.
          2    1    1    2  501    0 -0.37017200398E+02  0.28759973164E+02 -0.68766461179E+03  0.68926049320E+03  0.00000000000E+00 0. -1.
          1    1    1    2  502    0  0.24129738324E+02 -0.25860958724E+02  0.15848294455E+03  0.16238188683E+03  0.00000000000E+00 0. -1.
         22    1    3    3    0    0 -0.45137450708E+02  0.22948527111E+02  0.25899750497E+02  0.56875490581E+02  0.00000000000E+00 0.  1.
         22    1    3    3    0    0  0.58024912782E+02 -0.25847541551E+02  0.11942419008E+03  0.13526685878E+03  0.00000000000E+00 0.  1.
</event>
<event>
 7    1  0.6358809E-006  0.1227682E+03  0.7818608E-02  0.1248992E+00
          2   -1    0    0  502    0  0.00000000000E+00  0.00000000000E+00  0.39864799320E+03  0.39864799320E+03  0.00000000000E+00 0. -1.
          1   -1    0    0  501    0 -0.00000000000E+00 -0.00000000000E+00 -0.54672974300E+03  0.54672974300E+03  0.00000000000E+00 0. -1.
         25    2    1    2    0    0  0.15389377132E+03  0.21439010511E+02 -0.87751350919E+02  0.21787199164E+03  0.12499992451E+03 0.  0.
          2    1    1    2  501    0 -0.55270028711E+02 -0.95735924067E+02 -0.37421822457E+03  0.39020433472E+03  0.00000000000E+00 0. -1.
          1    1    1    2  502    0 -0.98623742614E+02  0.74296913555E+02  0.31388782568E+03  0.33730140984E+03  0.00000000000E+00 0. -1.
         22    1    3    3    0    0  0.15829858857E+03 -0.13657163358E+02 -0.89678929330E+02  0.18244799703E+03  0.00000000000E+00 0.  1.
         22    1    3    3    0    0 -0.44048172481E+01  0.35096173870E+02  0.19275784110E+01  0.35423994605E+02  0.00000000000E+00 0.  1.
</event>
<event>
 7    1  0.6358809E-006  0.9080839E+02  0.7818608E-02  0.1319339E+00
          2   -1    0    0  502    0  0.00000000000E+00  0.00000000000E+00  0.26049594017E+04  0.26049594017E+04  0.00000000000E+00 0. -1.
          1   -1    0    0  501    0 -0.00000000000E+00 -0.00000000000E+00 -0.61190829551E+03  0.61190829551E+03  0.00000000000E+00 0. -1.
         25    2    1    2    0    0 -0.43480830990E+02 -0.67483937969E+02 -0.35822178798E+03  0.38780378826E+03  0.12499705701E+03 0.  0.
          2    1    1    2  501    0 -0.46303588091E+02  0.81082564402E+02 -0.22894250872E+03  0.24725104008E+03  0.00000000000E+00 0. -1.
          1    1    1    2  502    0  0.89784419081E+02 -0.13598626433E+02  0.25802154029E+04  0.25818128689E+04  0.00000000000E+00 0. -1.
         22    1    3    3    0    0 -0.30493729262E+02 -0.94094289798E+02 -0.33741480123E+03  0.35161392320E+03  0.00000000000E+00 0. -1.
         22    1    3    3    0    0 -0.12987101728E+02  0.26610351830E+02 -0.20806986744E+02  0.36189865061E+02  0.00000000000E+00 0. -1.
</event>
<event>
 7    1  0.6358809E-006  0.1612344E+03  0.7818608E-02  0.1403071E+00
          2   -1    0    0  502    0  0.00000000000E+00  0.00000000000E+00  0.66595533671E+03  0.66595533671E+03  0.00000000000E+00 0. -1.
          1   -1    0    0  501    0 -0.00000000000E+00 -0.00000000000E+00 -0.41002240887E+03  0.41002240887E+03  0.00000000000E+00 0. -1.
         25    2    1    2    0    0  0.35892473042E+02 -0.15461431340E+03  0.16814676733E+03  0.26285495717E+03  0.12500215045E+03 0.  0.
          2    1    1    2  501    0 -0.57031520879E+02  0.15115022130E+03 -0.34439893245E+03  0.38040716141E+03  0.00000000000E+00 0. -1.
          1    1    1    2  502    0  0.21139047837E+02  0.34640920974E+01  0.43218509295E+03  0.43271562700E+03  0.00000000000E+00 0. -1.
         22    1    3    3    0    0 -0.15190240841E+02 -0.31942440129E+02  0.11400478669E+03  0.11936563277E+03  0.00000000000E+00 0. -1.
         22    1    3    3    0    0  0.51082713883E+02 -0.12267187327E+03  0.54141980640E+02  0.14348932440E+03  0.00000000000E+00 0. -1.
</event>
<event>
 7    1  0.6358809E-006  0.6489130E+02  0.7818608E-02  0.1393714E+00
          2   -1    0    0  502    0  0.00000000000E+00  0.00000000000E+00  0.18463118259E+04  0.18463118259E+04  0.00000000000E+00 0. -1.
          1   -1    0    0  501    0 -0.00000000000E+00 -0.00000000000E+00 -0.17820182807E+02  0.17820182807E+02  0.00000000000E+00 0. -1.
         25    2    1    2    0    0 -0.26855168425E+02  0.20775532290E+02  0.11136827249E+04  0.11211898383E+04  0.12499847601E+03 0.  0.
          2    1    1    2  501    0 -0.49020765140E+02  0.29722706091E+02  0.64571009161E+02  0.86347495021E+02  0.00000000000E+00 0. -1.
          1    1    1    2  502    0  0.75875933565E+02 -0.50498238380E+02  0.65023790910E+03  0.65659467543E+03  0.00000000000E+00 0. -1.
         22    1    3    3    0    0  0.32716318301E+02 -0.18503099862E+01  0.82085168536E+03  0.82150549024E+03  0.00000000000E+00 0.  1.
         22    1    3    3    0    0 -0.59571486726E+02  0.22625842276E+02  0.29283103951E+03  0.29968434805E+03  0.00000000000E+00 0.  1.
</event>
<event>
 7    1  0.6358809E-006  0.1839871E+03  0.7818608E-02  0.1375153E+00
          2   -1    0    0  502    0  0.00000000000E+00  0.00000000000E+00  0.85659707933E+03  0.85659707933E+03  0.00000000000E+00 0. -1.
          1   -1    0    0  501    0 -0.00000000000E+00 -0.00000000000E+00 -0.21055638633E+03  0.21055638633E+03  0.00000000000E+00 0. -1.
         25    2    1    2    0    0 -0.20199932883E+03 -0.40400271045E+02 -0.86733423747E+02  0.25609184007E+03  0.12499773201E+03 0.  0.
          2    1    1    2  501    0  0.22577891745E+02  0.65194549689E+01 -0.23394666252E+02  0.33159838627E+02  0.00000000000E+00 0. -1.
          1    1    1    2  502    0  0.17942143708E+03  0.33880816076E+02  0.75616878300E+03  0.77790178697E+03  0.00000000000E+00 0. -1.
         22    1    3    3    0    0 -0.17513521384E+03 -0.76457955721E+02 -0.48715558001E+02  0.19720894430E+03  0.00000000000E+00 0. -1.
         22    1    3    3    0    0 -0.26864114981E+02  0.36057684677E+02 -0.38017865746E+02  0.58882895767E+02  0.00000000000E+00 0. -1.
</event>
<event>
 7    1  0.6358809E-006  0.4415284E+02  0.7818608E-02  0.1561727E+00
          2   -1    0    0  502    0  0.00000000000E+00  0.00000000000E+00  0.73998457125E+02  0.73998457125E+02  0.00000000000E+00 0. -1.
          1   -1    0    0  501    0 -0.00000000000E+00 -0.00000000000E+00 -0.28187827946E+04  0.28187827946E+04  0.00000000000E+00 0. -1.
         25    2    1    2    0    0  0.18965061204E+02 -0.56467759917E-01 -0.97393559547E+03  0.98210737593E+03  0.12499870799E+03 0.  0.
          2    1    1    2  501    0  0.25160602311E+02 -0.42436156697E+01 -0.18336349575E+04  0.18338124826E+04  0.00000000000E+00 0. -1.
          1    1    1    2  502    0 -0.44125663515E+02  0.43000834297E+01  0.62786215498E+02  0.76861393135E+02  0.00000000000E+00 0. -1.
         22    1    3    3    0    0 -0.29282522963E+02 -0.39260991474E+02 -0.20954626359E+03  0.21519416393E+03  0.00000000000E+00 0.  1.
         22    1    3    3    0    0  0.48247584167E+02  0.39204523714E+02 -0.76438933188E+03  0.76691321200E+03  0.00000000000E+00 0.  1.
</event>
<event>
 7    1  0.6358809E-006  0.1934927E+03  0.7818608E-02  0.1316684E+00
          2   -1    0    0  502    0  0.00000000000E+00  0.00000000000E+00  0.20377071742E+03  0.20377071742E+03  0.00000000000E+00 0. -1.
          1   -1    0    0  501    0 -0.00000000000E+00 -0.00000000000E+00 -0.14463987058E+04  0.14463987058E+04  0.00000000000E+00 0. -1.
         25    2    1    2    0    0  0.20274475228E+03 -0.88920899389E+02 -0.22851041001E+03  0.34183976416E+03  0.12500022380E+03 0.  0.
          2    1    1    2  501    0 -0.36910206944E+02  0.94493803088E+00 -0.11008976174E+04  0.11015166001E+04  0.00000000000E+00 0. -1.
          1    1    1    2  502    0 -0.16583454534E+03  0.87975961358E+02  0.86780039002E+02  0.20681305900E+03  0.00000000000E+00 0. -1.
         22    1    3    3    0    0  0.69479031777E+02 -0.32653771973E+02 -0.16862217171E+03  0.18527558251E+03  0.00000000000E+00 0.  1.
         22    1    3    3    0    0  0.13326572050E+03 -0.56267127417E+02 -0.59888238295E+02  0.15656418165E+03  0.00000000000E+00 0.  1.
</event>
<event>
 7    1  0.6358809E-006  0.4802632E+02  0.7818608E-02  0.1532417E+00
          2   -1    0    0  502    0  0.00000000000E+00  0.00000000000E+00  0.45627627127E+02  0.45627627127E+02  0.00000000000E+00 0. -1.
          1   -1    0    0  501    0 -0.00000000000E+00 -0.00000000000E+00 -0.41698367544E+03  0.41698367544E+03  0.00000000000E+00 0. -1.
         25    2    1    2    0    0  0.30574171034E+02 -0.29225814853E+02 -0.18912861828E+03  0.23061340932E+03  0.12499592839E+03 0.  0.
          2    1    1    2  501    0 -0.49273860044E+02  0.79329142220E+01 -0.19473007808E+03  0.20102399788E+03  0.00000000000E+00 0. -1.
          1    1    1    2  502    0  0.18699689010E+02  0.21292900631E+02  0.12502648052E+02  0.30973895374E+02  0.00000000000E+00 0. -1.
         22    1    3    3    0    0  0.29175648454E+02 -0.64203032894E+02 -0.48242066559E+02  0.85443226071E+02  0.00000000000E+00 0. -1.
         22    1    3    3    0    0  0.13985225801E+01  0.34977218041E+02 -0.14088655172E+03  0.14517018325E+03  0.00000000000E+00 0. -1.
</event>
<event>
 7    1  0.6358809E-006  0.4383341E+02  0.7818608E-02  0.1528019E+00
          2   -1    0    0  502    0  0.00000000000E+00  0.00000000000E+00  0.16544398243E+04  0.16544398243E+04  0.00000000000E+00 0. -1.
          1   -1    0    0  501    0 -0.00000000000E+00 -0.00000000000E+00 -0.64710567234E+03  0.64710567234E+03  0.00000000000E+00 0. -1.
         25    2    1    2    0    0 -0.43247144811E+01  0.11503402770E+02  0.80803955712E+02  0.14934969751E+03  0.12500008583E+03 0.  0.
          2    1    1    2  501    0  0.89949452030E+01 -0.43123331946E+02 -0.61187496049E+03  0.61345863599E+03  0.00000000000E+00 0. -1.
          1    1    1    2  502    0 -0.46702307219E+01  0.31619929176E+02  0.15384051567E+04  0.15387371631E+04  0.00000000000E+00 0. -1.
         22    1    3    3    0    0 -0.43984768675E+02 -0.33383984093E+02  0.68871034255E+02  0.88274399622E+02  0.00000000000E+00 0.  1.
         22    1    3    3    0    0  0.39660054194E+02  0.44887386862E+02  0.11932921457E+02  0.61075297891E+02  0.00000000000E+00 0.  1.
</event>
<event>
 7    1  0.6358809E-006  0.6988143E+02  0.7818608E-02  0.1367181E+00
          2   -1    0    0  502    0  0.00000000000E+00  0.00000000000E+00  0.30419925151E+04  0.30419925151E+04  0.00000000000E+00 0. -1.
          1   -1    0    0  501    0 -0.00000000000E+00 -0.00000000000E+00 -0.25754992203E+03  0.25754992203E+03  0.00000000000E+00 0. -1.
         25    2    1    2    0    0  0.38545331142E+02 -0.45920627912E+02  0.62063040594E+03  0.63592576461E+03  0.12500012280E+03 0.  0.
          2    1    1    2  501    0 -0.69036578727E+02 -0.12710567502E+02 -0.24451047683E+03  0.25438746237E+03  0.00000000000E+00 0. -1.
          1    1    1    2  502    0  0.30491247586E+02  0.58631195414E+02  0.24083226639E+04  0.24092292101E+04  0.00000000000E+00 0. -1.
         22    1    3    3    0    0  0.53640089346E+02 -0.23767865062E+02  0.59792217286E+03  0.60079372116E+03  0.00000000000E+00 0. -1.
         22    1    3    3    0    0 -0.15094758204E+02 -0.22152762849E+02  0.22708233081E+02  0.35132043447E+02  0.00000000000E+00 0. -1.
</event>
<event>
 7    1  0.6358809E-006  0.1468268E+03  0.7818608E-02  0.1263267E+00
          2   -1    0    0  502    0  0.00000000000E+00  0.00000000000E+00  0.20972958563E+04  0.20972958563E+04  0.00000000000E+00 0. -1.
          1   -1    0    0  501    0 -0.00000000000E+00 -0.00000000000E+00 -0.96176394815E+03  0.96176394815E+03  0.00000000000E+00 0. -1.
         25    2    1    2    0    0  0.12940638829E+03  0.13813242604E+03  0.33244521367E+03  0.40245805821E+03  0.12500435222E+03 0.  0.
          2    1    1    2  501    0 -0.80225046018E+02 -0.24075126395E+01 -0.92199923581E+03  0.92548605876E+03  0.00000000000E+00 0. -1.
          1    1    1    2  502    0 -0.49181342273E+02 -0.13572491340E+03  0.17250859303E+04  0.17311156875E+04  0.00000000000E+00 0. -1.
         22    1    3    3    0    0  0.36833842294E+02  0.12468414369E+03  0.15892393856E+03  0.20532823935E+03  0.00000000000E+00 0. -1.
         22    1    3    3    0    0  0.92572545996E+02  0.13448282348E+02  0.17352127510E+03  0.19712981886E+03  0.00000000000E+00 0. -1.
</event>
<event>
 7    1  0.6358809E-006  0.1584436E+03  0.7818608E-02  0.1235944E+00
          2   -1    0    0  502    0  0.00000000000E+00  0.00000000000E+00  0.16047932797E+03  0.16047932797E+03  0.00000000000E+00 0. -1.
          1   -1    0    0  501    0 -0.00000000000E+00 -0.00000000000E+00 -0.22836740685E+04  0.22836740685E+04  0.00000000000E+00 0. -1.
         25    2    1    2    0    0  0.24764175897E+02  0.76579032219E+02 -0.66440886889E+03  0.68083877984E+03  0.12499874593E+03 0.  0.
          2    1    1    2  501    0 -0.46173950843E+02  0.86141841796E+02 -0.15648518524E+04  0.15679010717E+04  0.00000000000E+00 0. -1.
          1    1    1    2  502    0  0.21409774946E+02 -0.16272087401E+03  0.10606598071E+03  0.19541354499E+03  0.00000000000E+00 0. -1.
         22    1    3    3    0    0  0.64288778554E+02  0.68892134216E+02 -0.30612317473E+03  0.32029762926E+03  0.00000000000E+00 0. -1.
         22    1    3    3    0    0 -0.39524602657E+02  0.76868980026E+01 -0.35828569416E+03  0.36054115058E+03  0.00000000000E+00 0. -1.
</event>
<event>
 7    1  0.6358809E-006  0.1923526E+03  0.7818608E-02  0.1365893E+00
          2   -1    0    0  502    0  0.00000000000E+00  0.00000000000E+00  0.12951100432E+04  0.12951100432E+04  0.00000000000E+00 0. -1.
          1   -1    0    0  501    0 -0.00000000000E+00 -0.00000000000E+00 -0.55762063648E+03  0.55762063648E+03  0.00000000000E+00 0. -1.
         25    2    1    2    0    0 -0.49110760809E+02 -0.16971421005E+03 -0.82507754918E+02  0.23160438467E+03  0.12497312293E+03 0.  0.
          2    1    1    2  501    0 -0.22204107374E+02 -0.97923060303E+01 -0.39254587318E+03  0.39329527609E+03  0.00000000000E+00 0. -1.
          1    1    1    2  502    0  0.71314868183E+02  0.17950651608E+03  0.12125430348E+04  0.12278310189E+04  0.00000000000E+00 0. -1.
         22    1    3    3    0    0 -0.40346407834E+02  0.22038022783E+01 -0.33868397394E+02  0.52723407625E+02  0.00000000000E+00 0.  1.
         22    1    3    3    0    0 -0.87643529755E+01 -0.17191801233E+03 -0.48639357524E+02  0.17888097704E+03  0.00000000000E+00 0.  1.
</event>
<event>
 7    1  0.6358809E-006  0.1728631E+03  0.7818608E-02  0.1328935E+00
          2   -1    0    0  502    0  0.00000000000E+00  0.00000000000E+00  0.34655628338E+03  0.34655628338E+03  0.00000000000E+00 0. -1.
          1   -1    0    0  501    0 -0.00000000000E+00 -0.00000000000E+00 -0.66142158189E+03  0.66142158189E+03  0.00000000000E+00 0. -1.
         25    2    1    2    0    0  0.41939193749E+02 -0.17577907318E+03  0.25398989222E+03  0.33584574780E+03  0.12499728967E+03 0.  0.
          2    1    1    2  501    0 -0.50128943268E+01  0.17261621412E+03 -0.59960358875E+03  0.62397592112E+03  0.00000000000E+00 0. -1.
          1    1    1    2  502    0 -0.36926299423E+02  0.31628590603E+01  0.30748398015E+02  0.48156196351E+02  0.00000000000E+00 0. -1.
         22    1    3    3    0    0  0.18601656015E+02 -0.16486734859E+01  0.10152063794E+03  0.10322392968E+03  0.00000000000E+00 0.  1.
         22    1    3    3    0    0  0.23337537734E+02 -0.17413039969E+03  0.15246925428E+03  0.23262181812E+03  0.00000000000E+00 0.  1.
</event>
<event>
 7    1  0.6358809E-006  0.1131650E+03  0.7818608E-02  0.1337340E+00
          2   -1    0    0  502    0  0.00000000000E+00  0.00000000000E+00  0.29753956639E+04  0.29753956639E+04  0.00000000000E+00 0. -1.
          1   -1    0    0  501    0 -0.00000000000E+00 -0.00000000000E+00 -0.76311656672E+02  0.76311656672E+02  0.00000000000E+00 0. -1.
         25    2    1    2    0    0  0.78968409335E+02 -0.55536406950E+02  0.21568630011E+03  0.26734197372E+03  0.12502339256E+03 0.  0.
          2    1    1    2  501    0 -0.11852159555E+03  0.20867440386E+02  0.21867136061E+02  0.12231512711E+03  0.00000000000E+00 0. -1.
          1    1    1    2  502    0  0.39553186213E+02  0.34668966564E+02  0.26615305711E+04  0.26620502198E+04  0.00000000000E+00 0. -1.
         22    1    3    3    0    0  0.88831616937E+02  0.44286616837E+01  0.84129799963E+02  0.12242749876E+03  0.00000000000E+00 0.  1.
         22    1    3    3    0    0 -0.98632076017E+01 -0.59965068634E+02  0.13155650015E+03  0.14491447496E+03  0.00000000000E+00 0.  1.
</event>
<event>
 7    1  0.6358809E-006  0.3593514E+03  0.7818608E-02  0.1293564E+00
          2   -1    0    0  502    0  0.00000000000E+00  0.00000000000E+00  0.13219557812E+04  0.13219557812E+04  0.00000000000E+00 0. -1.
          1   -1    0    0  501    0 -0.00000000000E+00 -0.00000000000E+00 -0.29550573494E+03  0.29550573494E+03  0.00000000000E+00 0. -1.
         25    2    1    2    0    0 -0.28458154502E+03  0.20592030026E+03  0.25248920260E+03  0.45029439795E+03  0.12499768626E+03 0.  0.
          2    1    1    2  501    0 -0.21433533037E+02 -0.11994559760E+02 -0.16183593867E+03  0.16368914701E+03  0.00000000000E+00 0. -1.
          1    1    1    2  502    0  0.30601507806E+03 -0.19392574050E+03  0.93579678232E+03  0.10034779712E+04  0.00000000000E+00 0. -1.
         22    1    3    3    0    0 -0.55840954677E+02 -0.98083599660E+01  0.23736012882E+02  0.61463928055E+02  0.00000000000E+00 0.  1.
         22    1    3    3    0    0 -0.22874059034E+03  0.21572866022E+03  0.22875318971E+03  0.38883046989E+03  0.00000000000E+00 0.  1.
</event>
<event>
 7    1  0.6358809E-006  0.5791548E+02  0.7818608E-02  0.1437970E+00
          2   -1    0    0  502    0  0.00000000000E+00  0.00000000000E+00  0.15039915166E+04  0.15039915166E+04  0.00000000000E+00 0. -1.
          1   -1    0    0  501    0 -0.00000000000E+00 -0.00000000000E+00 -0.33847191898E+03  0.33847191898E+03  0.00000000000E+00 0. -1.
         25    2    1    2    0    0  0.70938117744E+01  0.15576105407E+02  0.29650729529E+02  0.12960659411E+03  0.12500306496E+03 0.  0.
          2    1    1    2  501    0 -0.18256102236E+02  0.41791631332E+02 -0.28608764922E+03  0.28969979074E+03  0.00000000000E+00 0. -1.
          1    1    1    2  502    0  0.11162290461E+02 -0.57367736738E+02  0.14219565173E+04  0.14231570507E+04  0.00000000000E+00 0. -1.
         22    1    3    3    0    0  0.47700863610E+02 -0.14857377136E+02  0.53789072084E+02  0.73412385333E+02  0.00000000000E+00 0.  1.
         22    1    3    3    0    0 -0.40607051836E+02  0.30433482543E+02 -0.24138342555E+02  0.56194208774E+02  0.00000000000E+00 0.  1.
</event>
<event>
 7    1  0.6358809E-006  0.6255129E+02  0.7818608E-02  0.1424416E+00
          2   -1    0    0  502    0  0.00000000000E+00  0.00000000000E+00  0.18102699463E+04  0.18102699463E+04  0.00000000000E+00 0. -1.
          1   -1    0    0  501    0 -0.00000000000E+00 -0.00000000000E+00 -0.54225202375E+03  0.54225202375E+03  0.00000000000E+00 0. -1.
         25    2    1    2    0    0 -0.98076692924E+02 -0.47417611630E+02  0.21637386124E+03  0.27260131212E+03  0.12500543970E+03 0.  0.
          2    1    1    2  501    0  0.56634825477E+02  0.25702984870E+02 -0.51190621002E+03  0.51567054865E+03  0.00000000000E+00 0. -1.
          1    1    1    2  502    0  0.41441867447E+02  0.21714626760E+02  0.15635502713E+04  0.15642501093E+04  0.00000000000E+00 0. -1.
         22    1    3    3    0    0 -0.10077837652E+03  0.28169809051E+00  0.19654079767E+03  0.22087246473E+03  0.00000000000E+00 0.  1.
         22    1    3    3    0    0  0.27016835925E+01 -0.47699309721E+02  0.19833063577E+02  0.51728847396E+02  0.00000000000E+00 0.  1.
</event>
<event>
 7    1  0.6358809E-006  0.9940921E+02  0.7818608E-02  0.1327201E+00
          2   -1    0    0  502    0  0.00000000000E+00  0.00000000000E+00  0.12802066906E+03  0.12802066906E+03  0.00000000000E+00 0. -1.
          1   -1    0    0  501    0 -0.00000000000E+00 -0.00000000000E+00 -0.64492027981E+03  0.64492027981E+03  0.00000000000E+00 0. -1.
         25    2    1    2    0    0  0.47431591027E+02  0.10781323041E+03 -0.63559299112E+02  0.18314131831E+03  0.12501003755E+03 0.  0.
          2    1    1    2  501    0 -0.83818643203E+02 -0.53422247975E+02 -0.49977229934E+03  0.50956045050E+03  0.00000000000E+00 0. -1.
          1    1    1    2  502    0  0.36387052175E+02 -0.54390982435E+02  0.46431987700E+02  0.80239180068E+02  0.00000000000E+00 0. -1.
         22    1    3    3    0    0  0.25284155867E+02  0.41693665595E+02  0.36691889277E+02  0.61024134794E+02  0.00000000000E+00 0. -1.
         22    1    3    3    0    0  0.22147435160E+02  0.66119564814E+02 -0.10025118839E+03  0.12211718351E+03  0.00000000000E+00 0. -1.
</event>
<event>
 7    1  0.6358809E-006  0.1211028E+03  0.7818608E-02  0.1433751E+00
          2   -1    0    0  502    0  0.00000000000E+00  0.00000000000E+00  0.22498322262E+03  0.22498322262E+03  0.00000000000E+00 0. -1.
          1   -1    0    0  501    0 -0.00000000000E+00 -0.00000000000E+00 -0.15652990338E+04  0.15652990338E+04  0.00000000000E+00 0. -1.
         25    2    1    2    0    0  0.13166654460E+03 -0.53374594952E+02 -0.56737043948E+02  0.19755542780E+03  0.12499651412E+03 0.  0.
          2    1    1    2  501    0 -0.11347780465E+03  0.40108476323E+02 -0.14347999069E+04  0.14398391142E+04  0.00000000000E+00 0. -1.
          1    1    1    2  502    0 -0.18188739954E+02  0.13266118629E+02  0.15122113961E+03  0.15288771445E+03  0.00000000000E+00 0. -1.
         22    1    3    3    0    0  0.12583125806E+03 -0.69999243619E+02 -0.82796779483E+02  0.16609848376E+03  0.00000000000E+00 0.  1.
         22    1    3    3    0    0  0.58352865384E+01  0.16624648667E+02  0.26059735535E+02  0.31456944042E+02  0.00000000000E+00 0.  1.
</event>
<event>
 7    1  0.6358809E-006  0.5391901E+02  0.7818608E-02  0.1453984E+00
          2   -1    0    0  502    0  0.00000000000E+00  0.00000000000E+00  0.80088612628E+02  0.80088612628E+02  0.00000000000E+00 0. -1.
          1   -1    0    0  501    0 -0.00000000000E+00 -0.00000000000E+00 -0.12226943441E+04  0.12226943441E+04  0.00000000000E+00 0. -1.
         25    2    1    2    0    0 -0.50281748972E+01 -0.69826431629E+02 -0.24047560886E+03  0.27991493664E+03  0.12499136049E+03 0.  0.
          2    1    1    2  501    0  0.36404480923E+02  0.39690967658E+02 -0.95380178450E+03  0.95532115190E+03  0.00000000000E+00 0. -1.
          1    1    1    2  502    0 -0.31376306026E+02  0.30135463971E+02  0.51671661856E+02  0.67546868229E+02  0.00000000000E+00 0. -1.
         22    1    3    3    0    0 -0.29060381627E+02 -0.39856214804E+02 -0.15530103194E+02  0.51712742570E+02  0.00000000000E+00 0. -1.
         22    1    3    3    0    0  0.24032206730E+02 -0.29970216825E+02 -0.22494550567E+03  0.22820219407E+03  0.00000000000E+00 0. -1.
</event>
<event>
 7    1  0.6358809E-006  0.6387702E+02  0.7818608E-02  0.1506810E+00
          2   -1    0    0  502    0  0.00000000000E+00  0.00000000000E+00  0.15483858173E+04  0.15483858173E+04  0.00000000000E+00 0. -1.
          1   -1    0    0  501    0 -0.00000000000E+00 -0.00000000000E+00 -0.23104418858E+03  0.23104418858E+03  0.00000000000E+00 0. -1.
         25    2    1    2    0    0 -0.15254113300E+02 -0.86049969095E+02  0.22274399967E+03  0.26996038026E+03  0.12500572933E+03 0.  0.
          2    1    1    2  501    0 -0.16664486246E+01  0.25233015798E+02 -0.20589683968E+03  0.20744394599E+03  0.00000000000E+00 0. -1.
          1    1    1    2  502    0  0.16920561924E+02  0.60816953297E+02  0.13004944687E+04  0.13020256796E+04  0.00000000000E+00 0. -1.
         22    1    3    3    0    0  0.52459980170E+02 -0.59463204367E+02  0.12684722090E+03  0.14959324732E+03  0.00000000000E+00 0. -1.
         22    1    3    3    0    0 -0.67714093470E+02 -0.26586764728E+02  0.95896778770E+02  0.12036713294E+03  0.00000000000E+00 0. -1.
</event>
<event>
 7    1  0.6358809E-006  0.3625574E+02  0.7818608E-02  0.1594968E+00
          2   -1    0    0  502    0  0.00000000000E+00  0.00000000000E+00  0.17174430090E+04  0.17174430090E+04  0.00000000000E+00 0. -1.
          1   -1    0    0  501    0 -0.00000000000E+00 -0.00000000000E+00 -0.50038026908E+02  0.50038026908E+02  0.00000000000E+00 0. -1.
         25    2    1    2    0    0 -0.15972168016E+02  0.12478611494E+01  0.11431241778E+04  0.11500553180E+04  0.12505071521E+03 0.  0.
          2    1    1    2  501    0 -0.24087487754E+02 -0.77263138354E+01 -0.42357492469E+02  0.49336195233E+02  0.00000000000E+00 0. -1.
          1    1    1    2  502    0  0.40059655770E+02  0.64784526859E+01  0.56663829683E+03  0.56808952270E+03  0.00000000000E+00 0. -1.
         22    1    3    3    0    0 -0.43846421610E+02 -0.48627552435E+02  0.47482867239E+03  0.47932182891E+03  0.00000000000E+00 0.  1.
         22    1    3    3    0    0  0.27874253594E+02  0.49875413585E+02  0.66829550538E+03  0.67073348910E+03  0.00000000000E+00 0.  1.
</event>
<event>
 7    1  0.6358809E-006  0.1093056E+03  0.7818608E-02  0.1312868E+00
          2   -1    0    0  502    0  0.00000000000E+00  0.00000000000E+00  0.84206825842E+02  0.84206825842E+02  0.00000000000E+00 0. -1.
          1   -1    0    0  501    0 -0.00000000000E+00 -0.00000000000E+00 -0.63127426842E+03  0.63127426842E+03  0.00000000000E+00 0. -1.
         25    2    1    2    0    0 -0.82181625669E+01  0.16213153349E+03 -0.24455177504E+03  0.31904042805E+03  0.12500820655E+03 0.  0.
          2    1    1    2  501    0 -0.15198001221E+02 -0.65915561745E+02 -0.28862591416E+03  0.29644689043E+03  0.00000000000E+00 0. -1.
          1    1    1    2  502    0  0.23416163788E+02 -0.96215971748E+02 -0.13889753372E+02  0.99993775780E+02  0.00000000000E+00 0. -1.
         22    1    3    3    0    0  0.24791593909E+02  0.29826135259E+01  0.51167886141E+00  0.24975606644E+02  0.00000000000E+00 0.  1.
         22    1    3    3    0    0 -0.33009756476E+02  0.15914891997E+03 -0.24506345391E+03  0.29406482141E+03  0.00000000000E+00 0.  1.
</event>
<event>
 7    1  0.6358809E-006  0.1182263E+03  0.7818608E-02  0.1317837E+00
          2   -1    0    0  502    0  0.00000000000E+00  0.00000000000E+00  0.15905324798E+04  0.15905324798E+04  0.00000000000E+00 0. -1.
          1   -1    0    0  501    0 -0.00000000000E+00 -0.00000000000E+00 -0.40134550267E+03  0.40134550267E+03  0.00000000000E+00 0. -1.
         25    2    1    2    0    0  0.23998536203E+02  0.95784159044E+02 -0.68751813282E+02  0.17349755250E+03  0.12499621606E+03 0.  0.
          2    1    1    2  501    0  0.58861675440E+02 -0.10586794556E+02 -0.27470289325E+03  0.28113778937E+03  0.00000000000E+00 0. -1.
          1    1    1    2  502    0 -0.82860211644E+02 -0.85197364489E+02  0.15326416837E+04  0.15372426406E+04  0.00000000000E+00 0. -1.
         22    1    3    3    0    0  0.95487547956E+01  0.10746323834E+03 -0.93353148294E+02  0.14266862517E+03  0.00000000000E+00 0.  1.
         22    1    3    3    0    0  0.14449781408E+02 -0.11679079293E+02  0.24601335012E+02  0.30828927329E+02  0.00000000000E+00 0.  1.
</event>
<event>
 7    1  0.6358809E-006  0.1218824E+03  0.7818608E-02  0.1402608E+00
          2   -1    0    0  502    0  0.00000000000E+00  0.00000000000E+00  0.14505413113E+04  0.14505413113E+04  0.00000000000E+00 0. -1.
          1   -1    0    0  501    0 -0.00000000000E+00 -0.00000000000E+00 -0.17809597718E+03  0.17809597718E+03  0.00000000000E+00 0. -1.
         25    2    1    2    0    0  0.24441098687E+02  0.13151345161E+03  0.22315229678E+03  0.28864975105E+03  0.12501430302E+03 0.  0.
          2    1    1    2  501    0 -0.26418444042E+02 -0.10533537285E+02 -0.14085860687E+03  0.14370120641E+03  0.00000000000E+00 0. -1.
          1    1    1    2  502    0  0.19773453544E+01 -0.12097991433E+03  0.11901516442E+04  0.11962863310E+04  0.00000000000E+00 0. -1.
         22    1    3    3    0    0 -0.40717142062E+02  0.10346377264E+03  0.12155520614E+03  0.16473708158E+03  0.00000000000E+00 0. -1.
         22    1    3    3    0    0  0.65158240749E+02  0.28049678971E+02  0.10159709064E+03  0.12391266947E+03  0.00000000000E+00 0. -1.
</event>
<event>
 7    1  0.6358809E-006  0.1436602E+03  0.7818608E-02  0.1305063E+00
          2   -1    0    0  502    0  0.00000000000E+00  0.00000000000E+00  0.15388962478E+04  0.15388962478E+04  0.00000000000E+00 0. -1.
          1   -1    0    0  501    0 -0.00000000000E+00 -0.00000000000E+00 -0.21454701659E+03  0.21454701659E+03  0.00000000000E+00 0. -1.
         25    2    1    2    0    0 -0.94559899140E+02 -0.12980110700E+03  0.24859781658E+03  0.32127333466E+03  0.12500311697E+03 0.  0.
          2    1    1    2  501    0 -0.23701869041E+02  0.49910417848E+02 -0.16975134040E+03  0.17851707474E+03  0.00000000000E+00 0. -1.
          1    1    1    2  502    0  0.11826176818E+03  0.79890689156E+02  0.12455027550E+04  0.12536528549E+04  0.00000000000E+00 0. -1.
         22    1    3    3    0    0 -0.57287890192E+02  0.38375879496E+01  0.11564881705E+03  0.12911730453E+03  0.00000000000E+00 0.  1.
         22    1    3    3    0    0 -0.37272008949E+02 -0.13363869495E+03  0.13294899953E+03  0.19215603013E+03  0.00000000000E+00 0.  1.
</event>
<event>
 7    1  0.6358809E-006  0.1216203E+03  0.7818608E-02  0.1348430E+00
          2   -1    0    0  502    0  0.00000000000E+00  0.00000000000E+00  0.31993919235E+04  0.31993919235E+04  0.00000000000E+00 0. -1.
          1   -1    0    0  501    0 -0.00000000000E+00 -0.00000000000E+00 -0.44713602856E+02  0.44713602856E+02  0.00000000000E+00 0. -1.
         25    2    1    2    0    0 -0.42413104410E+02 -0.93646908065E+02  0.49766546306E+03  0.52332111495E+03  0.12500184564E+03 0.  0.
          2    1    1    2  501    0 -0.44253292842E+02  0.44434650794E+01 -0.14192386763E+02  0.46685352642E+02  0.00000000000E+00 0. -1.
          1    1    1    2  502    0  0.86666397251E+02  0.89203442986E+02  0.26712052443E+04  0.26740990587E+04  0.00000000000E+00 0. -1.
         22    1    3    3    0    0  0.34706097661E+02 -0.15282384364E+02  0.52402129967E+02  0.64684215322E+02  0.00000000000E+00 0.  1.
         22    1    3    3    0    0 -0.77119202071E+02 -0.78364523701E+02  0.44526333309E+03  0.45863689962E+03  0.00000000000E+00 0.  1.
</event>
<event>
 7    1  0.6358809E-006  0.8668284E+02  0.7818608E-02  0.1311219E+00
          2   -1    0    0  502    0  0.00000000000E+00  0.00000000000E+00  0.21497890275E+03  0.21497890275E+03  0.00000000000E+00 0. -1.
          1   -1    0    0  501    0 -0.00000000000E+00 -0.00000000000E+00 -0.11787578934E+04  0.11787578934E+04  0.00000000000E+00 0. -1.
         25    2    1    2    0    0 -0.66516483798E+01  0.29760418175E+02 -0.97214540774E+02  0.16126396512E+03  0.12500189036E+03 0.  0.
          2    1    1    2  501    0 -0.85554800465E+02 -0.13938848873E+02 -0.10356286464E+04  0.10392500222E+04  0.00000000000E+00 0. -1.
          1    1    1    2  502    0  0.92206448845E+02 -0.15821569302E+02  0.16906419659E+03  0.19322280878E+03  0.00000000000E+00 0. -1.
         22    1    3    3    0    0  0.12358816043E+02 -0.34123584157E+02 -0.86435167934E+02  0.93745387009E+02  0.00000000000E+00 0.  1.
         22    1    3    3    0    0 -0.19010464423E+02  0.63884002332E+02 -0.10779372840E+02  0.67518578113E+02  0.00000000000E+00 0.  1.
</event>
<event>
 7    1  0.6358809E-006  0.6896561E+02  0.7818608E-02  0.1366540E+00
          2   -1    0    0  502    0  0.00000000000E+00  0.00000000000E+00  0.16847205343E+04  0.16847205343E+04  0.00000000000E+00 0. -1.
          1   -1    0    0  501    0 -0.00000000000E+00 -0.00000000000E+00 -0.72880694343E+03  0.72880694343E+03  0.00000000000E+00 0. -1.
         25    2    1    2    0    0 -0.16783138226E+02  0.29298822609E+02  0.12046522590E+04  0.12115906401E+04  0.12499887731E+03 0.  0.
          2    1    1    2  501    0 -0.47124313580E+02 -0.50464486666E+02 -0.72130358775E+03  0.72460073906E+03  0.00000000000E+00 0. -1.
          1    1    1    2  502    0  0.63907451806E+02  0.21165664057E+02  0.47256491966E+03  0.47733609860E+03  0.00000000000E+00 0. -1.
         22    1    3    3    0    0 -0.34828494007E+02  0.57781111989E+02  0.10899307215E+04  0.10920167850E+04  0.00000000000E+00 0. -1.
         22    1    3    3    0    0  0.18045355780E+02 -0.28482289379E+02  0.11472153744E+03  0.11957385511E+03  0.00000000000E+00 0. -1.
</event>
<event>
 7    1  0.6358809E-006  0.1166945E+03  0.7818608E-02  0.1356111E+00
          2   -1    0    0  502    0  0.00000000000E+00  0.00000000000E+00  0.20175269203E+04  0.20175269203E+04  0.00000000000E+00 0. -1.
          1   -1    0    0  501    0 -0.00000000000E+00 -0.00000000000E+00 -0.10287271391E+03  0.10287271391E+03  0.00000000000E+00 0. -1.
         25    2    1    2    0    0  0.12864667193E+03 -0.91581140682E+02  0.13915732009E+04  0.14060716528E+04  0.12499779091E+03 0.  0.
          2    1    1    2  501    0 -0.88994323955E+02  0.73882008826E+02 -0.59540333138E+02  0.13009070756E+03  0.00000000000E+00 0. -1.
          1    1    1    2  502    0 -0.39652347973E+02  0.17699131856E+02  0.58262133856E+03  0.58423727382E+03  0.00000000000E+00 0. -1.
         22    1    3    3    0    0  0.66370061314E+02  0.50973509270E+01  0.84022831395E+03  0.84286095388E+03  0.00000000000E+00 0. -1.
         22    1    3    3    0    0  0.62276610614E+02 -0.96678491609E+02  0.55134488697E+03  0.56321069890E+03  0.00000000000E+00 0. -1.
</event>
<event>
 7    1  0.6358809E-006  0.2429287E+03  0.7818608E-02  0.1291636E+00
          2   -1    0    0  502    0  0.00000000000E+00  0.00000000000E+00  0.89539716476E+03  0.89539716476E+03  0.00000000000E+00 0. -1.
          1   -1    0    0  501    0 -0.00000000000E+00 -0.00000000000E+00 -0.17015068673E+04  0.17015068673E+04  0.00000000000E+00 0. -1.
         25    2    1    2    0    0  0.20322948137E+03 -0.10837965233E+03  0.11862058158E+03  0.28764841280E+03  0.12498958305E+03 0.  0.
          2    1    1    2  501    0 -0.22932912754E+03  0.82165720699E+02 -0.16073143977E+04  0.16256699012E+04  0.00000000000E+00 0. -1.
          1    1    1    2  502    0  0.26099646170E+02  0.26213931628E+02  0.68258411365E+03  0.68358571807E+03  0.00000000000E+00 0. -1.
         22    1    3    3    0    0  0.15189063593E+03 -0.83606204178E+02  0.14387459792E+03  0.22530127071E+03  0.00000000000E+00 0. -1.
         22    1    3    3    0    0  0.51338845446E+02 -0.24773448149E+02 -0.25254016335E+02  0.62347142084E+02  0.00000000000E+00 0. -1.
</event>
<event>
 7    1  0.6358809E-006  0.4529105E+02  0.7818608E-02  0.1560040E+00
          2   -1    0    0  502    0  0.00000000000E+00  0.00000000000E+00  0.45331829447E+03  0.45331829447E+03  0.00000000000E+00 0. -1.
          1   -1    0    0  501    0 -0.00000000000E+00 -0.00000000000E+00 -0.55496427234E+03  0.55496427234E+03  0.00000000000E+00 0. -1.
         25    2    1    2    0    0  0.40921457192E+01  0.70151564855E+02 -0.15871177955E+03  0.21389820563E+03  0.12500010278E+03 0.  0.
          2    1    1    2  501    0 -0.12436318000E+01 -0.25111019456E+02 -0.36703196276E+03  0.36789206516E+03  0.00000000000E+00 0. -1.
          1    1    1    2  502    0 -0.28485139192E+01 -0.45040545400E+02  0.42409776444E+03  0.42649229602E+03  0.00000000000E+00 0. -1.
         22    1    3    3    0    0  0.41992505191E+02 -0.67608879871E+01 -0.12384265646E+02  0.44299550045E+02  0.00000000000E+00 0. -1.
         22    1    3    3    0    0 -0.37900359472E+02  0.76912452842E+02 -0.14632751391E+03  0.16959865559E+03  0.00000000000E+00 0. -1.
</event>
<event>
 7    1  0.6358809E-006  0.1286989E+03  0.7818608E-02  0.1387973E+00
          2   -1    0    0  502    0  0.00000000000E+00  0.00000000000E+00  0.24826043355E+03  0.24826043355E+03  0.00000000000E+00 0. -1.
          1   -1    0    0  501    0 -0.00000000000E+00 -0.00000000000E+00 -0.16507391701E+04  0.16507391701E+04  0.00000000000E+00 0. -1.
         25    2    1    2    0    0  0.14847470072E+03 -0.11944250839E+02  0.42769199701E+02  0.19909909116E+03  0.12499536702E+03 0.  0.
          2    1    1    2  501    0 -0.12789052913E+03 -0.10246950159E+02 -0.15681176492E+04  0.15733575401E+04  0.00000000000E+00 0. -1.
          1    1    1    2  502    0 -0.20584171584E+02  0.22191200998E+02  0.12286971288E+03  0.12654297240E+03  0.00000000000E+00 0. -1.
         22    1    3    3    0    0  0.87171980340E+02 -0.62255680314E+02  0.52331883553E+02  0.11921975476E+03  0.00000000000E+00 0. -1.
         22    1    3    3    0    0  0.61302720378E+02  0.50311429475E+02 -0.95626838514E+01  0.79879336402E+02  0.00000000000E+00 0. -1.
</event>
<event>
 7    1  0.6358809E-006  0.5309413E+02  0.7818608E-02  0.1440460E+00
          2   -1    0    0  502    0  0.00000000000E+00  0.00000000000E+00  0.98067929658E+03  0.98067929658E+03  0.00000000000E+00 0. -1.
          1   -1    0    0  501    0 -0.00000000000E+00 -0.00000000000E+00 -0.14006893354E+04  0.14006893354E+04  0.00000000000E+00 0. -1.
         25    2    1    2    0    0  0.42086513788E+02  0.46948830414E+02  0.39393176811E+03  0.41807038381E+03  0.12500056229E+03 0.  0.
          2    1    1    2  501    0 -0.53104949986E+02  0.61985199442E+00 -0.13870737550E+04  0.13880900985E+04  0.00000000000E+00 0. -1.
          1    1    1    2  502    0  0.11018436198E+02 -0.47568682409E+02  0.57313194807E+03  0.57520814961E+03  0.00000000000E+00 0. -1.
         22    1    3    3    0    0  0.43250547373E+02  0.68750202782E+02  0.38659933237E+03  0.39503954741E+03  0.00000000000E+00 0. -1.
         22    1    3    3    0    0 -0.11640335848E+01 -0.21801372367E+02  0.73324357397E+01  0.23030836397E+02  0.00000000000E+00 0. -1.
</event>
<event>
 7    1  0.6358809E-006  0.1350222E+03  0.7818608E-02  0.1248678E+00
          2   -1    0    0  502    0  0.00000000000E+00  0.00000000000E+00  0.97342715632E+03  0.97342715632E+03  0.00000000000E+00 0. -1.
          1   -1    0    0  501    0 -0.00000000000E+00 -0.00000000000E+00 -0.24143357274E+03  0.24143357274E+03  0.00000000000E+00 0. -1.
         25    2    1    2    0    0  0.83512036682E+02 -0.16421831776E+03  0.23426592249E+03  0.32318408375E+03  0.12500205354E+03 0.  0.
          2    1    1    2  501    0  0.12205597515E+02  0.13252385549E+03 -0.17027139863E+03  0.21611084673E+03  0.00000000000E+00 0. -1.
          1    1    1    2  502    0 -0.95717634197E+02  0.31694462269E+02  0.66799905972E+03  0.67556579859E+03  0.00000000000E+00 0. -1.
         22    1    3    3    0    0  0.35167777863E+02 -0.15609251887E+03  0.12372644430E+03  0.20226190957E+03  0.00000000000E+00 0.  1.
         22    1    3    3    0    0  0.48344258819E+02 -0.81257988966E+01  0.11053947819E+03  0.12092217417E+03  0.00000000000E+00 0.  1.
</event>
<event>
 7    1  0.6358809E-006  0.7035943E+02  0.7818608E-02  0.1388053E+00
          2   -1    0    0  502    0  0.00000000000E+00  0.00000000000E+00  0.14423725910E+04  0.14423725910E+04  0.00000000000E+00 0. -1.
          1   -1    0    0  501    0 -0.00000000000E+00 -0.00000000000E+00 -0.26262403592E+03  0.26262403592E+03  0.00000000000E+00 0. -1.
         25    2    1    2    0    0  0.19638935148E+01  0.38000790522E+02  0.24461831339E+02  0.13290297508E+03  0.12496760634E+03 0.  0.
          2    1    1    2  501    0  0.55152101986E+02  0.44253577149E+01 -0.20378406995E+03  0.21116175154E+03  0.00000000000E+00 0. -1.
          1    1    1    2  502    0 -0.57115995501E+02 -0.42426148237E+02  0.13590707937E+04  0.13609319003E+04  0.00000000000E+00 0. -1.
         22    1    3    3    0    0 -0.13038547686E+02  0.90582776161E+00 -0.48206230610E+02  0.49946620700E+02  0.00000000000E+00 0. -1.
         22    1    3    3    0    0  0.15002441200E+02  0.37094962761E+02  0.72668061949E+02  0.82956354377E+02  0.00000000000E+00 0. -1.
</event>
<event>
 7    1  0.6358809E-006  0.1061571E+03  0.7818608E-02  0.1282708E+00
          2   -1    0    0  502    0  0.00000000000E+00  0.00000000000E+00  0.21594648138E+03  0.21594648138E+03  0.00000000000E+00 0. -1.
          1   -1    0    0  501    0 -0.00000000000E+00 -0.00000000000E+00 -0.80383131450E+03  0.80383131450E+03  0.00000000000E+00 0. -1.
         25    2    1    2    0    0  0.41974375026E+02  0.12924399745E+03 -0.47869189782E+03  0.51306618227E+03  0.12500046128E+03 0.  0.
          2    1    1    2  501    0  0.42630177010E+02 -0.92932957871E+02 -0.28799078402E+03  0.30560196061E+03  0.00000000000E+00 0. -1.
          1    1    1    2  502    0 -0.84604552036E+02 -0.36311039579E+02  0.17879784871E+03  0.20110965299E+03  0.00000000000E+00 0. -1.
         22    1    3    3    0    0 -0.22239099626E+02  0.11606572825E+03 -0.28286568109E+03  0.30655965874E+03  0.00000000000E+00 0.  1.
         22    1    3    3    0    0  0.64213474652E+02  0.13178269204E+02 -0.19582621672E+03  0.20650652354E+03  0.00000000000E+00 0.  1.
</event>
<event>
 7    1  0.6358809E-006  0.4557719E+02  0.7818608E-02  0.1488609E+00
          2   -1    0    0  502    0  0.00000000000E+00  0.00000000000E+00  0.88480220806E+03  0.88480220806E+03  0.00000000000E+00 0. -1.
          1   -1    0    0  501    0 -0.00000000000E+00 -0.00000000000E+00 -0.44192297300E+03  0.44192297300E+03  0.00000000000E+00 0. -1.
         25    2    1    2    0    0  0.68697117979E+01  0.10832033518E+02 -0.95590980944E+02  0.15788479612E+03  0.12500178925E+03 0.  0.
          2    1    1    2  501    0 -0.25716004268E+02  0.30871137685E+02 -0.31328784707E+03  0.31585378760E+03  0.00000000000E+00 0. -1.
          1    1    1    2  502    0  0.18846292470E+02 -0.41703171202E+02  0.85175806308E+03  0.85298659735E+03  0.00000000000E+00 0. -1.
         22    1    3    3    0    0 -0.13383376974E+01  0.44547660740E+02  0.10901257596E+02  0.45881615516E+02  0.00000000000E+00 0. -1.
         22    1    3    3    0    0  0.82080494953E+01 -0.33715627222E+02 -0.10649223854E+03  0.11200318060E+03  0.00000000000E+00 0. -1.
</event>
<event>
 7    1  0.6358809E-006  0.1083358E+03  0.7818608E-02  0.1298624E+00
          2   -1    0    0  502    0  0.00000000000E+00  0.00000000000E+00  0.50730752736E+03  0.50730752736E+03  0.00000000000E+00 0. -1.
          1   -1    0    0  501    0 -0.00000000000E+00 -0.00000000000E+00 -0.94924831035E+03  0.94924831035E+03  0.00000000000E+00 0. -1.
         25    2    1    2    0    0 -0.15409032428E+03 -0.54865436039E+02  0.10818258778E+03  0.23255677244E+03  0.12500054399E+03 0.  0.
          2    1    1    2  501    0  0.51580536529E+02  0.58156510393E+02 -0.87749808053E+03  0.88093451107E+03  0.00000000000E+00 0. -1.
          1    1    1    2  502    0  0.10250978775E+03 -0.32910743545E+01  0.32737470976E+03  0.34306455420E+03  0.00000000000E+00 0. -1.
         22    1    3    3    0    0 -0.22629094761E+02 -0.55139054781E+02 -0.39998061968E+01  0.59736000381E+02  0.00000000000E+00 0. -1.
         22    1    3    3    0    0 -0.13146122952E+03  0.27361874259E+00  0.11218239398E+03  0.17282077206E+03  0.00000000000E+00 0. -1.
</event>
<event>
 7    1  0.6358809E-006  0.6478317E+02  0.7818608E-02  0.1461035E+00
          2   -1    0    0  502    0  0.00000000000E+00  0.00000000000E+00  0.18895517399E+04  0.18895517399E+04  0.00000000000E+00 0. -1.
          1   -1    0    0  501    0 -0.00000000000E+00 -0.00000000000E+00 -0.80100071135E+02  0.80100071135E+02  0.00000000000E+00 0. -1.
         25    2    1    2    0    0  0.13286345359E+02  0.95659972573E+02  0.50752787896E+03  0.53154431462E+03  0.12500981225E+03 0.  0.
          2    1    1    2  501    0 -0.10196075250E+02 -0.32848717747E+02 -0.62977793286E+02  0.71757930957E+02  0.00000000000E+00 0. -1.
          1    1    1    2  502    0 -0.30902701098E+01 -0.62811254826E+02  0.13649015831E+04  0.13663495654E+04  0.00000000000E+00 0. -1.
         22    1    3    3    0    0  0.54384609805E+02  0.68571229263E+00  0.16610101668E+03  0.17477901398E+03  0.00000000000E+00 0. -1.
         22    1    3    3    0    0 -0.41098264445E+02  0.94974260281E+02  0.34142686228E+03  0.35676530064E+03  0.00000000000E+00 0. -1.
</event>
<event>
 7    1  0.6358809E-006  0.1367365E+03  0.7818608E-02  0.1285413E+00
          2   -1    0    0  502    0  0.00000000000E+00  0.00000000000E+00  0.15507744408E+03  0.15507744408E+03  0.00000000000E+00 0. -1.
          1   -1    0    0  501    0 -0.00000000000E+00 -0.00000000000E+00 -0.31394501550E+04  0.31394501550E+04  0.00000000000E+00 0. -1.
         25    2    1    2    0    0  0.11088466616E+03 -0.26885037965E+02 -0.52423457022E+03  0.55087498977E+03  0.12499262093E+03 0.  0.
          2    1    1    2  501    0 -0.13680026691E+03 -0.37789306565E+02 -0.25912735468E+04  0.25951572090E+04  0.00000000000E+00 0. -1.
          1    1    1    2  502    0  0.25915600750E+02  0.64674344530E+02  0.13113540609E+03  0.14849540038E+03  0.00000000000E+00 0. -1.
         22    1    3    3    0    0 -0.27312380535E+02 -0.53078323341E+01 -0.62348133582E+02  0.68274658372E+02  0.00000000000E+00 0.  1.
         22    1    3    3    0    0  0.13819704670E+03 -0.21577205631E+02 -0.46188643663E+03  0.48260033140E+03  0.00000000000E+00 0.  1.
</event>
<event>
 7    1  0.6358809E-006  0.1442673E+03  0.7818608E-02  0.1275746E+00
          2   -1    0    0  502    0  0.00000000000E+00  0.00000000000E+00  0.23502690780E+03  0.23502690780E+03  0.00000000000E+00 0. -1.
          1   -1    0    0  501    0 -0.00000000000E+00 -0.00000000000E+00 -0.13226187436E+04  0.13226187436E+04  0.00000000000E+00 0. -1.
         25    2    1    2    0    0  0.16396928067E+03 -0.44501904958E+02 -0.25107282095E+03  0.32791687603E+03  0.12500228646E+03 0.  0.
          2    1    1    2  501    0 -0.10923004961E+03  0.91875627011E+02 -0.10213247608E+04  0.10312500190E+04  0.00000000000E+00 0. -1.
          1    1    1    2  502    0 -0.54739231063E+02 -0.47373722054E+02  0.18480574602E+03  0.19847875634E+03  0.00000000000E+00 0. -1.
         22    1    3    3    0    0  0.74105661912E+02 -0.84358691062E+02 -0.14312456928E+03  0.18191393629E+03  0.00000000000E+00 0.  1.
         22    1    3    3    0    0  0.89863618758E+02  0.39856786105E+02 -0.10794825167E+03  0.14600293974E+03  0.00000000000E+00 0.  1.
</event>
<event>
 7    1  0.6358809E-006  0.1283399E+03  0.7818608E-02  0.1332299E+00
          2   -1    0    0  502    0  0.00000000000E+00  0.00000000000E+00  0.68091953179E+03  0.68091953179E+03  0.00000000000E+00 0. -1.
          1   -1    0    0  501    0 -0.00000000000E+00 -0.00000000000E+00 -0.45949740647E+03  0.45949740647E+03  0.00000000000E+00 0. -1.
         25    2    1    2    0    0 -0.17079781429E+03 -0.37784733910E+02  0.24476888596E+03  0.32578300504E+03  0.12499271720E+03 0.  0.
          2    1    1    2  501    0  0.12269065323E+03  0.31908388322E+02 -0.40784501131E+03  0.42709330934E+03  0.00000000000E+00 0. -1.
          1    1    1    2  502    0  0.48107161060E+02  0.58763455881E+01  0.38449825068E+03  0.38754062388E+03  0.00000000000E+00 0. -1.
         22    1    3    3    0    0 -0.11148102186E+03  0.59002946792E+01  0.22231366601E+03  0.24876936670E+03  0.00000000000E+00 0. -1.
         22    1    3    3    0    0 -0.59316792426E+02 -0.43685028589E+02  0.22455219945E+02  0.77013638333E+02  0.00000000000E+00 0. -1.
</event>
<event>
 7    1  0.6358809E-006  0.9278781E+02  0.7818608E-02  0.1331927E+00
          2   -1    0    0  502    0  0.00000000000E+00  0.00000000000E+00  0.25317998926E+04  0.25317998926E+04  0.00000000000E+00 0. -1.
          1   -1    0    0  501    0 -0.00000000000E+00 -0.00000000000E+00 -0.11353456418E+03  0.11353456418E+03  0.00000000000E+00 0. -1.
         25    2    1    2    0    0  0.46210175597E+02 -0.37311411713E+02  0.77276157037E+03  0.78505657932E+03  0.12500346521E+03 0.  0.
          2    1    1    2  501    0 -0.93558764970E+02 -0.10449006491E+02 -0.85976106739E+02  0.12749241220E+03  0.00000000000E+00 0. -1.
          1    1    1    2  502    0  0.47348589373E+02  0.47760418204E+02  0.17314798648E+04  0.17327854652E+04  0.00000000000E+00 0. -1.
         22    1    3    3    0    0  0.80628049614E+02  0.39070672403E+01  0.55125719203E+03  0.55713610484E+03  0.00000000000E+00 0.  1.
         22    1    3    3    0    0 -0.34417874017E+02 -0.41218478953E+02  0.22150437835E+03  0.22792047448E+03  0.00000000000E+00 0.  1.
</event>
<event>
 7    1  0.6358809E-006  0.1168744E+03  0.7818608E-02  0.1316777E+00
          2   -1    0    0  502    0  0.00000000000E+00  0.00000000000E+00  0.17675191642E+04  0.17675191642E+04  0.00000000000E+00 0. -1.
          1   -1    0    0  501    0 -0.00000000000E+00 -0.00000000000E+00 -0.72651732126E+02  0.72651732126E+02  0.00000000000E+00 0. -1.
         25    2    1    2    0    0 -0.86395445837E+02  0.11916376448E+03  0.10072831924E+03  0.21779604912E+03  0.12499899554E+03 0.  0.
          2    1    1    2  501    0  0.64228992923E+02 -0.62252193594E+02  0.13491218106E+03  0.16187030530E+03  0.00000000000E+00 0. -1.
          1    1    1    2  502    0  0.22166452914E+02 -0.56911570891E+02  0.14592269317E+04  0.14605045419E+04  0.00000000000E+00 0. -1.
         22    1    3    3    0    0 -0.13258765050E+02 -0.17091171712E+01 -0.25209940790E+02  0.28535189623E+02  0.00000000000E+00 0. -1.
         22    1    3    3    0    0 -0.73136680787E+02  0.12087288166E+03  0.12593826003E+03  0.18926085950E+03  0.00000000000E+00 0. -1.
</event>
<event>
 7    1  0.6358809E-006  0.5841724E+02  0.7818608E-02  0.1451232E+00
          2   -1    0    0  502    0  0.00000000000E+00  0.00000000000E+00  0.29449737142E+04  0.29449737142E+04  0.00000000000E+00 0. -1.
          1   -1    0    0  501    0 -0.00000000000E+00 -0.00000000000E+00 -0.14431333792E+04  0.14431333792E+04  0.00000000000E+00 0. -1.
         25    2    1    2    0    0 -0.46126388891E+02  0.66278573213E+02  0.21740561384E+03  0.26345093189E+03  0.12498279709E+03 0.  0.
          2    1    1    2  501    0  0.52384287574E+02 -0.25785307417E+02 -0.14193553023E+04  0.14205556905E+04  0.00000000000E+00 0. -1.
          1    1    1    2  502    0 -0.62578986827E+01 -0.40493265796E+02  0.27037900235E+04  0.27041004710E+04  0.00000000000E+00 0. -1.
         22    1    3    3    0    0 -0.45493297372E+02 -0.26289668820E+02  0.52123742817E+02  0.74011292096E+02  0.00000000000E+00 0.  1.
         22    1    3    3    0    0 -0.63309151937E+00  0.92568242033E+02  0.16528187102E+03  0.18943963980E+03  0.00000000000E+00 0.  1.
</event>
<event>
 7    1  0.6358809E-006  0.6884047E+02  0.7818608E-02  0.1425537E+00
          2   -1    0    0  502    0  0.00000000000E+00  0.00000000000E+00  0.82605061112E+03  0.82605061112E+03  0.00000000000E+00 0. -1.
          1   -1    0    0  501    0 -0.00000000000E+00 -0.00000000000E+00 -0.87023037807E+03  0.87023037807E+03  0.00000000000E+00 0. -1.
         25    2    1    2    0    0 -0.32917413984E+02 -0.80501097584E+01  0.42268704443E+02  0.13623444266E+03  0.12499927832E+03 0.  0.
          2    1    1    2  501    0 -0.21569237246E+02 -0.36212699428E+02 -0.82103358042E+03  0.82211479234E+03  0.00000000000E+00 0. -1.
          1    1    1    2  502    0  0.54486651230E+02  0.44262809186E+02  0.73458510903E+03  0.73793175419E+03  0.00000000000E+00 0. -1.
         22    1    3    3    0    0 -0.17280351768E+00 -0.62993130481E+02  0.75100448440E+01  0.63439460294E+02  0.00000000000E+00 0.  1.
         22    1    3    3    0    0 -0.32744610466E+02  0.54943020723E+02  0.34758659599E+02  0.72794982367E+02  0.00000000000E+00 0.  1.
</event>
<event>
 7    1  0.6358809E-006  0.5330897E+02  0.7818608E-02  0.1441660E+00
          2   -1    0    0  502    0  0.00000000000E+00  0.00000000000E+00  0.13824316632E+03  0.13824316632E+03  0.00000000000E+00 0. -1.
          1   -1    0    0  501    0 -0.00000000000E+00 -0.00000000000E+00 -0.33382951631E+03  0.33382951631E+03  0.00000000000E+00 0. -1.
         25    2    1    2    0    0  0.22805475639E+02 -0.27579014772E+02 -0.18818324095E+03  0.22873355571E+03  0.12500166222E+03 0.  0.
          2    1    1    2  501    0 -0.42211374813E+02 -0.23264230806E+02 -0.11393596079E+03  0.12371106563E+03  0.00000000000E+00 0. -1.
          1    1    1    2  502    0  0.19405899175E+02  0.50843245578E+02  0.10653285176E+03  0.11962806129E+03  0.00000000000E+00 0. -1.
         22    1    3    3    0    0  0.15710921705E+02 -0.12045702430E+02  0.14997401907E+02  0.24836547100E+02  0.00000000000E+00 0.  1.
         22    1    3    3    0    0  0.70945539335E+01 -0.15533312341E+02 -0.20318064286E+03  0.20389700861E+03  0.00000000000E+00 0.  1.
</event>
<event>
 7    1  0.6358809E-006  0.5220164E+02  0.7818608E-02  0.1465104E+00
          2   -1    0    0  502    0  0.00000000000E+00  0.00000000000E+00  0.61828403339E+03  0.61828403339E+03  0.00000000000E+00 0. -1.
          1   -1    0    0  501    0 -0.00000000000E+00 -0.00000000000E+00 -0.98178555917E+02  0.98178555917E+02  0.00000000000E+00 0. -1.
         25    2    1    2    0    0 -0.37386920000E+02  0.12760682508E+02  0.19906890087E+03  0.23835639436E+03  0.12499890653E+03 0.  0.
          2    1    1    2  501    0  0.45441169454E+02  0.27895664256E+02 -0.68255841986E+02  0.86613670577E+02  0.00000000000E+00 0. -1.
          1    1    1    2  502    0 -0.80542494543E+01 -0.40656346764E+02  0.38929241859E+03  0.39149252437E+03  0.00000000000E+00 0. -1.
         22    1    3    3    0    0 -0.29190801318E+02  0.67431570069E+02  0.13526913422E+03  0.15393783874E+03  0.00000000000E+00 0.  1.
         22    1    3    3    0    0 -0.81961186822E+01 -0.54670887561E+02  0.63799766652E+02  0.84418555621E+02  0.00000000000E+00 0.  1.
</event>
<event>
 7    1  0.6358809E-006  0.6428286E+02  0.7818608E-02  0.1534971E+00
          2   -1    0    0  502    0  0.00000000000E+00  0.00000000000E+00  0.89327672642E+02  0.89327672642E+02  0.00000000000E+00 0. -1.
          1   -1    0    0  501    0 -0.00000000000E+00 -0.00000000000E+00 -0.45074059102E+03  0.45074059102E+03  0.00000000000E+00 0. -1.
         25    2    1    2    0    0 -0.15640441873E+02 -0.61308787045E+02 -0.12343290697E+03  0.18671907573E+03  0.12499975972E+03 0.  0.
          2    1    1    2  501    0  0.35245233588E+02  0.54300208635E+02 -0.29009448588E+03  0.29722979307E+03  0.00000000000E+00 0. -1.
          1    1    1    2  502    0 -0.19604791715E+02  0.70085784098E+01  0.52114474474E+02  0.56119394858E+02  0.00000000000E+00 0. -1.
         22    1    3    3    0    0  0.34951625088E+01 -0.97847194721E+02 -0.76605585927E+02  0.12431695569E+03  0.00000000000E+00 0. -1.
         22    1    3    3    0    0 -0.19135604382E+02  0.36538407676E+02 -0.46827321041E+02  0.62402120047E+02  0.00000000000E+00 0. -1.
</event>
<event>
 7    1  0.6358809E-006  0.2065840E+03  0.7818608E-02  0.1274703E+00
          2   -1    0    0  502    0  0.00000000000E+00  0.00000000000E+00  0.14586279212E+04  0.14586279212E+04  0.00000000000E+00 0. -1.
          1   -1    0    0  501    0 -0.00000000000E+00 -0.00000000000E+00 -0.12555017234E+03  0.12555017234E+03  0.00000000000E+00 0. -1.
         25    2    1    2    0    0  0.20880351771E+03 -0.13853212925E+03  0.29077345453E+03  0.40368892750E+03  0.12500195393E+03 0.  0.
          2    1    1    2  501    0 -0.41817741071E+02  0.29304656650E+02 -0.49192210649E+02  0.70903878302E+02  0.00000000000E+00 0. -1.
          1    1    1    2  502    0 -0.16698577664E+03  0.10922747260E+03  0.10914965049E+04  0.11095852877E+04  0.00000000000E+00 0. -1.
         22    1    3    3    0    0  0.68414564234E+02 -0.11858052654E+03  0.12323063828E+03  0.18419469071E+03  0.00000000000E+00 0. -1.
         22    1    3    3    0    0  0.14038895347E+03 -0.19951602706E+02  0.16754281625E+03  0.21949423680E+03  0.00000000000E+00 0. -1.
</event>
<event>
 7    1  0.6358809E-006  0.3978787E+02  0.7818608E-02  0.1557229E+00
          2   -1    0    0  502    0  0.00000000000E+00  0.00000000000E+00  0.28968755555E+03  0.28968755555E+03  0.00000000000E+00 0. -1.
          1   -1    0    0  501    0 -0.00000000000E+00 -0.00000000000E+00 -0.66570440727E+03  0.66570440727E+03  0.00000000000E+00 0. -1.
         25    2    1    2    0    0 -0.80397717175E+01 -0.25900278406E+02 -0.98914734092E+02  0.16168280960E+03  0.12498697511E+03 0.  0.
          2    1    1    2  501    0  0.36071158331E+02  0.17958415951E+02 -0.53382236755E+03  0.53534096916E+03  0.00000000000E+00 0. -1.
          1    1    1    2  502    0 -0.28031386613E+02  0.79418624553E+01  0.25672024993E+03  0.25836818406E+03  0.00000000000E+00 0. -1.
         22    1    3    3    0    0 -0.21078682754E+02  0.47119240288E+02 -0.55244828900E+02  0.75607703259E+02  0.00000000000E+00 0.  1.
         22    1    3    3    0    0  0.13038911037E+02 -0.73019518695E+02 -0.43669905192E+02  0.86075106337E+02  0.00000000000E+00 0.  1.
</event>
<event>
 7    1  0.6358809E-006  0.6280710E+02  0.7818608E-02  0.1496292E+00
          2   -1    0    0  502    0  0.00000000000E+00  0.00000000000E+00  0.13181962619E+04  0.13181962619E+04  0.00000000000E+00 0. -1.
          1   -1    0    0  501    0 -0.00000000000E+00 -0.00000000000E+00 -0.14213238969E+03  0.14213238969E+03  0.00000000000E+00 0. -1.
         25    2    1    2    0    0  0.40275648265E+01  0.85710607672E+02  0.31296568842E+03  0.34775974051E+03  0.12500714158E+03 0.  0.
          2    1    1    2  501    0  0.94581873833E+01 -0.61581391178E+02 -0.11674835553E+03  0.13233254916E+03  0.00000000000E+00 0. -1.
          1    1    1    2  502    0 -0.13485752210E+02 -0.24129216494E+02  0.97984653936E+03  0.98023636195E+03  0.00000000000E+00 0. -1.
         22    1    3    3    0    0  0.89491640359E+01 -0.27580820135E+02  0.25053531816E+02  0.38320603241E+02  0.00000000000E+00 0. -1.
         22    1    3    3    0    0 -0.49215992094E+01  0.11329142781E+03  0.28791215660E+03  0.30943913727E+03  0.00000000000E+00 0. -1.
</event>
<event>
 7    1  0.6358809E-006  0.7320172E+02  0.7818608E-02  0.1397633E+00
          2   -1    0    0  502    0  0.00000000000E+00  0.00000000000E+00  0.27617615209E+03  0.27617615209E+03  0.00000000000E+00 0. -1.
          1   -1    0    0  501    0 -0.00000000000E+00 -0.00000000000E+00 -0.20451094452E+03  0.20451094452E+03  0.00000000000E+00 0. -1.
         25    2    1    2    0    0 -0.32610442017E+02  0.29777835561E+01 -0.11595880985E+02  0.12973863104E+03  0.12500135921E+03 0.  0.
          2    1    1    2  501    0  0.81747011628E+02 -0.64177738214E+01 -0.11803021219E+03  0.14371810158E+03  0.00000000000E+00 0. -1.
          1    1    1    2  502    0 -0.49136569611E+02  0.34399902653E+01  0.20129130075E+03  0.20723036400E+03  0.00000000000E+00 0. -1.
         22    1    3    3    0    0 -0.19532916185E+02  0.53341220776E+02  0.28965192416E+02  0.63763649678E+02  0.00000000000E+00 0.  1.
         22    1    3    3    0    0 -0.13077525833E+02 -0.50363437220E+02 -0.40561073401E+02  0.65974981364E+02  0.00000000000E+00 0.  1.
</event>
<event>
 7    1  0.6358809E-006  0.7141409E+02  0.7818608E-02  0.1436971E+00
          2   -1    0    0  502    0  0.00000000000E+00  0.00000000000E+00  0.28775835910E+04  0.28775835910E+04  0.00000000000E+00 0. -1.
          1   -1    0    0  501    0 -0.00000000000E+00 -0.00000000000E+00 -0.54531010134E+02  0.54531010134E+02  0.00000000000E+00 0. -1.
         25    2    1    2    0    0  0.51113506449E+02 -0.60361308464E+02  0.10269446250E+03  0.18008101193E+03  0.12500776027E+03 0.  0.
          2    1    1    2  501    0 -0.36041311548E+02 -0.94629193756E+01  0.72207770756E+01  0.37956061476E+02  0.00000000000E+00 0. -1.
          1    1    1    2  502    0 -0.15072194901E+02  0.69824227840E+02  0.27131373412E+04  0.27140775277E+04  0.00000000000E+00 0. -1.
         22    1    3    3    0    0  0.61065009452E+02 -0.86125379616E+02  0.10900316266E+03  0.15175047236E+03  0.00000000000E+00 0.  1.
         22    1    3    3    0    0 -0.99515030030E+01  0.25764071152E+02 -0.63087001525E+01  0.28330539564E+02  0.00000000000E+00 0.  1.
</event>
<event>
 7    1  0.6358809E-006  0.7066565E+02  0.7818608E-02  0.1395962E+00
          2   -1    0    0  502    0  0.00000000000E+00  0.00000000000E+00  0.36316061694E+03  0.36316061694E+03  0.00000000000E+00 0. -1.
          1   -1    0    0  501    0 -0.00000000000E+00 -0.00000000000E+00 -0.20996874709E+03  0.20996874709E+03  0.00000000000E+00 0. -1.
         25    2    1    2    0    0  0.15525323630E+02 -0.47954923130E+02  0.15568855793E+03  0.20592267219E+03  0.12499803808E+03 0.  0.
          2    1    1    2  501    0  0.51665825127E+02  0.20766816691E+01 -0.17177639195E+03  0.17939007476E+03  0.00000000000E+00 0. -1.
          1    1    1    2  502    0 -0.67191148757E+02  0.45878241461E+02  0.16927970386E+03  0.18781661707E+03  0.00000000000E+00 0. -1.
         22    1    3    3    0    0  0.14422555064E+02  0.29953903204E+02  0.16345931037E+01  0.33285406808E+02  0.00000000000E+00 0.  1.
         22    1    3    3    0    0  0.11027685661E+01 -0.77908826334E+02  0.15405396483E+03  0.17263726538E+03  0.00000000000E+00 0.  1.
</event>
<event>
 7    1  0.6358809E-006  0.7181434E+02  0.7818608E-02  0.1439843E+00
          2   -1    0    0  502    0  0.00000000000E+00  0.00000000000E+00  0.36748593355E+02  0.36748593355E+02  0.00000000000E+00 0. -1.
          1   -1    0    0  501    0 -0.00000000000E+00 -0.00000000000E+00 -0.79456659191E+03  0.79456659191E+03  0.00000000000E+00 0. -1.
         25    2    1    2    0    0 -0.26737712512E+02 -0.65438945198E+02 -0.51965114309E+03  0.53912628974E+03  0.12499073945E+03 0.  0.
          2    1    1    2  501    0 -0.30164809658E+02  0.20133239179E+02 -0.21170526109E+03  0.21478915391E+03  0.00000000000E+00 0. -1.
          1    1    1    2  502    0  0.56902522170E+02  0.45305706019E+02 -0.26461594372E+02  0.77399741627E+02  0.00000000000E+00 0. -1.
         22    1    3    3    0    0 -0.24749870562E+02 -0.40206669339E+02 -0.49908246542E+02  0.68702004520E+02  0.00000000000E+00 0.  1.
         22    1    3    3    0    0 -0.19878419502E+01 -0.25232275858E+02 -0.46974289655E+03  0.47042428522E+03  0.00000000000E+00 0.  1.
</event>
<event>
 7    1  0.6358809E-006  0.5787951E+02  0.7818608E-02  0.1429175E+00
          2   -1    0    0  502    0  0.00000000000E+00  0.00000000000E+00  0.48807981453E+03  0.48807981453E+03  0.00000000000E+00 0. -1.
          1   -1    0    0  501    0 -0.00000000000E+00 -0.00000000000E+00 -0.91141319404E+03  0.91141319404E+03  0.00000000000E+00 0. -1.
         25    2    1    2    0    0 -0.64711122937E+02 -0.54512672843E+02  0.36125547002E+03  0.39152252103E+03  0.12500083569E+03 0.  0.
          2    1    1    2  501    0  0.48301745033E+02  0.66889927487E+01 -0.88985575239E+03  0.89119081081E+03  0.00000000000E+00 0. -1.
          1    1    1    2  502    0  0.16409377904E+02  0.47823680095E+02  0.10526690286E+03  0.11677967674E+03  0.00000000000E+00 0. -1.
         22    1    3    3    0    0  0.30181780719E+02 -0.49583117538E+01  0.27900892841E+02  0.41400296668E+02  0.00000000000E+00 0. -1.
         22    1    3    3    0    0 -0.94892903656E+02 -0.49554361090E+02  0.33335457717E+03  0.35012222436E+03  0.00000000000E+00 0. -1.
</event>
<event>
 7    1  0.6358809E-006  0.7954883E+02  0.7818608E-02  0.1419051E+00
          2   -1    0    0  502    0  0.00000000000E+00  0.00000000000E+00  0.18643165522E+04  0.18643165522E+04  0.00000000000E+00 0. -1.
          1   -1    0    0  501    0 -0.00000000000E+00 -0.00000000000E+00 -0.10531074121E+03  0.10531074121E+03  0.00000000000E+00 0. -1.
         25    2    1    2    0    0 -0.22248239653E+02  0.38469098706E+02  0.23769318537E+03  0.27220897022E+03  0.12499926949E+03 0.  0.
          2    1    1    2  501    0  0.33270211346E+02 -0.75185105767E+02 -0.68579126905E+02  0.10706448402E+03  0.00000000000E+00 0. -1.
          1    1    1    2  502    0 -0.11021971694E+02  0.36716007062E+02  0.15898917525E+04  0.15903538392E+04  0.00000000000E+00 0. -1.
         22    1    3    3    0    0 -0.73488043884E+02  0.26479756874E+02  0.11866773865E+03  0.14206935741E+03  0.00000000000E+00 0. -1.
         22    1    3    3    0    0  0.51239804231E+02  0.11989341831E+02  0.11902544672E+03  0.13013961281E+03  0.00000000000E+00 0. -1.
</event>
<event>
 7    1  0.6358809E-006  0.1086083E+03  0.7818608E-02  0.1377998E+00
          2   -1    0    0  502    0  0.00000000000E+00  0.00000000000E+00  0.65173150617E+03  0.65173150617E+03  0.00000000000E+00 0. -1.
          1   -1    0    0  501    0 -0.00000000000E+00 -0.00000000000E+00 -0.10109808519E+03  0.10109808519E+03  0.00000000000E+00 0. -1.
         25    2    1    2    0    0 -0.13220024747E+03 -0.44074208444E+02  0.13800816220E+03  0.23257242238E+03  0.12499695010E+03 0.  0.
          2    1    1    2  501    0  0.28885135987E+02  0.26044102627E+02 -0.39910883707E+02  0.55727237513E+02  0.00000000000E+00 0. -1.
          1    1    1    2  502    0  0.10331511149E+03  0.18030105817E+02  0.45253614249E+03  0.46452993147E+03  0.00000000000E+00 0. -1.
         22    1    3    3    0    0 -0.94824524852E+02 -0.16325199953E+02  0.10449599216E+02  0.96785312887E+02  0.00000000000E+00 0.  1.
         22    1    3    3    0    0 -0.37375722622E+02 -0.27749008491E+02  0.12755856298E+03  0.13578710949E+03  0.00000000000E+00 0.  1.
</event>
<event>
 7    1  0.8399213E-006  0.7371974E+02  0.7818608E-02  0.1368081E+00
          2   -1    0    0  502    0  0.00000000000E+00  0.00000000000E+00  0.65760691026E+03  0.65760691026E+03  0.00000000000E+00 0. -1.
          1   -1    0    0  501    0 -0.00000000000E+00 -0.00000000000E+00 -0.25974934405E+04  0.25974934405E+04  0.00000000000E+00 0. -1.
         25    2    1    2    0    0 -0.39565613624E+02 -0.43676772609E+02 -0.26557200384E+03  0.29937887313E+03  0.12500448873E+03 0.  0.
          2    1    1    2  501    0 -0.14940307811E+02  0.73597901196E+02 -0.23128985521E+04  0.23141174508E+04  0.00000000000E+00 0. -1.
          1    1    1    2  502    0  0.54505921435E+02 -0.29921128587E+02  0.63858402567E+03  0.64160402684E+03  0.00000000000E+00 0. -1.
         22    1    3    3    0    0 -0.16878604703E+02 -0.44507956475E+02 -0.18191056984E+02  0.50958414815E+02  0.00000000000E+00 0.  1.
         22    1    3    3    0    0 -0.22687008921E+02  0.83118386559E+00 -0.24738094685E+03  0.24842045831E+03  0.00000000000E+00 0.  1.
</event>
<event>
 7    1  0.6358809E-006  0.7626459E+02  0.7818608E-02  0.1466645E+00
          2   -1    0    0  502    0  0.00000000000E+00  0.00000000000E+00  0.18878552813E+02  0.18878552813E+02  0.00000000000E+00 0. -1.
          1   -1    0    0  501    0 -0.00000000000E+00 -0.00000000000E+00 -0.11784545524E+04  0.11784545524E+04  0.00000000000E+00 0. -1.
         25    2    1    2    0    0 -0.48599115967E+02  0.47360004356E+02 -0.70175047057E+03  0.71601844545E+03  0.12499538870E+03 0.  0.
          2    1    1    2  501    0 -0.23323196798E+02 -0.15593980147E+02 -0.33036762523E+03  0.33155679985E+03  0.00000000000E+00 0. -1.
          1    1    1    2  502    0  0.71922312765E+02 -0.31766024209E+02 -0.12745790377E+03  0.14975785990E+03  0.00000000000E+00 0. -1.
         22    1    3    3    0    0 -0.71817045124E+02  0.38343043165E+02 -0.23684913890E+03  0.25045037737E+03  0.00000000000E+00 0.  1.
         22    1    3    3    0    0  0.23217929157E+02  0.90169611902E+01 -0.46490133168E+03  0.46556806808E+03  0.00000000000E+00 0.  1.
</event>
<event>
 7    1  0.6358809E-006  0.1444741E+03  0.7818608E-02  0.1381891E+00
          2   -1    0    0  502    0  0.00000000000E+00  0.00000000000E+00  0.31899155887E+03  0.31899155887E+03  0.00000000000E+00 0. -1.
          1   -1    0    0  501    0 -0.00000000000E+00 -0.00000000000E+00 -0.22577482621E+03  0.22577482621E+03  0.00000000000E+00 0. -1.
         25    2    1    2    0    0 -0.11836538673E+03 -0.26802016369E+02 -0.40644401686E+02  0.17890114203E+03  0.12499975349E+03 0.  0.
          2    1    1    2  501    0 -0.25814423191E+02 -0.11656083126E+02 -0.91385804266E+02  0.95674520850E+02  0.00000000000E+00 0. -1.
          1    1    1    2  502    0  0.14417980992E+03  0.38458099495E+02  0.22524693862E+03  0.27019072220E+03  0.00000000000E+00 0. -1.
         22    1    3    3    0    0 -0.87878854013E+02 -0.69952913069E+02 -0.12996180391E+00  0.11232150248E+03  0.00000000000E+00 0. -1.
         22    1    3    3    0    0 -0.30486532719E+02  0.43150896700E+02 -0.40514439882E+02  0.66579639546E+02  0.00000000000E+00 0. -1.
</event>
<event>
 7    1  0.6358809E-006  0.1668847E+03  0.7818608E-02  0.1273503E+00
          2   -1    0    0  502    0  0.00000000000E+00  0.00000000000E+00  0.14294809403E+04  0.14294809403E+04  0.00000000000E+00 0. -1.
          1   -1    0    0  501    0 -0.00000000000E+00 -0.00000000000E+00 -0.16867954972E+03  0.16867954972E+03  0.00000000000E+00 0. -1.
         25    2    1    2    0    0  0.19940688146E+03  0.18991495799E+02 -0.93056292495E+01  0.23629582847E+03  0.12500137011E+03 0.  0.
          2    1    1    2  501    0 -0.13554403572E+03 -0.15779991733E+02  0.58332857803E+02  0.14840456885E+03  0.00000000000E+00 0. -1.
          1    1    1    2  502    0 -0.63862845742E+02 -0.32115040664E+01  0.12117741620E+04  0.12134600927E+04  0.00000000000E+00 0. -1.
         22    1    3    3    0    0  0.35550873779E+02  0.50906366355E+02 -0.28389050093E+02  0.68273427679E+02  0.00000000000E+00 0.  1.
         22    1    3    3    0    0  0.16385600768E+03 -0.31914870556E+02  0.19083420843E+02  0.16802240079E+03  0.00000000000E+00 0.  1.
</event>
<event>
 7    1  0.6358809E-006  0.9696100E+02  0.7818608E-02  0.1402193E+00
          2   -1    0    0  502    0  0.00000000000E+00  0.00000000000E+00  0.53505267924E+03  0.53505267924E+03  0.00000000000E+00 0. -1.
          1   -1    0    0  501    0 -0.00000000000E+00 -0.00000000000E+00 -0.54185170663E+02  0.54185170663E+02  0.00000000000E+00 0. -1.
         25    2    1    2    0    0 -0.11562332501E+03  0.49999873867E+01  0.27153757253E+03  0.32054840248E+03  0.12499948751E+03 0.  0.
          2    1    1    2  501    0  0.90522494219E+02  0.20621749988E+02  0.50154352701E+02  0.10552268774E+03  0.00000000000E+00 0. -1.
          1    1    1    2  502    0  0.25100830788E+02 -0.25621737374E+02  0.15917558335E+03  0.16316675968E+03  0.00000000000E+00 0. -1.
         22    1    3    3    0    0 -0.30081961700E+02 -0.23246320041E+02  0.39711230397E+01  0.38224149871E+02  0.00000000000E+00 0.  1.
         22    1    3    3    0    0 -0.85541363307E+02  0.28246307428E+02  0.26756644949E+03  0.28232425261E+03  0.00000000000E+00 0.  1.
</event>
<event>
 7    1  0.6358809E-006  0.1254475E+03  0.7818608E-02  0.1344064E+00
          2   -1    0    0  502    0  0.00000000000E+00  0.00000000000E+00  0.17101243725E+04  0.17101243725E+04  0.00000000000E+00 0. -1.
          1   -1    0    0  501    0 -0.00000000000E+00 -0.00000000000E+00 -0.56617777315E+02  0.56617777315E+02  0.00000000000E+00 0. -1.
         25    2    1    2    0    0  0.22779675055E+02 -0.13554662618E+03  0.30300681752E+03  0.35542961030E+03  0.12500109978E+03 0.  0.
          2    1    1    2  501    0  0.36632871886E+02  0.25727977977E+02 -0.93596716593E+01  0.45732916013E+02  0.00000000000E+00 0. -1.
          1    1    1    2  502    0 -0.59412546941E+02  0.10981864820E+03  0.13598594493E+04  0.13655796235E+04  0.00000000000E+00 0. -1.
         22    1    3    3    0    0  0.61839317943E+02 -0.28824290276E+02  0.80056954050E+02  0.10518582055E+03  0.00000000000E+00 0.  1.
         22    1    3    3    0    0 -0.39059642888E+02 -0.10672233590E+03  0.22294986347E+03  0.25024378974E+03  0.00000000000E+00 0.  1.
</event>
<event>
 7    1  0.6358809E-006  0.1406896E+03  0.7818608E-02  0.1355074E+00
          2   -1    0    0  502    0  0.00000000000E+00  0.00000000000E+00  0.17345131799E+04  0.17345131799E+04  0.00000000000E+00 0. -1.
          1   -1    0    0  501    0 -0.00000000000E+00 -0.00000000000E+00 -0.50360387231E+03  0.50360387231E+03  0.00000000000E+00 0. -1.
         25    2    1    2    0    0  0.10447695744E+03  0.17505584408E+02 -0.21144993868E+03  0.26750373001E+03  0.12500115551E+03 0.  0.
          2    1    1    2  501    0  0.36045805195E+02 -0.45700856076E+01 -0.25994394056E+03  0.26247102314E+03  0.00000000000E+00 0. -1.
          1    1    1    2  502    0 -0.14052276264E+03 -0.12935498801E+02  0.17023031868E+04  0.17081422990E+04  0.00000000000E+00 0. -1.
         22    1    3    3    0    0  0.18516591706E+02  0.49186631631E+01  0.15403988214E+02  0.24583333147E+02  0.00000000000E+00 0. -1.
         22    1    3    3    0    0  0.85960365734E+02  0.12586921245E+02 -0.22685392690E+03  0.24292039686E+03  0.00000000000E+00 0. -1.
</event>
<event>
 7    1  0.6358809E-006  0.4548372E+02  0.7818608E-02  0.1562310E+00
          2   -1    0    0  502    0  0.00000000000E+00  0.00000000000E+00  0.25289659143E+04  0.25289659143E+04  0.00000000000E+00 0. -1.
          1   -1    0    0  501    0 -0.00000000000E+00 -0.00000000000E+00 -0.11086676090E+02  0.11086676090E+02  0.00000000000E+00 0. -1.
         25    2    1    2    0    0  0.45147937803E+02  0.79628808875E+01  0.15442328227E+04  0.15499617875E+04  0.12499915235E+03 0.  0.
          2    1    1    2  501    0 -0.42624110816E+02  0.16586001130E+02  0.56860414399E+02  0.72972713955E+02  0.00000000000E+00 0. -1.
          1    1    1    2  502    0 -0.25238269871E+01 -0.24548882018E+02  0.91678600104E+03  0.91711808892E+03  0.00000000000E+00 0. -1.
         22    1    3    3    0    0  0.62023174846E+02 -0.32504708547E+02  0.50820209471E+03  0.51300370307E+03  0.00000000000E+00 0. -1.
         22    1    3    3    0    0 -0.16875237044E+02  0.40467589435E+02  0.10360307280E+04  0.10369580844E+04  0.00000000000E+00 0. -1.
</event>
<event>
 7    1  0.6358809E-006  0.8340138E+02  0.7818608E-02  0.1471500E+00
          2   -1    0    0  502    0  0.00000000000E+00  0.00000000000E+00  0.16881104431E+03  0.16881104431E+03  0.00000000000E+00 0. -1.
          1   -1    0    0  501    0 -0.00000000000E+00 -0.00000000000E+00 -0.19165525226E+04  0.19165525226E+04  0.00000000000E+00 0. -1.
         25    2    1    2    0    0  0.15412084488E+02  0.10359589507E+03 -0.74679654599E+02  0.17936521205E+03  0.12500074663E+03 0.  0.
          2    1    1    2  501    0 -0.98800391199E+01 -0.22722272234E+02 -0.17753281506E+04  0.17755010445E+04  0.00000000000E+00 0. -1.
          1    1    1    2  502    0 -0.55320453680E+01 -0.80873622833E+02  0.10226632688E+03  0.13049731036E+03  0.00000000000E+00 0. -1.
         22    1    3    3    0    0  0.22852644675E+02  0.10549935165E+03 -0.10349462428E+03  0.14954428716E+03  0.00000000000E+00 0.  1.
         22    1    3    3    0    0 -0.74405601873E+01 -0.19034565861E+01  0.28814969685E+02  0.29820924882E+02  0.00000000000E+00 0.  1.
</event>
<event>
 7    1  0.6358809E-006  0.4498931E+02  0.7818608E-02  0.1504040E+00
          2   -1    0    0  502    0  0.00000000000E+00  0.00000000000E+00  0.41275828373E+03  0.41275828373E+03  0.00000000000E+00 0. -1.
          1   -1    0    0  501    0 -0.00000000000E+00 -0.00000000000E+00 -0.12781561899E+04  0.12781561899E+04  0.00000000000E+00 0. -1.
         25    2    1    2    0    0  0.17456967950E+02 -0.39191933020E+01 -0.12820511554E+03  0.17994510610E+03  0.12499433489E+03 0.  0.
          2    1    1    2  501    0  0.18316707970E+02  0.31674657626E+02 -0.11224572044E+04  0.11230534099E+04  0.00000000000E+00 0. -1.
          1    1    1    2  502    0 -0.35773675920E+02 -0.27755464324E+02  0.38526441377E+03  0.38791595765E+03  0.00000000000E+00 0. -1.
         22    1    3    3    0    0 -0.35330280649E+02 -0.12423069036E+02 -0.12017788239E+03  0.12587805524E+03  0.00000000000E+00 0. -1.
         22    1    3    3    0    0  0.52787248599E+02  0.85038757344E+01 -0.80272331483E+01  0.54067050864E+02  0.00000000000E+00 0. -1.
</event>
<event>
 7    1  0.6358809E-006  0.5400290E+02  0.7818608E-02  0.1504758E+00
          2   -1    0    0  502    0  0.00000000000E+00  0.00000000000E+00  0.65242302263E+03  0.65242302263E+03  0.00000000000E+00 0. -1.
          1   -1    0    0  501    0 -0.00000000000E+00 -0.00000000000E+00 -0.62647680398E+02  0.62647680398E+02  0.00000000000E+00 0. -1.
         25    2    1    2    0    0 -0.79467023510E+02 -0.23426706655E+02  0.29484177611E+03  0.33078812111E+03  0.12500115886E+03 0.  0.
          2    1    1    2  501    0  0.50750450267E+02  0.13656134091E+02 -0.28257862900E+02  0.59670805393E+02  0.00000000000E+00 0. -1.
          1    1    1    2  502    0  0.28716573243E+02  0.97705725640E+01  0.32319142902E+03  0.32461177652E+03  0.00000000000E+00 0. -1.
         22    1    3    3    0    0 -0.59052368295E-01  0.16930574822E+02  0.19985085883E+03  0.20056673110E+03  0.00000000000E+00 0. -1.
         22    1    3    3    0    0 -0.79407971141E+02 -0.40357281477E+02  0.94990917288E+02  0.13022139001E+03  0.00000000000E+00 0. -1.
</event>
<event>
 7    1  0.6358809E-006  0.1015664E+03  0.7818608E-02  0.1303587E+00
          2   -1    0    0  502    0  0.00000000000E+00  0.00000000000E+00  0.20706990059E+04  0.20706990059E+04  0.00000000000E+00 0. -1.
          1   -1    0    0  501    0 -0.00000000000E+00 -0.00000000000E+00 -0.49217883043E+02  0.49217883043E+02  0.00000000000E+00 0. -1.
         25    2    1    2    0    0  0.78087866927E+02  0.11301860643E+03  0.39948331393E+03  0.44054888094E+03  0.12500191212E+03 0.  0.
          2    1    1    2  501    0 -0.91642939389E+02 -0.34972054563E+02  0.59211165380E+02  0.11457501929E+03  0.00000000000E+00 0. -1.
          1    1    1    2  502    0  0.13555072462E+02 -0.78046551868E+02  0.15627866436E+04  0.15647929887E+04  0.00000000000E+00 0. -1.
         22    1    3    3    0    0  0.51335123862E+02  0.89746756144E+02  0.39052063522E+03  0.40397542217E+03  0.00000000000E+00 0.  1.
         22    1    3    3    0    0  0.26752743065E+02  0.23271850288E+02  0.89626787052E+01  0.36573458777E+02  0.00000000000E+00 0.  1.
</event>
<event>
 7    1  0.6358809E-006  0.3211986E+02  0.7818608E-02  0.1575936E+00
          2   -1    0    0  502    0  0.00000000000E+00  0.00000000000E+00  0.59581461822E+02  0.59581461822E+02  0.00000000000E+00 0. -1.
          1   -1    0    0  501    0 -0.00000000000E+00 -0.00000000000E+00 -0.62370499373E+03  0.62370499373E+03  0.00000000000E+00 0. -1.
         25    2    1    2    0    0 -0.12371458344E+02  0.19185293658E+02 -0.10609003033E+03  0.16556407510E+03  0.12504095311E+03 0.  0.
          2    1    1    2  501    0  0.31955249790E+02  0.62326239203E+01 -0.47853726985E+03  0.47964351578E+03  0.00000000000E+00 0. -1.
          1    1    1    2  502    0 -0.19583791446E+02 -0.25417917578E+02  0.20503768274E+02  0.38078864674E+02  0.00000000000E+00 0. -1.
         22    1    3    3    0    0 -0.42251148894E+02  0.61864157149E+02 -0.59438096699E+02  0.95630648130E+02  0.00000000000E+00 0. -1.
         22    1    3    3    0    0  0.29879690549E+02 -0.42678863491E+02 -0.46651933628E+02  0.69933426968E+02  0.00000000000E+00 0. -1.
</event>
<event>
 7    1  0.6358809E-006  0.7378556E+02  0.7818608E-02  0.1356944E+00
          2   -1    0    0  502    0  0.00000000000E+00  0.00000000000E+00  0.15490082438E+04  0.15490082438E+04  0.00000000000E+00 0. -1.
          1   -1    0    0  501    0 -0.00000000000E+00 -0.00000000000E+00 -0.32455443891E+03  0.32455443891E+03  0.00000000000E+00 0. -1.
         25    2    1    2    0    0  0.27743176991E+01 -0.55250720862E+02 -0.52766302078E+02  0.14651913661E+03  0.12499294286E+03 0.  0.
          2    1    1    2  501    0 -0.69880391960E+02  0.24573644701E+02 -0.21787793320E+03  0.23012589374E+03  0.00000000000E+00 0. -1.
          1    1    1    2  502    0  0.67106074261E+02  0.30677076161E+02  0.14950980402E+04  0.14969176523E+04  0.00000000000E+00 0. -1.
         22    1    3    3    0    0  0.47703600668E+02 -0.57285284356E+02 -0.66076116143E+02  0.99615713845E+02  0.00000000000E+00 0.  1.
         22    1    3    3    0    0 -0.44929282969E+02  0.20345634937E+01  0.13309814065E+02  0.46903422766E+02  0.00000000000E+00 0.  1.
</event>
<event>
 7    1  0.6358809E-006  0.1092131E+03  0.7818608E-02  0.1330162E+00
          2   -1    0    0  502    0  0.00000000000E+00  0.00000000000E+00  0.14567325988E+04  0.14567325988E+04  0.00000000000E+00 0. -1.
          1   -1    0    0  501    0 -0.00000000000E+00 -0.00000000000E+00 -0.32583440910E+03  0.32583440910E+03  0.00000000000E+00 0. -1.
         25    2    1    2    0    0 -0.33127589098E+02  0.84290898976E+02  0.10556127635E+03  0.18698538403E+03  0.12497182869E+03 0.  0.
          2    1    1    2  501    0  0.52339224128E+02  0.25063473830E+02 -0.27978789792E+03  0.28574261132E+03  0.00000000000E+00 0. -1.
          1    1    1    2  502    0 -0.19211635030E+02 -0.10935437281E+03  0.13051248113E+04  0.13098390126E+04  0.00000000000E+00 0. -1.
         22    1    3    3    0    0 -0.68687483685E+02  0.23436691531E+02  0.88527063933E+02  0.11447397072E+03  0.00000000000E+00 0.  1.
         22    1    3    3    0    0  0.35559894587E+02  0.60854207445E+02  0.17034212412E+02  0.72511413303E+02  0.00000000000E+00 0.  1.
</event>
<event>
 7    1  0.6358809E-006  0.8349876E+02  0.7818608E-02  0.1355386E+00
          2   -1    0    0  502    0  0.00000000000E+00  0.00000000000E+00  0.55297354860E+02  0.55297354860E+02  0.00000000000E+00 0. -1.
          1   -1    0    0  501    0 -0.00000000000E+00 -0.00000000000E+00 -0.65390352193E+03  0.65390352193E+03  0.00000000000E+00 0. -1.
         25    2    1    2    0    0  0.54446766269E+02 -0.65038886093E+02 -0.36436998098E+03  0.39443953324E+03  0.12499022074E+03 0.  0.
          2    1    1    2  501    0 -0.57390696336E+02 -0.20846866698E+02 -0.21916737417E+03  0.22751400348E+03  0.00000000000E+00 0. -1.
          1    1    1    2  502    0  0.29439300668E+01  0.85885752791E+02 -0.15068811912E+02  0.87247340069E+02  0.00000000000E+00 0. -1.
         22    1    3    3    0    0  0.11872535067E+02 -0.67389758300E+02 -0.33676033039E+03  0.34364204740E+03  0.00000000000E+00 0. -1.
         22    1    3    3    0    0  0.42574231202E+02  0.23508722068E+01 -0.27609650593E+02  0.50797485847E+02  0.00000000000E+00 0. -1.
</event>
<event>
 7    1  0.6358809E-006  0.8195807E+02  0.7818608E-02  0.1382024E+00
          2   -1    0    0  502    0  0.00000000000E+00  0.00000000000E+00  0.29910456761E+03  0.29910456761E+03  0.00000000000E+00 0. -1.
          1   -1    0    0  501    0 -0.00000000000E+00 -0.00000000000E+00 -0.43092209402E+03  0.43092209402E+03  0.00000000000E+00 0. -1.
         25    2    1    2    0    0 -0.62507921258E+02  0.99779629965E+02  0.48975757489E+02  0.17856835458E+03  0.12499927064E+03 0.  0.
          2    1    1    2  501    0  0.63541614085E+02 -0.49915556446E+02 -0.35818633030E+03  0.36718734552E+03  0.00000000000E+00 0. -1.
          1    1    1    2  502    0 -0.10336928271E+01 -0.49864073519E+02  0.17739304641E+03  0.18427096153E+03  0.00000000000E+00 0. -1.
         22    1    3    3    0    0 -0.59610052167E+02 -0.43279544129E+01 -0.72623515616E+01  0.60206571560E+02  0.00000000000E+00 0.  1.
         22    1    3    3    0    0 -0.28978690914E+01  0.10410758438E+03  0.56238109050E+02  0.11836178302E+03  0.00000000000E+00 0.  1.
</event>
<event>
 7    1  0.6358809E-006  0.3076023E+02  0.7818608E-02  0.1593880E+00
          2   -1    0    0  502    0  0.00000000000E+00  0.00000000000E+00  0.15602008188E+03  0.15602008188E+03  0.00000000000E+00 0. -1.
          1   -1    0    0  501    0 -0.00000000000E+00 -0.00000000000E+00 -0.61875032701E+03  0.61875032701E+03  0.00000000000E+00 0. -1.
         25    2    1    2    0    0  0.10066887950E+00 -0.19239336655E+02  0.38531251726E+02  0.13221298853E+03  0.12500181906E+03 0.  0.
          2    1    1    2  501    0 -0.29534758427E+02  0.53355320851E+01 -0.56774206689E+03  0.56853480489E+03  0.00000000000E+00 0. -1.
          1    1    1    2  502    0  0.29434089548E+02  0.13903804570E+02  0.66480570034E+02  0.74022615470E+02  0.00000000000E+00 0. -1.
         22    1    3    3    0    0 -0.78521607964E+01 -0.23840488980E+02  0.83047848811E+02  0.86758115103E+02  0.00000000000E+00 0. -1.
         22    1    3    3    0    0  0.79528296759E+01  0.46011523249E+01 -0.44516597086E+02  0.45454873431E+02  0.00000000000E+00 0. -1.
</event>
<event>
 7    1  0.6358809E-006  0.7643606E+02  0.7818608E-02  0.1374320E+00
          2   -1    0    0  502    0  0.00000000000E+00  0.00000000000E+00  0.74635306873E+03  0.74635306873E+03  0.00000000000E+00 0. -1.
          1   -1    0    0  501    0 -0.00000000000E+00 -0.00000000000E+00 -0.53507201784E+02  0.53507201784E+02  0.00000000000E+00 0. -1.
         25    2    1    2    0    0  0.86939550523E+02  0.41423472914E+02  0.43547219075E+03  0.46318016515E+03  0.12500178768E+03 0.  0.
          2    1    1    2  501    0 -0.14296181684E+02 -0.55132278962E+02 -0.11261875115E+02  0.58058408739E+02  0.00000000000E+00 0. -1.
          1    1    1    2  502    0 -0.72643368839E+02  0.13708806048E+02  0.26863555131E+03  0.27862169662E+03  0.00000000000E+00 0. -1.
         22    1    3    3    0    0  0.39994027003E+02  0.27447059573E+02  0.39943583049E+03  0.40237028463E+03  0.00000000000E+00 0.  1.
         22    1    3    3    0    0  0.46945523520E+02  0.13976413341E+02  0.36036360258E+02  0.60809880522E+02  0.00000000000E+00 0.  1.
</event>
<event>
 7    1  0.6358809E-006  0.7587887E+02  0.7818608E-02  0.1375361E+00
          2   -1    0    0  502    0  0.00000000000E+00  0.00000000000E+00  0.13056755762E+03  0.13056755762E+03  0.00000000000E+00 0. -1.
          1   -1    0    0  501    0 -0.00000000000E+00 -0.00000000000E+00 -0.22883269713E+03  0.22883269713E+03  0.00000000000E+00 0. -1.
         25    2    1    2    0    0 -0.14973443512E+02  0.23256221640E+02 -0.11046637411E+03  0.16909394973E+03  0.12499955267E+03 0.  0.
          2    1    1    2  501    0 -0.65139946636E+01  0.56510967944E+02 -0.58481157731E+02  0.81584112632E+02  0.00000000000E+00 0. -1.
          1    1    1    2  502    0  0.21487438176E+02 -0.79767189584E+02  0.70682392328E+02  0.10872219239E+03  0.00000000000E+00 0. -1.
         22    1    3    3    0    0 -0.42511245370E+02  0.39865043856E+02 -0.12177717344E+03  0.13500410244E+03  0.00000000000E+00 0. -1.
         22    1    3    3    0    0  0.27537801858E+02 -0.16608822216E+02  0.11310799328E+02  0.34089847286E+02  0.00000000000E+00 0. -1.
</event>
<event>
 7    1  0.6358809E-006  0.5546595E+02  0.7818608E-02  0.1499063E+00
          2   -1    0    0  502    0  0.00000000000E+00  0.00000000000E+00  0.27448498222E+03  0.27448498222E+03  0.00000000000E+00 0. -1.
          1   -1    0    0  501    0 -0.00000000000E+00 -0.00000000000E+00 -0.86485390079E+03  0.86485390079E+03  0.00000000000E+00 0. -1.
         25    2    1    2    0    0  0.66557881865E+02  0.96815520142E+01 -0.15159419839E+03  0.20767632428E+03  0.12499988238E+03 0.  0.
          2    1    1    2  501    0 -0.21248636023E+02  0.22169967165E+02 -0.68175693340E+03  0.68244818720E+03  0.00000000000E+00 0. -1.
          1    1    1    2  502    0 -0.45309245842E+02 -0.31851519180E+02  0.24298221322E+03  0.24921437153E+03  0.00000000000E+00 0. -1.
         22    1    3    3    0    0  0.84994548750E+02 -0.18354936168E+02 -0.15084514434E+03  0.17411270652E+03  0.00000000000E+00 0.  1.
         22    1    3    3    0    0 -0.18436666885E+02  0.28036488182E+02 -0.74905404627E+00  0.33563617764E+02  0.00000000000E+00 0.  1.
</event>
<event>
 7    1  0.6358809E-006  0.3642238E+02  0.7818608E-02  0.1552977E+00
          2   -1    0    0  502    0  0.00000000000E+00  0.00000000000E+00  0.23656990958E+03  0.23656990958E+03  0.00000000000E+00 0. -1.
          1   -1    0    0  501    0 -0.00000000000E+00 -0.00000000000E+00 -0.10393566002E+04  0.10393566002E+04  0.00000000000E+00 0. -1.
         25    2    1    2    0    0  0.52580292984E+02  0.12709681669E+02 -0.78823019435E+03  0.79991157093E+03  0.12500183525E+03 0.  0.
          2    1    1    2  501    0 -0.18947155019E+02 -0.26653650507E+02 -0.24274610339E+03  0.24493893623E+03  0.00000000000E+00 0. -1.
          1    1    1    2  502    0 -0.33633137965E+02  0.13943968837E+02  0.22818960707E+03  0.23107600267E+03  0.00000000000E+00 0. -1.
         22    1    3    3    0    0  0.39814324906E+02  0.47367237716E+02 -0.17585790172E+03  0.18642649295E+03  0.00000000000E+00 0. -1.
         22    1    3    3    0    0  0.12765968078E+02 -0.34657556047E+02 -0.61237229263E+03  0.61348507798E+03  0.00000000000E+00 0. -1.
</event>
<event>
 7    1  0.6358809E-006  0.3123916E+02  0.7818608E-02  0.1605427E+00
          2   -1    0    0  502    0  0.00000000000E+00  0.00000000000E+00  0.64484360677E+03  0.64484360677E+03  0.00000000000E+00 0. -1.
          1   -1    0    0  501    0 -0.00000000000E+00 -0.00000000000E+00 -0.43111775560E+03  0.43111775560E+03  0.00000000000E+00 0. -1.
         25    2    1    2    0    0  0.27068634429E+02 -0.51166512068E+02  0.12361026592E+03  0.18508164403E+03  0.12499997676E+03 0.  0.
          2    1    1    2  501    0 -0.10066282852E+02  0.29465295859E+02 -0.39938824677E+03  0.40060018144E+03  0.00000000000E+00 0. -1.
          1    1    1    2  502    0 -0.17002351577E+02  0.21701216209E+02  0.48950383201E+03  0.49027953689E+03  0.00000000000E+00 0. -1.
         22    1    3    3    0    0 -0.37730000122E+01 -0.68612479054E+01  0.13043423871E+03  0.13066905861E+03  0.00000000000E+00 0. -1.
         22    1    3    3    0    0  0.30841634441E+02 -0.44305264163E+02 -0.68239727816E+01  0.54412585420E+02  0.00000000000E+00 0. -1.
</event>
<event>
 7    1  0.6358809E-006  0.1579039E+03  0.7818608E-02  0.1363240E+00
          2   -1    0    0  502    0  0.00000000000E+00  0.00000000000E+00  0.82296227876E+03  0.82296227876E+03  0.00000000000E+00 0. -1.
          1   -1    0    0  501    0 -0.00000000000E+00 -0.00000000000E+00 -0.20270241041E+04  0.20270241041E+04  0.00000000000E+00 0. -1.
         25    2    1    2    0    0 -0.11499119469E+03  0.58909637050E+02  0.89699440479E+02  0.20090199441E+03  0.12498920570E+03 0.  0.
          2    1    1    2  501    0  0.13724282907E+03 -0.79362740778E+02 -0.19678963986E+04  0.19742720872E+04  0.00000000000E+00 0. -1.
          1    1    1    2  502    0 -0.22251634381E+02  0.20453103728E+02  0.67413513277E+03  0.67481230125E+03  0.00000000000E+00 0. -1.
         22    1    3    3    0    0 -0.11317383648E+03  0.89676836481E+02  0.89873159776E+02  0.17008067824E+03  0.00000000000E+00 0. -1.
         22    1    3    3    0    0 -0.18173582158E+01 -0.30767199430E+02 -0.17371929726E+00  0.30821316164E+02  0.00000000000E+00 0. -1.
</event>
<event>
 7    1  0.6358809E-006  0.1087274E+03  0.7818608E-02  0.1388386E+00
          2   -1    0    0  502    0  0.00000000000E+00  0.00000000000E+00  0.13247653662E+04  0.13247653662E+04  0.00000000000E+00 0. -1.
          1   -1    0    0  501    0 -0.00000000000E+00 -0.00000000000E+00 -0.14828736246E+04  0.14828736246E+04  0.00000000000E+00 0. -1.
         25    2    1    2    0    0 -0.20627434500E+02 -0.71850036647E+02  0.34999211862E+02  0.14982420695E+03  0.12503771166E+03 0.  0.
          2    1    1    2  501    0  0.39619830891E+02  0.10208918528E+03 -0.14230984599E+04  0.14273055592E+04  0.00000000000E+00 0. -1.
          1    1    1    2  502    0 -0.18992396391E+02 -0.30239148635E+02  0.12299909896E+04  0.12305092246E+04  0.00000000000E+00 0. -1.
         22    1    3    3    0    0 -0.46385631411E+02 -0.98100317388E+02  0.21340568369E+02  0.11059258082E+03  0.00000000000E+00 0. -1.
         22    1    3    3    0    0  0.25758196910E+02  0.26250280742E+02  0.13658643494E+02  0.39231626135E+02  0.00000000000E+00 0. -1.
</event>
<event>
 7    1  0.6358809E-006  0.3574960E+02  0.7818608E-02  0.1546500E+00
          2   -1    0    0  502    0  0.00000000000E+00  0.00000000000E+00  0.10397326756E+03  0.10397326756E+03  0.00000000000E+00 0. -1.
          1   -1    0    0  501    0 -0.00000000000E+00 -0.00000000000E+00 -0.90420960023E+03  0.90420960023E+03  0.00000000000E+00 0. -1.
         25    2    1    2    0    0 -0.97178943594E+01 -0.45993393542E+01 -0.23942925793E+03  0.27030796171E+03  0.12499773284E+03 0.  0.
          2    1    1    2  501    0  0.15259495134E+02 -0.31201466700E+02 -0.64514824322E+03  0.64608253300E+03  0.00000000000E+00 0. -1.
          1    1    1    2  502    0 -0.55416007750E+01  0.35800806054E+02  0.84341168492E+02  0.91792373082E+02  0.00000000000E+00 0. -1.
         22    1    3    3    0    0  0.23237283224E+02  0.49895000640E+02 -0.15549081565E+03  0.16494507017E+03  0.00000000000E+00 0. -1.
         22    1    3    3    0    0 -0.32955177584E+02 -0.54494339994E+02 -0.83938442281E+02  0.10536289154E+03  0.00000000000E+00 0. -1.
</event>
<event>
 7    1  0.6358809E-006  0.5798422E+02  0.7818608E-02  0.1425845E+00
          2   -1    0    0  502    0  0.00000000000E+00  0.00000000000E+00  0.14012068117E+04  0.14012068117E+04  0.00000000000E+00 0. -1.
          1   -1    0    0  501    0 -0.00000000000E+00 -0.00000000000E+00 -0.29232482243E+03  0.29232482243E+03  0.00000000000E+00 0. -1.
         25    2    1    2    0    0 -0.35573910038E+02 -0.40989024359E+02  0.44444660884E+03  0.46487875347E+03  0.12503545147E+03 0.  0.
          2    1    1    2  501    0  0.58037524635E+02 -0.35949876101E+01 -0.27844491683E+03  0.28445184111E+03  0.00000000000E+00 0. -1.
          1    1    1    2  502    0 -0.22463614597E+02  0.44584011969E+02  0.94288029725E+03  0.94420103952E+03  0.00000000000E+00 0. -1.
         22    1    3    3    0    0 -0.68780125371E+01  0.19616811413E+02  0.34079013810E+03  0.34142355597E+03  0.00000000000E+00 0. -1.
         22    1    3    3    0    0 -0.28695897501E+02 -0.60605835772E+02  0.10365647074E+03  0.12345519750E+03  0.00000000000E+00 0. -1.
</event>
<event>
 7    1  0.6358809E-006  0.6673888E+02  0.7818608E-02  0.1414277E+00
          2   -1    0    0  502    0  0.00000000000E+00  0.00000000000E+00  0.40756901507E+02  0.40756901507E+02  0.00000000000E+00 0. -1.
          1   -1    0    0  501    0 -0.00000000000E+00 -0.00000000000E+00 -0.16062669025E+04  0.16062669025E+04  0.00000000000E+00 0. -1.
         25    2    1    2    0    0 -0.46031581514E+02 -0.71304458620E+02 -0.45379923829E+03  0.47829401789E+03  0.12501274557E+03 0.  0.
          2    1    1    2  501    0  0.47145347483E+02  0.50030073298E+01 -0.11004486050E+04  0.11014694032E+04  0.00000000000E+00 0. -1.
          1    1    1    2  502    0 -0.11137659694E+01  0.66301451290E+02 -0.11262157691E+02  0.67260382943E+02  0.00000000000E+00 0. -1.
         22    1    3    3    0    0 -0.72562607236E+02 -0.33628842960E+01 -0.29053066803E+03  0.29947405568E+03  0.00000000000E+00 0. -1.
         22    1    3    3    0    0  0.26531025722E+02 -0.67941574324E+02 -0.16326857026E+03  0.17881996221E+03  0.00000000000E+00 0. -1.
</event>
<event>
 7    1  0.6358809E-006  0.7504335E+02  0.7818608E-02  0.1418598E+00
          2   -1    0    0  502    0  0.00000000000E+00  0.00000000000E+00  0.35114871960E+03  0.35114871960E+03  0.00000000000E+00 0. -1.
          1   -1    0    0  501    0 -0.00000000000E+00 -0.00000000000E+00 -0.69581614405E+03  0.69581614405E+03  0.00000000000E+00 0. -1.
         25    2    1    2    0    0  0.25646888257E+02  0.10948731767E+03 -0.11535314569E+03  0.20390263071E+03  0.12499879593E+03 0.  0.
          2    1    1    2  501    0 -0.19712444149E+02 -0.35697225026E+02 -0.53093047187E+03  0.53249416737E+03  0.00000000000E+00 0. -1.
          1    1    1    2  502    0 -0.59344441073E+01 -0.73790092646E+02  0.30161619311E+03  0.31056806556E+03  0.00000000000E+00 0. -1.
         22    1    3    3    0    0 -0.10481536834E+02  0.83657434760E+02 -0.44403004824E+01  0.84428344017E+02  0.00000000000E+00 0.  1.
         22    1    3    3    0    0  0.36128425090E+02  0.25829882912E+02 -0.11091284520E+03  0.11947428670E+03  0.00000000000E+00 0.  1.
</event>
<event>
 7    1  0.6358809E-006  0.5661912E+02  0.7818608E-02  0.1520425E+00
          2   -1    0    0  502    0  0.00000000000E+00  0.00000000000E+00  0.11226763244E+04  0.11226763244E+04  0.00000000000E+00 0. -1.
          1   -1    0    0  501    0 -0.00000000000E+00 -0.00000000000E+00 -0.96374445227E+02  0.96374445227E+02  0.00000000000E+00 0. -1.
         25    2    1    2    0    0  0.35477371914E+02  0.34377233450E+02  0.15313329718E+03  0.20375255209E+03  0.12499943073E+03 0.  0.
          2    1    1    2  501    0 -0.17094546224E+02  0.19625271398E+02 -0.67788744304E+02  0.72613281446E+02  0.00000000000E+00 0. -1.
          1    1    1    2  502    0 -0.18382825690E+02 -0.54002504848E+02  0.94095732627E+03  0.94268493605E+03  0.00000000000E+00 0. -1.
         22    1    3    3    0    0  0.25294215685E+02 -0.22379034247E+02  0.14078942119E+03  0.14478356136E+03  0.00000000000E+00 0. -1.
         22    1    3    3    0    0  0.10183156229E+02  0.56756267697E+02  0.12343875989E+02  0.58968990734E+02  0.00000000000E+00 0. -1.
</event>
<event>
 7    1  0.6358809E-006  0.6706336E+02  0.7818608E-02  0.1393821E+00
          2   -1    0    0  502    0  0.00000000000E+00  0.00000000000E+00  0.16794838656E+03  0.16794838656E+03  0.00000000000E+00 0. -1.
          1   -1    0    0  501    0 -0.00000000000E+00 -0.00000000000E+00 -0.11329728784E+04  0.11329728784E+04  0.00000000000E+00 0. -1.
         25    2    1    2    0    0  0.26981923003E+02 -0.15130111133E+02 -0.50768259862E+03  0.52375885063E+03  0.12499907293E+03 0.  0.
          2    1    1    2  501    0 -0.18834713422E+02 -0.52124996275E+02 -0.60876102511E+03  0.61127878039E+03  0.00000000000E+00 0. -1.
          1    1    1    2  502    0 -0.81472095804E+01  0.67255107407E+02  0.15141913191E+03  0.16588363393E+03  0.00000000000E+00 0. -1.
         22    1    3    3    0    0 -0.15361338628E+02  0.48800983068E+02 -0.17316129813E+03  0.18056118587E+03  0.00000000000E+00 0. -1.
         22    1    3    3    0    0  0.42343261631E+02 -0.63931094200E+02 -0.33452130049E+03  0.34319766476E+03  0.00000000000E+00 0. -1.
</event>
<event>
 7    1  0.6358809E-006  0.8569334E+02  0.7818608E-02  0.1365592E+00
          2   -1    0    0  502    0  0.00000000000E+00  0.00000000000E+00  0.91650900335E+03  0.91650900335E+03  0.00000000000E+00 0. -1.
          1   -1    0    0  501    0 -0.00000000000E+00 -0.00000000000E+00 -0.52995640407E+03  0.52995640407E+03  0.00000000000E+00 0. -1.
         25    2    1    2    0    0 -0.37292730093E+01 -0.52893986863E+02 -0.17475620005E+03  0.22130404840E+03  0.12499628419E+03 0.  0.
          2    1    1    2  501    0  0.48553315358E+02  0.84086853351E+02 -0.32396587715E+03  0.33820395163E+03  0.00000000000E+00 0. -1.
          1    1    1    2  502    0 -0.44824042349E+02 -0.31192866488E+02  0.88527467648E+03  0.88695740738E+03  0.00000000000E+00 0. -1.
         22    1    3    3    0    0 -0.55716130402E+02 -0.59490016524E+02 -0.87983232285E+02  0.11993497578E+03  0.00000000000E+00 0. -1.
         22    1    3    3    0    0  0.51986857393E+02  0.65960296617E+01 -0.86772967763E+02  0.10136907262E+03  0.00000000000E+00 0. -1.
</event>
<event>
 7    1  0.6358809E-006  0.9061157E+02  0.7818608E-02  0.1367592E+00
          2   -1    0    0  502    0  0.00000000000E+00  0.00000000000E+00  0.36845709264E+04  0.36845709264E+04  0.00000000000E+00 0. -1.
          1   -1    0    0  501    0 -0.00000000000E+00 -0.00000000000E+00 -0.31083487934E+03  0.31083487934E+03  0.00000000000E+00 0. -1.
         25    2    1    2    0    0 -0.79244665628E+02 -0.54991391923E+02  0.16074846156E+04  0.16152204015E+04  0.12500554307E+03 0.  0.
          2    1    1    2  501    0  0.41711394326E+02 -0.28984459109E+02 -0.30383754414E+03  0.30805387924E+03  0.00000000000E+00 0. -1.
          1    1    1    2  502    0  0.37533271302E+02  0.83975851033E+02  0.20700889757E+04  0.20721315251E+04  0.00000000000E+00 0. -1.
         22    1    3    3    0    0 -0.53951317643E+02  0.31597250679E+02  0.86908068470E+03  0.87132678568E+03  0.00000000000E+00 0.  1.
         22    1    3    3    0    0 -0.25293347985E+02 -0.86588642603E+02  0.73840393086E+03  0.74389361578E+03  0.00000000000E+00 0.  1.
</event>
<event>
 7    1  0.6358809E-006  0.1441310E+03  0.7818608E-02  0.1218004E+00
          2   -1    0    0  502    0  0.00000000000E+00  0.00000000000E+00  0.12147445912E+04  0.12147445912E+04  0.00000000000E+00 0. -1.
          1   -1    0    0  501    0 -0.00000000000E+00 -0.00000000000E+00 -0.51691041584E+03  0.51691041584E+03  0.00000000000E+00 0. -1.
         25    2    1    2    0    0 -0.14824205802E+03 -0.88167617388E+02  0.34752688241E+03  0.40761374485E+03  0.12499917786E+03 0.  0.
          2    1    1    2  501    0  0.30376412587E+02  0.14163947119E+03 -0.47091004821E+03  0.49268726363E+03  0.00000000000E+00 0. -1.
          1    1    1    2  502    0  0.11786564543E+03 -0.53471853798E+02  0.82121734119E+03  0.83135399860E+03  0.00000000000E+00 0. -1.
         22    1    3    3    0    0  0.69511552921E+00 -0.14768569694E+02 -0.68287338195E+01  0.16285743519E+02  0.00000000000E+00 0. -1.
         22    1    3    3    0    0 -0.14893717355E+03 -0.73399047695E+02  0.35435561623E+03  0.39132800133E+03  0.00000000000E+00 0. -1.
</event>
<event>
 7    1  0.6358809E-006  0.3399646E+02  0.7818608E-02  0.1612088E+00
          2   -1    0    0  502    0  0.00000000000E+00  0.00000000000E+00  0.37220777857E+03  0.37220777857E+03  0.00000000000E+00 0. -1.
          1   -1    0    0  501    0 -0.00000000000E+00 -0.00000000000E+00 -0.23307663703E+04  0.23307663703E+04  0.00000000000E+00 0. -1.
         25    2    1    2    0    0  0.39408843911E+01  0.99219308978E+01 -0.71855509174E+03  0.72942453081E+03  0.12499900401E+03 0.  0.
          2    1    1    2  501    0 -0.34843351758E+01  0.24097650549E+02 -0.16058950718E+04  0.16060796428E+04  0.00000000000E+00 0. -1.
          1    1    1    2  502    0 -0.45654921534E+00 -0.34019581447E+02  0.36589157184E+03  0.36746997524E+03  0.00000000000E+00 0. -1.
         22    1    3    3    0    0 -0.21621788486E+02 -0.26136459160E+02 -0.62535787598E+03  0.62627716651E+03  0.00000000000E+00 0.  1.
         22    1    3    3    0    0  0.25562672877E+02  0.36058390058E+02 -0.93197215754E+02  0.10314736430E+03  0.00000000000E+00 0.  1.
</event>
<event>
 7    1  0.1222113E-005  0.1107601E+03  0.7818608E-02  0.1319859E+00
          2   -1    0    0  502    0  0.00000000000E+00  0.00000000000E+00  0.15367881266E+04  0.15367881266E+04  0.00000000000E+00 0. -1.
          1   -1    0    0  501    0 -0.00000000000E+00 -0.00000000000E+00 -0.15423604350E+04  0.15423604350E+04  0.00000000000E+00 0. -1.
         25    2    1    2    0    0  0.16980977494E+03 -0.89919302500E+01 -0.68541849844E+03  0.71717454556E+03  0.12499838527E+03 0.  0.
          2    1    1    2  501    0 -0.61377486155E+02 -0.12773050333E+02 -0.83788077677E+03  0.84022291251E+03  0.00000000000E+00 0. -1.
          1    1    1    2  502    0 -0.10843228878E+03  0.21764980583E+02  0.15177269668E+04  0.15217511036E+04  0.00000000000E+00 0. -1.
         22    1    3    3    0    0  0.14409653281E+03  0.55362625068E+01 -0.66690650431E+03  0.68231865463E+03  0.00000000000E+00 0. -1.
         22    1    3    3    0    0  0.25713242128E+02 -0.14528192757E+02 -0.18511994130E+02  0.34855890925E+02  0.00000000000E+00 0. -1.
</event>
<event>
 7    1  0.6358809E-006  0.6624490E+02  0.7818608E-02  0.1470131E+00
          2   -1    0    0  502    0  0.00000000000E+00  0.00000000000E+00  0.78093021315E+03  0.78093021315E+03  0.00000000000E+00 0. -1.
          1   -1    0    0  501    0 -0.00000000000E+00 -0.00000000000E+00 -0.30045588133E+03  0.30045588133E+03  0.00000000000E+00 0. -1.
         25    2    1    2    0    0 -0.32553251968E+02 -0.50939520561E+02  0.41818988665E+03  0.44063780675E+03  0.12499738586E+03 0.  0.
          2    1    1    2  501    0  0.57959791748E+02  0.32315794194E+02 -0.28470268033E+03  0.29233416530E+03  0.00000000000E+00 0. -1.
          1    1    1    2  502    0 -0.25406539780E+02  0.18623726366E+02  0.34698712549E+03  0.34841412243E+03  0.00000000000E+00 0. -1.
         22    1    3    3    0    0  0.42730582556E+02 -0.41116174934E+02  0.23438406598E+03  0.24176917279E+03  0.00000000000E+00 0. -1.
         22    1    3    3    0    0 -0.75283834524E+02 -0.98233456263E+01  0.18380582068E+03  0.19886863396E+03  0.00000000000E+00 0. -1.
</event>
<event>
 7    1  0.6358809E-006  0.6638912E+02  0.7818608E-02  0.1463853E+00
          2   -1    0    0  502    0  0.00000000000E+00  0.00000000000E+00  0.13811879718E+04  0.13811879718E+04  0.00000000000E+00 0. -1.
          1   -1    0    0  501    0 -0.00000000000E+00 -0.00000000000E+00 -0.12495444208E+02  0.12495444208E+02  0.00000000000E+00 0. -1.
         25    2    1    2    0    0 -0.24696358306E+02  0.74900666454E+02  0.10315185169E+04  0.10420532520E+04  0.12499803730E+03 0.  0.
          2    1    1    2  501    0 -0.65853516417E+01 -0.64757793185E+02  0.19045902337E+03  0.20127488223E+03  0.00000000000E+00 0. -1.
          1    1    1    2  502    0  0.31281709948E+02 -0.10142873269E+02  0.14671498726E+03  0.15035528172E+03  0.00000000000E+00 0. -1.
         22    1    3    3    0    0 -0.51901744643E+02  0.98408172801E+02  0.81743927489E+03  0.82497571341E+03  0.00000000000E+00 0. -1.
         22    1    3    3    0    0  0.27205386336E+02 -0.23507506347E+02  0.21407924204E+03  0.21707753862E+03  0.00000000000E+00 0. -1.
</event>
<event>
 7    1  0.6358809E-006  0.2985978E+02  0.7818608E-02  0.1639488E+00
          2   -1    0    0  502    0  0.00000000000E+00  0.00000000000E+00  0.11137173663E+04  0.11137173663E+04  0.00000000000E+00 0. -1.
          1   -1    0    0  501    0 -0.00000000000E+00 -0.00000000000E+00 -0.17994808521E+03  0.17994808521E+03  0.00000000000E+00 0. -1.
         25    2    1    2    0    0  0.26534838345E+02 -0.43795700537E+02 -0.11462496713E+01  0.13508837610E+03  0.12500157774E+03 0.  0.
          2    1    1    2  501    0 -0.51225612824E+01  0.23072228700E+02 -0.11036737877E+03  0.11286951168E+03  0.00000000000E+00 0. -1.
          1    1    1    2  502    0 -0.21412277062E+02  0.20723471837E+02  0.10452829095E+04  0.10457075637E+04  0.00000000000E+00 0. -1.
         22    1    3    3    0    0  0.41814899571E+02  0.34610189074E+02 -0.82017990956E+01  0.54896452729E+02  0.00000000000E+00 0.  1.
         22    1    3    3    0    0 -0.15280061226E+02 -0.78405889611E+02  0.70555494244E+01  0.80191923374E+02  0.00000000000E+00 0.  1.
</event>
<event>
 7    1  0.6358809E-006  0.7265493E+02  0.7818608E-02  0.1493825E+00
          2   -1    0    0  502    0  0.00000000000E+00  0.00000000000E+00  0.34471793973E+04  0.34471793973E+04  0.00000000000E+00 0. -1.
          1   -1    0    0  501    0 -0.00000000000E+00 -0.00000000000E+00 -0.15656986375E+03  0.15656986375E+03  0.00000000000E+00 0. -1.
         25    2    1    2    0    0  0.77876131446E+02  0.87096141417E+01  0.33308437178E+03  0.36429613208E+03  0.12500369555E+03 0.  0.
          2    1    1    2  501    0 -0.11756089470E+02  0.21274787442E+02 -0.13948756082E+03  0.14158955414E+03  0.00000000000E+00 0. -1.
          1    1    1    2  502    0 -0.66120041976E+02 -0.29984401584E+02  0.30970127226E+04  0.30978635748E+04  0.00000000000E+00 0. -1.
         22    1    3    3    0    0  0.98350067574E+02 -0.26545405379E+02  0.19086764891E+03  0.21635122772E+03  0.00000000000E+00 0.  1.
         22    1    3    3    0    0 -0.20473936128E+02  0.35255019521E+02  0.14221672287E+03  0.14794490436E+03  0.00000000000E+00 0.  1.
</event>
<event>
 7    1  0.6358809E-006  0.4875454E+02  0.7818608E-02  0.1492791E+00
          2   -1    0    0  502    0  0.00000000000E+00  0.00000000000E+00  0.51175628480E+02  0.51175628480E+02  0.00000000000E+00 0. -1.
          1   -1    0    0  501    0 -0.00000000000E+00 -0.00000000000E+00 -0.54765109943E+03  0.54765109943E+03  0.00000000000E+00 0. -1.
         25    2    1    2    0    0  0.30736756259E+02  0.16826984847E+02 -0.19040606646E+03  0.23044926033E+03  0.12499798333E+03 0.  0.
          2    1    1    2  501    0 -0.48932395419E+02  0.14794641946E+02 -0.32380258767E+03  0.32781302069E+03  0.00000000000E+00 0. -1.
          1    1    1    2  502    0  0.18195639160E+02 -0.31621626793E+02  0.17733183186E+02  0.40564446889E+02  0.00000000000E+00 0. -1.
         22    1    3    3    0    0 -0.10360131008E+02  0.40040799681E+02 -0.81166826347E+01  0.42148291669E+02  0.00000000000E+00 0.  1.
         22    1    3    3    0    0  0.41096887268E+02 -0.23213814834E+02 -0.18228938383E+03  0.18830096866E+03  0.00000000000E+00 0.  1.
</event>
<event>
 7    1  0.6358809E-006  0.4089867E+02  0.7818608E-02  0.1584681E+00
          2   -1    0    0  502    0  0.00000000000E+00  0.00000000000E+00  0.96445696239E+03  0.96445696239E+03  0.00000000000E+00 0. -1.
          1   -1    0    0  501    0 -0.00000000000E+00 -0.00000000000E+00 -0.35997021841E+03  0.35997021841E+03  0.00000000000E+00 0. -1.
         25    2    1    2    0    0 -0.44684515041E+01 -0.37662942412E+02 -0.57718373299E+02  0.14281169882E+03  0.12500122565E+03 0.  0.
          2    1    1    2  501    0 -0.22791331402E+02  0.71139270818E+01 -0.25870061572E+03  0.25980004103E+03  0.00000000000E+00 0. -1.
          1    1    1    2  502    0  0.27259782906E+02  0.30549015330E+02  0.92090573300E+03  0.92181544095E+03  0.00000000000E+00 0. -1.
         22    1    3    3    0    0 -0.26918438544E+02 -0.75081880108E+02 -0.13885527703E+02  0.80961095186E+02  0.00000000000E+00 0.  1.
         22    1    3    3    0    0  0.22449987040E+02  0.37418937696E+02 -0.43832845597E+02  0.61850603631E+02  0.00000000000E+00 0.  1.
</event>
<event>
 7    1  0.6358809E-006  0.4337505E+02  0.7818608E-02  0.1561403E+00
          2   -1    0    0  502    0  0.00000000000E+00  0.00000000000E+00  0.42026352666E+02  0.42026352666E+02  0.00000000000E+00 0. -1.
          1   -1    0    0  501    0 -0.00000000000E+00 -0.00000000000E+00 -0.12219322368E+04  0.12219322368E+04  0.00000000000E+00 0. -1.
         25    2    1    2    0    0  0.18186486670E+02 -0.78809848618E+00 -0.45072724787E+03  0.46809407801E+03  0.12500257797E+03 0.  0.
          2    1    1    2  501    0  0.25993823296E+02  0.13099697160E+01 -0.74755793707E+03  0.74801087168E+03  0.00000000000E+00 0. -1.
          1    1    1    2  502    0 -0.44180309966E+02 -0.52187122979E+00  0.18379300834E+02  0.47853639751E+02  0.00000000000E+00 0. -1.
         22    1    3    3    0    0  0.60327220014E+02  0.26404963761E+02 -0.15917000213E+03  0.17225471014E+03  0.00000000000E+00 0. -1.
         22    1    3    3    0    0 -0.42140733343E+02 -0.27193062248E+02 -0.29155724574E+03  0.29583936788E+03  0.00000000000E+00 0. -1.
</event>
<event>
 7    1  0.6358809E-006  0.1003963E+03  0.7818608E-02  0.1351586E+00
          2   -1    0    0  502    0  0.00000000000E+00  0.00000000000E+00  0.50008946828E+03  0.50008946828E+03  0.00000000000E+00 0. -1.
          1   -1    0    0  501    0 -0.00000000000E+00 -0.00000000000E+00 -0.15007897117E+04  0.15007897117E+04  0.00000000000E+00 0. -1.
         25    2    1    2    0    0 -0.40628630166E+02  0.12947305342E+03  0.21857775702E+02  0.18578822695E+03  0.12500218304E+03 0.  0.
          2    1    1    2  501    0  0.42120443115E+02 -0.31249960177E+02 -0.14122421531E+04  0.14132156915E+04  0.00000000000E+00 0. -1.
          1    1    1    2  502    0 -0.14918129491E+01 -0.98223093241E+02  0.38968413397E+03  0.40187526152E+03  0.00000000000E+00 0. -1.
         22    1    3    3    0    0  0.35014252959E+02  0.11611296552E+02 -0.16754088233E+02  0.40515670924E+02  0.00000000000E+00 0. -1.
         22    1    3    3    0    0 -0.75642883125E+02  0.11786175687E+03  0.38611863935E+02  0.14527255603E+03  0.00000000000E+00 0. -1.
</event>
<event>
 7    1  0.6358809E-006  0.1155078E+03  0.7818608E-02  0.1266280E+00
          2   -1    0    0  502    0  0.00000000000E+00  0.00000000000E+00  0.23689083428E+04  0.23689083428E+04  0.00000000000E+00 0. -1.
          1   -1    0    0  501    0 -0.00000000000E+00 -0.00000000000E+00 -0.40043070816E+03  0.40043070816E+03  0.00000000000E+00 0. -1.
         25    2    1    2    0    0  0.11909747299E+03 -0.17196475788E+03  0.77843097048E+03  0.81567959433E+03  0.12498935466E+03 0.  0.
          2    1    1    2  501    0 -0.81771918015E+02  0.80195744017E+02 -0.37161187609E+03  0.38886165970E+03  0.00000000000E+00 0. -1.
          1    1    1    2  502    0 -0.37325554978E+02  0.91769013858E+02  0.15616585403E+04  0.15647977969E+04  0.00000000000E+00 0. -1.
         22    1    3    3    0    0 -0.23917942662E+02 -0.22250279430E+02  0.64042782497E+02  0.71893121409E+02  0.00000000000E+00 0. -1.
         22    1    3    3    0    0  0.14301541565E+03 -0.14971447844E+03  0.71438818799E+03  0.74378647293E+03  0.00000000000E+00 0. -1.
</event>
<event>
 7    1  0.6358809E-006  0.2204658E+03  0.7818608E-02  0.1192065E+00
          2   -1    0    0  502    0  0.00000000000E+00  0.00000000000E+00  0.16558645371E+04  0.16558645371E+04  0.00000000000E+00 0. -1.
          1   -1    0    0  501    0 -0.00000000000E+00 -0.00000000000E+00 -0.56221792656E+02  0.56221792656E+02  0.00000000000E+00 0. -1.
         25    2    1    2    0    0 -0.17328236716E+03 -0.21171534298E+02  0.48107993555E+03  0.52681872289E+03  0.12500019905E+03 0.  0.
          2    1    1    2  501    0 -0.82675353337E+02  0.75376898731E+02  0.18943766280E+03  0.22000799758E+03  0.00000000000E+00 0. -1.
          1    1    1    2  502    0  0.25595772050E+03 -0.54205364434E+02  0.92912514605E+03  0.96525960925E+03  0.00000000000E+00 0. -1.
         22    1    3    3    0    0 -0.17812572537E+03 -0.27789915592E+02  0.48522214628E+03  0.51763074164E+03  0.00000000000E+00 0.  1.
         22    1    3    3    0    0  0.48433582094E+01  0.66183812943E+01 -0.41422107304E+01  0.91879812493E+01  0.00000000000E+00 0.  1.
</event>
<event>
 7    1  0.6358809E-006  0.1124720E+03  0.7818608E-02  0.1383809E+00
          2   -1    0    0  502    0  0.00000000000E+00  0.00000000000E+00  0.17856103979E+03  0.17856103979E+03  0.00000000000E+00 0. -1.
          1   -1    0    0  501    0 -0.00000000000E+00 -0.00000000000E+00 -0.22786146221E+03  0.22786146221E+03  0.00000000000E+00 0. -1.
         25    2    1    2    0    0 -0.86307325209E+02 -0.11011019553E+03 -0.97875753388E+02  0.21160876434E+03  0.12500158598E+03 0.  0.
          2    1    1    2  501    0  0.31627446445E+02  0.16817630442E+02 -0.40965649974E+02  0.54417943181E+02  0.00000000000E+00 0. -1.
          1    1    1    2  502    0  0.54679878764E+02  0.93292565089E+02  0.89540980935E+02  0.14039579449E+03  0.00000000000E+00 0. -1.
         22    1    3    3    0    0 -0.79207485789E+02 -0.53438999465E+02  0.31006594996E+01  0.95598988270E+02  0.00000000000E+00 0.  1.
         22    1    3    3    0    0 -0.70998394195E+01 -0.56671196067E+02 -0.10097641289E+03  0.11600977607E+03  0.00000000000E+00 0.  1.
</event>
<event>
 7    1  0.6358809E-006  0.7608862E+02  0.7818608E-02  0.1353224E+00
          2   -1    0    0  502    0  0.00000000000E+00  0.00000000000E+00  0.73623840866E+02  0.73623840866E+02  0.00000000000E+00 0. -1.
          1   -1    0    0  501    0 -0.00000000000E+00 -0.00000000000E+00 -0.14304615218E+04  0.14304615218E+04  0.00000000000E+00 0. -1.
         25    2    1    2    0    0 -0.32626746633E+02  0.12480911700E+02 -0.10867819498E+04  0.10945088287E+04  0.12503716286E+03 0.  0.
          2    1    1    2  501    0  0.23025339394E+02  0.64243655191E+02 -0.31352899071E+03  0.32087044349E+03  0.00000000000E+00 0. -1.
          1    1    1    2  502    0  0.96014072390E+01 -0.76724566891E+02  0.43473259545E+02  0.88706090440E+02  0.00000000000E+00 0. -1.
         22    1    3    3    0    0 -0.29151960516E+02 -0.40191328899E+02 -0.19693079793E+03  0.20309337482E+03  0.00000000000E+00 0.  1.
         22    1    3    3    0    0 -0.34747861167E+01  0.52672240600E+02 -0.88985115184E+03  0.89141545392E+03  0.00000000000E+00 0.  1.
</event>
<event>
 7    1  0.6358809E-006  0.1134390E+03  0.7818608E-02  0.1325281E+00
          2   -1    0    0  502    0  0.00000000000E+00  0.00000000000E+00  0.64825414381E+02  0.64825414381E+02  0.00000000000E+00 0. -1.
          1   -1    0    0  501    0 -0.00000000000E+00 -0.00000000000E+00 -0.18275108368E+04  0.18275108368E+04  0.00000000000E+00 0. -1.
         25    2    1    2    0    0  0.10533860143E+03 -0.80635264773E+02 -0.66356811298E+03  0.68814709034E+03  0.12500204199E+03 0.  0.
          2    1    1    2  501    0 -0.10922815742E+03  0.22436048597E+02 -0.11318323521E+04  0.11373120240E+04  0.00000000000E+00 0. -1.
          1    1    1    2  502    0  0.38895559877E+01  0.58199216175E+02  0.32715042703E+02  0.66877136813E+02  0.00000000000E+00 0. -1.
         22    1    3    3    0    0  0.12395592363E+02 -0.61470872827E+02 -0.45124614142E+03  0.45558248327E+03  0.00000000000E+00 0. -1.
         22    1    3    3    0    0  0.92943009070E+02 -0.19164391945E+02 -0.21232197156E+03  0.23256460707E+03  0.00000000000E+00 0. -1.
</event>
<event>
 7    1  0.6358809E-006  0.5228053E+02  0.7818608E-02  0.1445967E+00
          2   -1    0    0  502    0  0.00000000000E+00  0.00000000000E+00  0.23115203567E+04  0.23115203567E+04  0.00000000000E+00 0. -1.
          1   -1    0    0  501    0 -0.00000000000E+00 -0.00000000000E+00 -0.35312970356E+03  0.35312970356E+03  0.00000000000E+00 0. -1.
         25    2    1    2    0    0  0.66620674637E+02 -0.26157608833E+02  0.30251148153E+03  0.33505276298E+03  0.12499849092E+03 0.  0.
          2    1    1    2  501    0 -0.23645145292E+02  0.46618472932E+02 -0.33454500160E+03  0.33860409479E+03  0.00000000000E+00 0. -1.
          1    1    1    2  502    0 -0.42975529345E+02 -0.20460864099E+02  0.19904241732E+04  0.19909932025E+04  0.00000000000E+00 0. -1.
         22    1    3    3    0    0 -0.35996510521E+02 -0.13141586831E+02  0.11043218808E+03  0.11689190835E+03  0.00000000000E+00 0. -1.
         22    1    3    3    0    0  0.10261718516E+03 -0.13016022002E+02  0.19207929345E+03  0.21816085463E+03  0.00000000000E+00 0. -1.
</event>
<event>
 7    1  0.6358809E-006  0.6829087E+02  0.7818608E-02  0.1370548E+00
          2   -1    0    0  502    0  0.00000000000E+00  0.00000000000E+00  0.36097825982E+03  0.36097825982E+03  0.00000000000E+00 0. -1.
          1   -1    0    0  501    0 -0.00000000000E+00 -0.00000000000E+00 -0.25979032737E+03  0.25979032737E+03  0.00000000000E+00 0. -1.
         25    2    1    2    0    0 -0.10143360844E+03  0.19345985408E+01  0.95879304300E+02  0.18737669797E+03  0.12499866542E+03 0.  0.
          2    1    1    2  501    0  0.49213466739E+02 -0.43620979976E+02 -0.20365271129E+03  0.21400743449E+03  0.00000000000E+00 0. -1.
          1    1    1    2  502    0  0.52220141705E+02  0.41686381435E+02  0.20896133944E+03  0.21938445473E+03  0.00000000000E+00 0. -1.
         22    1    3    3    0    0 -0.63908926885E+02  0.17342594826E+02 -0.16207995974E+02  0.68174890277E+02  0.00000000000E+00 0. -1.
         22    1    3    3    0    0 -0.37524681559E+02 -0.15407996285E+02  0.11208730027E+03  0.11920180770E+03  0.00000000000E+00 0. -1.
</event>
<event>
 7    1  0.6358809E-006  0.1167350E+03  0.7818608E-02  0.1452792E+00
          2   -1    0    0  502    0  0.00000000000E+00  0.00000000000E+00  0.60618002667E+02  0.60618002667E+02  0.00000000000E+00 0. -1.
          1   -1    0    0  501    0 -0.00000000000E+00 -0.00000000000E+00 -0.99783704182E+03  0.99783704182E+03  0.00000000000E+00 0. -1.
         25    2    1    2    0    0  0.80408571333E+02  0.95856324994E+02 -0.30597178640E+03  0.35342096264E+03  0.12503467270E+03 0.  0.
          2    1    1    2  501    0 -0.20190206448E+02  0.18042235142E+01 -0.57832990356E+03  0.57868504128E+03  0.00000000000E+00 0. -1.
          1    1    1    2  502    0 -0.60218364885E+02 -0.97660548508E+02 -0.52917349198E+02  0.12634904056E+03  0.00000000000E+00 0. -1.
         22    1    3    3    0    0  0.92685797942E+02  0.76372009743E+02 -0.30771946412E+03  0.33032500604E+03  0.00000000000E+00 0. -1.
         22    1    3    3    0    0 -0.12277226608E+02  0.19484315251E+02  0.17476777283E+01  0.23095956603E+02  0.00000000000E+00 0. -1.
</event>
<event>
 7    1  0.6358809E-006  0.6109133E+02  0.7818608E-02  0.1442913E+00
          2   -1    0    0  502    0  0.00000000000E+00  0.00000000000E+00  0.16042529729E+03  0.16042529729E+03  0.00000000000E+00 0. -1.
          1   -1    0    0  501    0 -0.00000000000E+00 -0.00000000000E+00 -0.18894998253E+04  0.18894998253E+04  0.00000000000E+00 0. -1.
         25    2    1    2    0    0 -0.51716744001E+02 -0.14050907681E+02 -0.46494091354E+03  0.48442300742E+03  0.12499418954E+03 0.  0.
          2    1    1    2  501    0  0.34626510159E+02  0.52052099495E+02 -0.14112320663E+04  0.14126161408E+04  0.00000000000E+00 0. -1.
          1    1    1    2  502    0  0.17090233841E+02 -0.38001191814E+02  0.14709845176E+03  0.15288597444E+03  0.00000000000E+00 0. -1.
         22    1    3    3    0    0 -0.33237057389E+02  0.46351222092E+01 -0.20750692158E+02  0.39456020667E+02  0.00000000000E+00 0.  1.
         22    1    3    3    0    0 -0.18479686611E+02 -0.18686029890E+02 -0.44419022139E+03  0.44496698676E+03  0.00000000000E+00 0.  1.
</event>
<event>
 7    1  0.6358809E-006  0.1232957E+03  0.7818608E-02  0.1273622E+00
          2   -1    0    0  502    0  0.00000000000E+00  0.00000000000E+00  0.70068851434E+03  0.70068851434E+03  0.00000000000E+00 0. -1.
          1   -1    0    0  501    0 -0.00000000000E+00 -0.00000000000E+00 -0.35862618386E+03  0.35862618386E+03  0.00000000000E+00 0. -1.
         25    2    1    2    0    0  0.14123813258E+03 -0.14655079632E+03  0.84273236139E+02  0.25328233967E+03  0.12499847704E+03 0.  0.
          2    1    1    2  501    0 -0.59129418403E+02  0.63066317576E+02 -0.26060912510E+03  0.27457378720E+03  0.00000000000E+00 0. -1.
          1    1    1    2  502    0 -0.82108714177E+02  0.83484478740E+02  0.51839821943E+03  0.53145857133E+03  0.00000000000E+00 0. -1.
         22    1    3    3    0    0 -0.15563738383E+02 -0.11755639822E+01 -0.11099779618E+02  0.19152467483E+02  0.00000000000E+00 0. -1.
         22    1    3    3    0    0  0.15680187096E+03 -0.14537523233E+03  0.95373015757E+02  0.23412987218E+03  0.00000000000E+00 0. -1.
</event>
<event>
 7    1  0.6358809E-006  0.4698229E+02  0.7818608E-02  0.1467943E+00
          2   -1    0    0  502    0  0.00000000000E+00  0.00000000000E+00  0.34406482522E+03  0.34406482522E+03  0.00000000000E+00 0. -1.
          1   -1    0    0  501    0 -0.00000000000E+00 -0.00000000000E+00 -0.77615911013E+03  0.77615911013E+03  0.00000000000E+00 0. -1.
         25    2    1    2    0    0  0.33891935999E+02 -0.38401781419E+02  0.43472104857E+02  0.14191091754E+03  0.12500209788E+03 0.  0.
          2    1    1    2  501    0  0.13612296949E+02  0.43017009069E+02 -0.72396554187E+03  0.72537015621E+03  0.00000000000E+00 0. -1.
          1    1    1    2  502    0 -0.47504232948E+02 -0.46152276503E+01  0.24839915210E+03  0.25294286160E+03  0.00000000000E+00 0. -1.
         22    1    3    3    0    0  0.50073142587E+02  0.34106377056E+02  0.23482523894E+02  0.64976868906E+02  0.00000000000E+00 0.  1.
         22    1    3    3    0    0 -0.16181206588E+02 -0.72508158474E+02  0.19989580963E+02  0.76934048633E+02  0.00000000000E+00 0.  1.
</event>
<event>
 7    1  0.6358809E-006  0.1444829E+03  0.7818608E-02  0.1334214E+00
          2   -1    0    0  502    0  0.00000000000E+00  0.00000000000E+00  0.61080258772E+02  0.61080258772E+02  0.00000000000E+00 0. -1.
          1   -1    0    0  501    0 -0.00000000000E+00 -0.00000000000E+00 -0.30361906986E+04  0.30361906986E+04  0.00000000000E+00 0. -1.
         25    2    1    2    0    0  0.95472144481E+02  0.15732969918E+03 -0.33337339248E+03  0.40078800039E+03  0.12500255129E+03 0.  0.
          2    1    1    2  501    0 -0.68595211783E+02 -0.12462189843E+03 -0.26496076012E+04  0.26534235171E+04  0.00000000000E+00 0. -1.
          1    1    1    2  502    0 -0.26876932698E+02 -0.32707800744E+02  0.78705539087E+01  0.43059439843E+02  0.00000000000E+00 0. -1.
         22    1    3    3    0    0  0.12263734060E+03  0.14602115572E+03 -0.30627598742E+03  0.36078674546E+03  0.00000000000E+00 0. -1.
         22    1    3    3    0    0 -0.27165196121E+02  0.11308543454E+02 -0.27097405061E+02  0.40001254935E+02  0.00000000000E+00 0. -1.
</event>
<event>
 7    1  0.6358809E-006  0.6049616E+03  0.7818608E-02  0.1198090E+00
          2   -1    0    0  502    0  0.00000000000E+00  0.00000000000E+00  0.51941991682E+03  0.51941991682E+03  0.00000000000E+00 0. -1.
          1   -1    0    0  501    0 -0.00000000000E+00 -0.00000000000E+00 -0.15570630856E+04  0.15570630856E+04  0.00000000000E+00 0. -1.
         25    2    1    2    0    0 -0.14450386359E+03 -0.57874277935E+03 -0.33543982645E+03  0.69567800189E+03  0.12499373544E+03 0.  0.
          2    1    1    2  501    0  0.32108725745E+02 -0.20636978977E+02 -0.76663432868E+03  0.76758390361E+03  0.00000000000E+00 0. -1.
          1    1    1    2  502    0  0.11239513785E+03  0.59937975833E+03  0.64430986355E+02  0.61322109692E+03  0.00000000000E+00 0. -1.
         22    1    3    3    0    0 -0.11547461177E+03 -0.54465972061E+03 -0.33712237244E+03  0.65087640241E+03  0.00000000000E+00 0.  1.
         22    1    3    3    0    0 -0.29029251824E+02 -0.34083058737E+02  0.16825459891E+01  0.44801599473E+02  0.00000000000E+00 0.  1.
</event>
<event>
 7    1  0.6358809E-006  0.1631002E+03  0.7818608E-02  0.1339832E+00
          2   -1    0    0  502    0  0.00000000000E+00  0.00000000000E+00  0.20910652576E+04  0.20910652576E+04  0.00000000000E+00 0. -1.
          1   -1    0    0  501    0 -0.00000000000E+00 -0.00000000000E+00 -0.63632871007E+03  0.63632871007E+03  0.00000000000E+00 0. -1.
         25    2    1    2    0    0 -0.44723789511E+02  0.15708868567E+03 -0.11412156788E+01  0.20567703030E+03  0.12499866362E+03 0.  0.
          2    1    1    2  501    0 -0.33028442963E+02 -0.13583167357E+02 -0.52896782748E+03  0.53017199378E+03  0.00000000000E+00 0. -1.
          1    1    1    2  502    0  0.77752232474E+02 -0.14350551831E+03  0.19848455907E+04  0.19915449436E+04  0.00000000000E+00 0. -1.
         22    1    3    3    0    0  0.13340585543E+02  0.14576215095E+03 -0.42934808169E+01  0.14643431924E+03  0.00000000000E+00 0. -1.
         22    1    3    3    0    0 -0.58064375054E+02  0.11326534720E+02  0.31522651381E+01  0.59242711068E+02  0.00000000000E+00 0. -1.
</event>
<event>
 7    1  0.6358809E-006  0.9574064E+02  0.7818608E-02  0.1295187E+00
          2   -1    0    0  502    0  0.00000000000E+00  0.00000000000E+00  0.56226146670E+03  0.56226146670E+03  0.00000000000E+00 0. -1.
          1   -1    0    0  501    0 -0.00000000000E+00 -0.00000000000E+00 -0.43849992739E+03  0.43849992739E+03  0.00000000000E+00 0. -1.
         25    2    1    2    0    0  0.13233513044E+02  0.15332897347E+03  0.29221621647E+03  0.35312881609E+03  0.12499897444E+03 0.  0.
          2    1    1    2  501    0 -0.58818320437E+02 -0.74792797114E+02 -0.39356149590E+03  0.40490024497E+03  0.00000000000E+00 0. -1.
          1    1    1    2  502    0  0.45584807393E+02 -0.78536176353E+02  0.22510681873E+03  0.24273233303E+03  0.00000000000E+00 0. -1.
         22    1    3    3    0    0 -0.52287947558E+02  0.65308700391E+02  0.16594616018E+03  0.18584236300E+03  0.00000000000E+00 0.  1.
         22    1    3    3    0    0  0.65521460602E+02  0.88020273075E+02  0.12627005630E+03  0.16728645309E+03  0.00000000000E+00 0.  1.
</event>
<event>
 7    1  0.6358809E-006  0.1500099E+03  0.7818608E-02  0.1331247E+00
          2   -1    0    0  502    0  0.00000000000E+00  0.00000000000E+00  0.16844900002E+04  0.16844900002E+04  0.00000000000E+00 0. -1.
          1   -1    0    0  501    0 -0.00000000000E+00 -0.00000000000E+00 -0.17976952860E+03  0.17976952860E+03  0.00000000000E+00 0. -1.
         25    2    1    2    0    0 -0.17696780912E+03 -0.22060209515E+02  0.17959687197E+03  0.28228434515E+03  0.12500062714E+03 0.  0.
          2    1    1    2  501    0  0.14519721133E+03 -0.51770106378E+01 -0.86924497675E+02  0.16930711714E+03  0.00000000000E+00 0. -1.
          1    1    1    2  502    0  0.31770597782E+02  0.27237220152E+02  0.14120480973E+04  0.14126680665E+04  0.00000000000E+00 0. -1.
         22    1    3    3    0    0  0.10275605546E+02  0.12462134507E+02  0.48495355131E+02  0.51114502199E+02  0.00000000000E+00 0. -1.
         22    1    3    3    0    0 -0.18724341466E+03 -0.34522344021E+02  0.13110151684E+03  0.23116984295E+03  0.00000000000E+00 0. -1.
</event>
<event>
 7    1  0.6358809E-006  0.2578529E+03  0.7818608E-02  0.1240461E+00
          2   -1    0    0  502    0  0.00000000000E+00  0.00000000000E+00  0.11822566393E+04  0.11822566393E+04  0.00000000000E+00 0. -1.
          1   -1    0    0  501    0 -0.00000000000E+00 -0.00000000000E+00 -0.11983982029E+04  0.11983982029E+04  0.00000000000E+00 0. -1.
         25    2    1    2    0    0 -0.16372544892E+03  0.16340511666E+03 -0.31723567878E+03  0.41203250702E+03  0.12500022469E+03 0.  0.
          2    1    1    2  501    0  0.21481061177E+02  0.53182111799E+02 -0.81795559276E+03  0.81996409966E+03  0.00000000000E+00 0. -1.
          1    1    1    2  502    0  0.14224438774E+03 -0.21658722846E+03  0.11190497079E+04  0.11486582356E+04  0.00000000000E+00 0. -1.
         22    1    3    3    0    0 -0.17211315203E+03  0.10192843660E+03 -0.25570533184E+03  0.32464990377E+03  0.00000000000E+00 0. -1.
         22    1    3    3    0    0  0.83877031093E+01  0.61476680063E+02 -0.61530346941E+02  0.87382603244E+02  0.00000000000E+00 0. -1.
</event>
<event>
 7    1  0.6358809E-006  0.8678310E+02  0.7818608E-02  0.1486683E+00
          2   -1    0    0  502    0  0.00000000000E+00  0.00000000000E+00  0.14101447589E+03  0.14101447589E+03  0.00000000000E+00 0. -1.
          1   -1    0    0  501    0 -0.00000000000E+00 -0.00000000000E+00 -0.51235989192E+03  0.51235989192E+03  0.00000000000E+00 0. -1.
         25    2    1    2    0    0 -0.11085081319E+02 -0.10226593615E+03 -0.75589465363E+01  0.16206348907E+03  0.12500494427E+03 0.  0.
          2    1    1    2  501    0 -0.10246364892E+01  0.21362750423E+02 -0.40090782103E+03  0.40147789223E+03  0.00000000000E+00 0. -1.
          1    1    1    2  502    0  0.12109717808E+02  0.80903185730E+02  0.37121351537E+02  0.89832986518E+02  0.00000000000E+00 0. -1.
         22    1    3    3    0    0 -0.10192425112E+02 -0.12545213258E+03 -0.30420791205E+02  0.12948956574E+03  0.00000000000E+00 0.  1.
         22    1    3    3    0    0 -0.89265620635E+00  0.23186196422E+02  0.22861844668E+02  0.32573923333E+02  0.00000000000E+00 0.  1.
</event>
<event>
 7    1  0.6358809E-006  0.5512124E+02  0.7818608E-02  0.1493436E+00
          2   -1    0    0  502    0  0.00000000000E+00  0.00000000000E+00  0.79101562693E+03  0.79101562693E+03  0.00000000000E+00 0. -1.
          1   -1    0    0  501    0 -0.00000000000E+00 -0.00000000000E+00 -0.99941283721E+02  0.99941283721E+02  0.00000000000E+00 0. -1.
         25    2    1    2    0    0 -0.18940970472E+02  0.25026236726E+02  0.14455953996E+02  0.12968926527E+03  0.12500103213E+03 0.  0.
          2    1    1    2  501    0  0.31133958257E+02 -0.54747578635E+02 -0.18316584602E+02  0.65590532813E+02  0.00000000000E+00 0. -1.
          1    1    1    2  502    0 -0.12192987785E+02  0.29721341909E+02  0.69493497381E+03  0.69567711256E+03  0.00000000000E+00 0. -1.
         22    1    3    3    0    0  0.30750179379E+02 -0.35520758172E+02  0.20224260472E+02  0.51149960944E+02  0.00000000000E+00 0. -1.
         22    1    3    3    0    0 -0.49691149851E+02  0.60546994898E+02 -0.57683064763E+01  0.78539304328E+02  0.00000000000E+00 0. -1.
</event>
<event>
 7    1  0.6358809E-006  0.7116754E+02  0.7818608E-02  0.1387814E+00
          2   -1    0    0  502    0  0.00000000000E+00  0.00000000000E+00  0.43020781046E+03  0.43020781046E+03  0.00000000000E+00 0. -1.
          1   -1    0    0  501    0 -0.00000000000E+00 -0.00000000000E+00 -0.28910866293E+03  0.28910866293E+03  0.00000000000E+00 0. -1.
         25    2    1    2    0    0  0.10414209785E+03 -0.58143330007E+02 -0.80837117607E+02  0.19075273776E+03  0.12500297601E+03 0.  0.
          2    1    1    2  501    0 -0.53615536089E+02  0.36910610027E+02 -0.14427230705E+03  0.15827671157E+03  0.00000000000E+00 0. -1.
          1    1    1    2  502    0 -0.50526561756E+02  0.21232719980E+02  0.36620857219E+03  0.37028702406E+03  0.00000000000E+00 0. -1.
         22    1    3    3    0    0  0.10243674622E+03  0.28618509749E+01 -0.79517722389E+02  0.12970946512E+03  0.00000000000E+00 0. -1.
         22    1    3    3    0    0  0.17053516236E+01 -0.61005180982E+02 -0.13193952179E+01  0.61043272639E+02  0.00000000000E+00 0. -1.
</event>
<event>
 7    1  0.1009199E-005  0.7715272E+02  0.7818608E-02  0.1385415E+00
          2   -1    0    0  502    0  0.00000000000E+00  0.00000000000E+00  0.27620210504E+04  0.27620210504E+04  0.00000000000E+00 0. -1.
          1   -1    0    0  501    0 -0.00000000000E+00 -0.00000000000E+00 -0.64061528847E+03  0.64061528847E+03  0.00000000000E+00 0. -1.
         25    2    1    2    0    0 -0.24710434806E+02 -0.83320892915E+01 -0.24723566928E+03  0.27826394787E+03  0.12500127687E+03 0.  0.
          2    1    1    2  501    0 -0.44473217428E+02 -0.26056277936E+02 -0.37556151172E+03  0.37908210954E+03  0.00000000000E+00 0. -1.
          1    1    1    2  502    0  0.69183652234E+02  0.34388367227E+02  0.27442029429E+04  0.27452902815E+04  0.00000000000E+00 0. -1.
         22    1    3    3    0    0  0.32641039262E+02  0.27061536387E+02 -0.33149219507E+02  0.53820395294E+02  0.00000000000E+00 0. -1.
         22    1    3    3    0    0 -0.57351474068E+02 -0.35393625678E+02 -0.21408644977E+03  0.22444355257E+03  0.00000000000E+00 0. -1.
</event>
<event>
 7    1  0.6358809E-006  0.2493990E+03  0.7818608E-02  0.1315667E+00
          2   -1    0    0  502    0  0.00000000000E+00  0.00000000000E+00  0.23610582449E+04  0.23610582449E+04  0.00000000000E+00 0. -1.
          1   -1    0    0  501    0 -0.00000000000E+00 -0.00000000000E+00 -0.23413413046E+03  0.23413413046E+03  0.00000000000E+00 0. -1.
         25    2    1    2    0    0  0.36354468290E+02 -0.25459284610E+03 -0.55710514003E+02  0.29131570695E+03  0.12498805981E+03 0.  0.
          2    1    1    2  501    0 -0.50410769326E+02  0.22933174427E+03  0.16724494833E+03  0.28827966861E+03  0.00000000000E+00 0. -1.
          1    1    1    2  502    0  0.14056301036E+02  0.25261101840E+02  0.20153896801E+04  0.20155969998E+04  0.00000000000E+00 0. -1.
         22    1    3    3    0    0  0.56274522039E+02 -0.39128808110E+02 -0.30078773462E+01  0.68607089874E+02  0.00000000000E+00 0. -1.
         22    1    3    3    0    0 -0.19920053749E+02 -0.21546403799E+03 -0.52702636657E+02  0.22270861708E+03  0.00000000000E+00 0. -1.
</event>
<event>
 7    1  0.6358809E-006  0.1031113E+03  0.7818608E-02  0.1415809E+00
          2   -1    0    0  502    0  0.00000000000E+00  0.00000000000E+00  0.18448332374E+04  0.18448332374E+04  0.00000000000E+00 0. -1.
          1   -1    0    0  501    0 -0.00000000000E+00 -0.00000000000E+00 -0.31053957589E+02  0.31053957589E+02  0.00000000000E+00 0. -1.
         25    2    1    2    0    0 -0.98479349539E+01  0.12090238807E+03  0.11763452780E+04  0.11891715450E+04  0.12500552365E+03 0.  0.
          2    1    1    2  501    0  0.29062703754E+02 -0.97442848808E+02  0.82470142438E+02  0.13092392420E+03  0.00000000000E+00 0. -1.
          1    1    1    2  502    0 -0.19214768800E+02 -0.23459539265E+02  0.55496385936E+03  0.55579172585E+03  0.00000000000E+00 0. -1.
         22    1    3    3    0    0 -0.59495096448E+02  0.10637259685E+03  0.86849201524E+03  0.87700238106E+03  0.00000000000E+00 0. -1.
         22    1    3    3    0    0  0.49647161494E+02  0.14529791220E+02  0.30785326280E+03  0.31216916391E+03  0.00000000000E+00 0. -1.
</event>
<event>
 7    1  0.6358809E-006  0.8114872E+02  0.7818608E-02  0.1407648E+00
          2   -1    0    0  502    0  0.00000000000E+00  0.00000000000E+00  0.12938528559E+04  0.12938528559E+04  0.00000000000E+00 0. -1.
          1   -1    0    0  501    0 -0.00000000000E+00 -0.00000000000E+00 -0.39992762482E+03  0.39992762482E+03  0.00000000000E+00 0. -1.
         25    2    1    2    0    0 -0.36754464302E+02  0.57669658400E+02  0.83598322896E+03  0.84803564230E+03  0.12497924370E+03 0.  0.
          2    1    1    2  501    0  0.31074182253E+01 -0.81199432192E+02 -0.38875913274E+03  0.39716075728E+03  0.00000000000E+00 0. -1.
          1    1    1    2  502    0  0.33647046077E+02  0.23529773791E+02  0.44670113484E+03  0.44858408111E+03  0.00000000000E+00 0. -1.
         22    1    3    3    0    0 -0.23609895542E+02  0.97518211202E+02  0.57018923997E+03  0.57894990981E+03  0.00000000000E+00 0. -1.
         22    1    3    3    0    0 -0.13144568760E+02 -0.39848552801E+02  0.26579398898E+03  0.26908573249E+03  0.00000000000E+00 0. -1.
</event>
<event>
 7    1  0.6358809E-006  0.7778805E+02  0.7818608E-02  0.1361537E+00
          2   -1    0    0  502    0  0.00000000000E+00  0.00000000000E+00  0.75475270271E+03  0.75475270271E+03  0.00000000000E+00 0. -1.
          1   -1    0    0  501    0 -0.00000000000E+00 -0.00000000000E+00 -0.32146918944E+03  0.32146918944E+03  0.00000000000E+00 0. -1.
         25    2    1    2    0    0 -0.65500168682E+01  0.56562774854E+02  0.69407191730E+02  0.15389805060E+03  0.12500000598E+03 0.  0.
          2    1    1    2  501    0 -0.60849127990E+02 -0.13051299359E+02 -0.27320903949E+03  0.28020730192E+03  0.00000000000E+00 0. -1.
          1    1    1    2  502    0  0.67399144859E+02 -0.43511475495E+02  0.63708536103E+03  0.64211653963E+03  0.00000000000E+00 0. -1.
         22    1    3    3    0    0  0.30690644589E+02  0.83336041884E+02  0.30960745481E+02  0.94049876676E+02  0.00000000000E+00 0. -1.
         22    1    3    3    0    0 -0.37240661457E+02 -0.26773267030E+02  0.38446446249E+02  0.59848173927E+02  0.00000000000E+00 0. -1.
</event>
<event>
 7    1  0.6358809E-006  0.1570072E+03  0.7818608E-02  0.1351300E+00
          2   -1    0    0  502    0  0.00000000000E+00  0.00000000000E+00  0.46169542442E+04  0.46169542442E+04  0.00000000000E+00 0. -1.
          1   -1    0    0  501    0 -0.00000000000E+00 -0.00000000000E+00 -0.11667481515E+03  0.11667481515E+03  0.00000000000E+00 0. -1.
         25    2    1    2    0    0 -0.53033419798E+02  0.17680013050E+03  0.13044924822E+03  0.25828555319E+03  0.12499436335E+03 0.  0.
          2    1    1    2  501    0 -0.78306861887E+01 -0.32693670294E+02 -0.45871541258E+02  0.56871733057E+02  0.00000000000E+00 0. -1.
          1    1    1    2  502    0  0.60864105987E+02 -0.14410646020E+03  0.44157017220E+04  0.44184717731E+04  0.00000000000E+00 0. -1.
         22    1    3    3    0    0 -0.84308684921E+02  0.16688018369E+03  0.12530493447E+03  0.22507393599E+03  0.00000000000E+00 0. -1.
         22    1    3    3    0    0  0.31275265122E+02  0.99199468100E+01  0.51443137470E+01  0.33211617201E+02  0.00000000000E+00 0. -1.
</event>
<event>
 7    1  0.6358809E-006  0.8872693E+02  0.7818608E-02  0.1376031E+00
          2   -1    0    0  502    0  0.00000000000E+00  0.00000000000E+00  0.21630895670E+04  0.21630895670E+04  0.00000000000E+00 0. -1.
          1   -1    0    0  501    0 -0.00000000000E+00 -0.00000000000E+00 -0.85032987930E+03  0.85032987930E+03  0.00000000000E+00 0. -1.
         25    2    1    2    0    0 -0.10623262512E+03  0.21982316929E+02  0.13492278584E+04  0.13593409607E+04  0.12499376276E+03 0.  0.
          2    1    1    2  501    0  0.25308560317E+02 -0.41233377443E+02 -0.84243869478E+03  0.84382680042E+03  0.00000000000E+00 0. -1.
          1    1    1    2  502    0  0.80924064804E+02  0.19251060514E+02  0.80597052410E+03  0.81025168517E+03  0.00000000000E+00 0. -1.
         22    1    3    3    0    0 -0.12356333093E+03  0.25486402071E+02  0.13128026757E+04  0.13188511359E+04  0.00000000000E+00 0. -1.
         22    1    3    3    0    0  0.17330705812E+02 -0.35040851415E+01  0.36425182702E+02  0.40489824790E+02  0.00000000000E+00 0. -1.
</event>
<event>
 7    1  0.6358809E-006  0.5545869E+02  0.7818608E-02  0.1463389E+00
          2   -1    0    0  502    0  0.00000000000E+00  0.00000000000E+00  0.15580720049E+04  0.15580720049E+04  0.00000000000E+00 0. -1.
          1   -1    0    0  501    0 -0.00000000000E+00 -0.00000000000E+00 -0.10894110290E+03  0.10894110290E+03  0.00000000000E+00 0. -1.
         25    2    1    2    0    0  0.63569671079E+02 -0.41749363813E+02  0.62568540216E+03  0.64256461804E+03  0.12499181343E+03 0.  0.
          2    1    1    2  501    0 -0.24828675680E+02  0.49448248146E+02 -0.92427650907E+02  0.10772401326E+03  0.00000000000E+00 0. -1.
          1    1    1    2  502    0 -0.38740995400E+02 -0.76988843335E+01  0.91587315079E+03  0.91672447654E+03  0.00000000000E+00 0. -1.
         22    1    3    3    0    0  0.10032882983E+03 -0.40492283440E+02  0.50198634489E+03  0.51351318344E+03  0.00000000000E+00 0.  1.
         22    1    3    3    0    0 -0.36759158750E+02 -0.12570803727E+01  0.12369905727E+03  0.12905143460E+03  0.00000000000E+00 0.  1.
</event>
<event>
 7    1  0.6358809E-006  0.4985361E+02  0.7818608E-02  0.1448429E+00
          2   -1    0    0  502    0  0.00000000000E+00  0.00000000000E+00  0.40001534579E+03  0.40001534579E+03  0.00000000000E+00 0. -1.
          1   -1    0    0  501    0 -0.00000000000E+00 -0.00000000000E+00 -0.19614227930E+03  0.19614227930E+03  0.00000000000E+00 0. -1.
         25    2    1    2    0    0 -0.92864191202E+01 -0.66522674893E+02  0.18285156115E+03  0.23145463237E+03  0.12500019829E+03 0.  0.
          2    1    1    2  501    0  0.40697892376E+02  0.28896736155E+02 -0.16497310874E+03  0.17235854029E+03  0.00000000000E+00 0. -1.
          1    1    1    2  502    0 -0.31411473256E+02  0.37625938738E+02  0.18599461407E+03  0.19234445243E+03  0.00000000000E+00 0. -1.
         22    1    3    3    0    0 -0.47523223271E+02 -0.86181652489E+02  0.11813903318E+03  0.15376139027E+03  0.00000000000E+00 0. -1.
         22    1    3    3    0    0  0.38236804151E+02  0.19658977596E+02  0.64712527969E+02  0.77693242099E+02  0.00000000000E+00 0. -1.
</event>
<event>
 7    1  0.6358809E-006  0.2044029E+03  0.7818608E-02  0.1185253E+00
          2   -1    0    0  502    0  0.00000000000E+00  0.00000000000E+00  0.24625656151E+04  0.24625656151E+04  0.00000000000E+00 0. -1.
          1   -1    0    0  501    0 -0.00000000000E+00 -0.00000000000E+00 -0.49585843330E+03  0.49585843330E+03  0.00000000000E+00 0. -1.
         25    2    1    2    0    0  0.18712333030E+02 -0.13402300689E+03  0.73316482427E+03  0.75595499015E+03  0.12499987919E+03 0.  0.
          2    1    1    2  501    0 -0.14839368997E+03  0.14475729067E+03 -0.45967533466E+03  0.50425863773E+03  0.00000000000E+00 0. -1.
          1    1    1    2  502    0  0.12968135694E+03 -0.10734283779E+02  0.16932176922E+04  0.16982104205E+04  0.00000000000E+00 0. -1.
         22    1    3    3    0    0  0.67647308701E+02 -0.46725191374E+02  0.38568780612E+03  0.39435324986E+03  0.00000000000E+00 0.  1.
         22    1    3    3    0    0 -0.48934975671E+02 -0.87297815514E+02  0.34747701815E+03  0.36160174029E+03  0.00000000000E+00 0.  1.
</event>
<event>
 7    1  0.6358809E-006  0.6618053E+02  0.7818608E-02  0.1532888E+00
          2   -1    0    0  502    0  0.00000000000E+00  0.00000000000E+00  0.43548951382E+03  0.43548951382E+03  0.00000000000E+00 0. -1.
          1   -1    0    0  501    0 -0.00000000000E+00 -0.00000000000E+00 -0.15086670568E+03  0.15086670568E+03  0.00000000000E+00 0. -1.
         25    2    1    2    0    0  0.78352307128E+02  0.30122745454E+02  0.71562100176E+02  0.16672928782E+03  0.12502422729E+03 0.  0.
          2    1    1    2  501    0 -0.57888444616E+02 -0.28884831444E+02 -0.92775249257E+02  0.11310460814E+03  0.00000000000E+00 0. -1.
          1    1    1    2  502    0 -0.20463862512E+02 -0.12379140099E+01  0.30583595722E+03  0.30652232354E+03  0.00000000000E+00 0. -1.
         22    1    3    3    0    0 -0.10839265831E+02  0.18902588911E+02 -0.26095289202E+02  0.33996494964E+02  0.00000000000E+00 0.  1.
         22    1    3    3    0    0  0.89191572959E+02  0.11220156543E+02  0.97657389378E+02  0.13273279286E+03  0.00000000000E+00 0.  1.
</event>
<event>
 7    1  0.6358809E-006  0.1439396E+03  0.7818608E-02  0.1267457E+00
          2   -1    0    0  502    0  0.00000000000E+00  0.00000000000E+00  0.33064022251E+04  0.33064022251E+04  0.00000000000E+00 0. -1.
          1   -1    0    0  501    0 -0.00000000000E+00 -0.00000000000E+00 -0.22118079228E+04  0.22118079228E+04  0.00000000000E+00 0. -1.
         25    2    1    2    0    0  0.12713446396E+03 -0.11121816636E+03 -0.30980628320E+03  0.37435068820E+03  0.12500340874E+03 0.  0.
          2    1    1    2  501    0 -0.51798976153E+02  0.13362231898E+03 -0.18665105394E+04  0.18720041805E+04  0.00000000000E+00 0. -1.
          1    1    1    2  502    0 -0.75335487804E+02 -0.22404152619E+02  0.32709111249E+04  0.32718552793E+04  0.00000000000E+00 0. -1.
         22    1    3    3    0    0  0.18250152351E+02 -0.97054942477E+02 -0.16971283671E+03  0.19635472203E+03  0.00000000000E+00 0.  1.
         22    1    3    3    0    0  0.10888431161E+03 -0.14163223883E+02 -0.14009344649E+03  0.17799596617E+03  0.00000000000E+00 0.  1.
</event>
<event>
 7    1  0.6358809E-006  0.1042773E+03  0.7818608E-02  0.1425247E+00
          2   -1    0    0  502    0  0.00000000000E+00  0.00000000000E+00  0.13537370096E+03  0.13537370096E+03  0.00000000000E+00 0. -1.
          1   -1    0    0  501    0 -0.00000000000E+00 -0.00000000000E+00 -0.12797753234E+04  0.12797753234E+04  0.00000000000E+00 0. -1.
         25    2    1    2    0    0 -0.69738420370E+01  0.83142259151E+02  0.51592311109E+02  0.15889594569E+03  0.12499954105E+03 0.  0.
          2    1    1    2  501    0 -0.11384000699E+02 -0.10413495185E+03 -0.12168993878E+04  0.12213999360E+04  0.00000000000E+00 0. -1.
          1    1    1    2  502    0  0.18357842736E+02  0.20992692703E+02  0.20905454242E+02  0.34853142669E+02  0.00000000000E+00 0. -1.
         22    1    3    3    0    0 -0.50292523630E+02  0.82619381258E+02  0.61283815408E+02  0.11450330180E+03  0.00000000000E+00 0.  1.
         22    1    3    3    0    0  0.43318681593E+02  0.52287789281E+00 -0.96915042994E+01  0.44392643893E+02  0.00000000000E+00 0.  1.
</event>
<event>
 7    1  0.6358809E-006  0.1046121E+03  0.7818608E-02  0.1400510E+00
          2   -1    0    0  502    0  0.00000000000E+00  0.00000000000E+00  0.31718088676E+02  0.31718088676E+02  0.00000000000E+00 0. -1.
          1   -1    0    0  501    0 -0.00000000000E+00 -0.00000000000E+00 -0.36383208009E+04  0.36383208009E+04  0.00000000000E+00 0. -1.
         25    2    1    2    0    0 -0.76817343701E+02 -0.10533739622E+03 -0.13175806416E+04  0.13299031271E+04  0.12500683607E+03 0.  0.
          2    1    1    2  501    0  0.47921803273E+02  0.88015412020E+02 -0.23018912013E+04  0.23040716817E+04  0.00000000000E+00 0. -1.
          1    1    1    2  502    0  0.28895540427E+02  0.17321984198E+02  0.12869130680E+02  0.36064080712E+02  0.00000000000E+00 0. -1.
         22    1    3    3    0    0 -0.21675028813E+02 -0.72293591807E+01 -0.31535400356E+02  0.38942932399E+02  0.00000000000E+00 0. -1.
         22    1    3    3    0    0 -0.55142314888E+02 -0.98108037037E+02 -0.12860452412E+04  0.12909601947E+04  0.00000000000E+00 0. -1.
</event>
<event>
 7    1  0.6358809E-006  0.6666816E+02  0.7818608E-02  0.1503924E+00
          2   -1    0    0  502    0  0.00000000000E+00  0.00000000000E+00  0.99538036853E+03  0.99538036853E+03  0.00000000000E+00 0. -1.
          1   -1    0    0  501    0 -0.00000000000E+00 -0.00000000000E+00 -0.81399382594E+02  0.81399382594E+02  0.00000000000E+00 0. -1.
         25    2    1    2    0    0 -0.21281742613E+02  0.41540579903E+02  0.70220504858E+03  0.71476986143E+03  0.12500196881E+03 0.  0.
          2    1    1    2  501    0  0.44357896013E+02 -0.50379518718E+02 -0.59446634485E+02  0.89663934759E+02  0.00000000000E+00 0. -1.
          1    1    1    2  502    0 -0.23076153400E+02  0.88389388143E+01  0.27122257184E+03  0.27234595494E+03  0.00000000000E+00 0. -1.
         22    1    3    3    0    0  0.31752309253E+02  0.59678720401E+02  0.24545670418E+03  0.25459527183E+03  0.00000000000E+00 0. -1.
         22    1    3    3    0    0 -0.53034051866E+02 -0.18138140497E+02  0.45674834441E+03  0.46017458960E+03  0.00000000000E+00 0. -1.
</event>
<event>
 7    1  0.6358809E-006  0.7475114E+02  0.7818608E-02  0.1359335E+00
          2   -1    0    0  502    0  0.00000000000E+00  0.00000000000E+00  0.45550003521E+03  0.45550003521E+03  0.00000000000E+00 0. -1.
          1   -1    0    0  501    0 -0.00000000000E+00 -0.00000000000E+00 -0.84348625833E+03  0.84348625833E+03  0.00000000000E+00 0. -1.
         25    2    1    2    0    0  0.62142396032E+02 -0.10368297264E+02 -0.18966087307E+03  0.23572308751E+03  0.12499979296E+03 0.  0.
          2    1    1    2  501    0 -0.10387774482E+02  0.65146874447E+02 -0.62576415444E+03  0.62923191122E+03  0.00000000000E+00 0. -1.
          1    1    1    2  502    0 -0.51754621550E+02 -0.54778577183E+02  0.42743880440E+03  0.43403129481E+03  0.00000000000E+00 0. -1.
         22    1    3    3    0    0  0.78250251742E+02  0.27487459058E+02 -0.67859479669E+02  0.10716142629E+03  0.00000000000E+00 0.  1.
         22    1    3    3    0    0 -0.16107855709E+02 -0.37855756321E+02 -0.12180139340E+03  0.12856166122E+03  0.00000000000E+00 0.  1.
</event>
<event>
 7    1  0.6358809E-006  0.5595563E+02  0.7818608E-02  0.1417587E+00
          2   -1    0    0  502    0  0.00000000000E+00  0.00000000000E+00  0.19591787569E+04  0.19591787569E+04  0.00000000000E+00 0. -1.
          1   -1    0    0  501    0 -0.00000000000E+00 -0.00000000000E+00 -0.44807822982E+03  0.44807822982E+03  0.00000000000E+00 0. -1.
         25    2    1    2    0    0  0.36615016398E+02  0.28252864088E+00  0.71432486679E+03  0.72610379556E+03  0.12500386937E+03 0.  0.
          2    1    1    2  501    0 -0.11614242928E+02 -0.54737025332E+02 -0.43969016594E+03  0.44323636427E+03  0.00000000000E+00 0. -1.
          1    1    1    2  502    0 -0.25000773470E+02  0.54454496691E+02  0.12364658263E+04  0.12379168269E+04  0.00000000000E+00 0. -1.
         22    1    3    3    0    0  0.47639016228E+02 -0.58564509023E+01  0.93042160300E+02  0.10469296766E+03  0.00000000000E+00 0. -1.
         22    1    3    3    0    0 -0.11023999830E+02  0.61389795432E+01  0.62128270649E+03  0.62141082790E+03  0.00000000000E+00 0. -1.
</event>
<event>
 7    1  0.6358809E-006  0.6333830E+02  0.7818608E-02  0.1520655E+00
          2   -1    0    0  502    0  0.00000000000E+00  0.00000000000E+00  0.98094565525E+03  0.98094565525E+03  0.00000000000E+00 0. -1.
          1   -1    0    0  501    0 -0.00000000000E+00 -0.00000000000E+00 -0.52222162466E+03  0.52222162466E+03  0.00000000000E+00 0. -1.
         25    2    1    2    0    0 -0.59358426846E+02 -0.14169685889E+02 -0.38640641327E+03  0.41068029583E+03  0.12499674529E+03 0.  0.
          2    1    1    2  501    0  0.73644796532E+01 -0.22031393572E+02 -0.12154132125E+03  0.12374130529E+03  0.00000000000E+00 0. -1.
          1    1    1    2  502    0  0.51993947193E+02  0.36201079461E+02  0.96667176512E+03  0.96874567879E+03  0.00000000000E+00 0. -1.
         22    1    3    3    0    0 -0.50621181107E+02  0.45935108938E+02 -0.12666766806E+03  0.14393483366E+03  0.00000000000E+00 0.  1.
         22    1    3    3    0    0 -0.87372457392E+01 -0.60104794827E+02 -0.25973874521E+03  0.26674546217E+03  0.00000000000E+00 0.  1.
</event>
<event>
 7    1  0.6358809E-006  0.1342234E+03  0.7818608E-02  0.1275868E+00
          2   -1    0    0  502    0  0.00000000000E+00  0.00000000000E+00  0.77859365696E+03  0.77859365696E+03  0.00000000000E+00 0. -1.
          1   -1    0    0  501    0 -0.00000000000E+00 -0.00000000000E+00 -0.19641286653E+04  0.19641286653E+04  0.00000000000E+00 0. -1.
         25    2    1    2    0    0  0.66561230269E+02 -0.38292002289E+02 -0.19078252649E+03  0.24066570630E+03  0.12500133983E+03 0.  0.
          2    1    1    2  501    0  0.48984693246E+01 -0.77564131351E+02 -0.17413843024E+04  0.17431177464E+04  0.00000000000E+00 0. -1.
          1    1    1    2  502    0 -0.71459699593E+02  0.11585613364E+03  0.74663182048E+03  0.75893886955E+03  0.00000000000E+00 0. -1.
         22    1    3    3    0    0  0.65316011415E+02  0.33667075836E+02 -0.80682025180E+02  0.10912947599E+03  0.00000000000E+00 0.  1.
         22    1    3    3    0    0  0.12452188538E+01 -0.71959078126E+02 -0.11010050131E+03  0.13153623031E+03  0.00000000000E+00 0.  1.
</event>
<event>
 7    1  0.6358809E-006  0.1672298E+03  0.7818608E-02  0.1311151E+00
          2   -1    0    0  502    0  0.00000000000E+00  0.00000000000E+00  0.10052212993E+04  0.10052212993E+04  0.00000000000E+00 0. -1.
          1   -1    0    0  501    0 -0.00000000000E+00 -0.00000000000E+00 -0.88986257202E+03  0.88986257202E+03  0.00000000000E+00 0. -1.
         25    2    1    2    0    0 -0.16201480038E+03 -0.77975976574E+02  0.23876911496E+03  0.32398232673E+03  0.12499923723E+03 0.  0.
          2    1    1    2  501    0  0.16370622910E+03  0.33101194911E+02 -0.83831350036E+03  0.85478941467E+03  0.00000000000E+00 0. -1.
          1    1    1    2  502    0 -0.16914287164E+01  0.44874781663E+02  0.71490311268E+03  0.71631212993E+03  0.00000000000E+00 0. -1.
         22    1    3    3    0    0  0.58123091777E+01 -0.44740920897E+02  0.30532394464E+02  0.54477151655E+02  0.00000000000E+00 0. -1.
         22    1    3    3    0    0 -0.16782710956E+03 -0.33235055677E+02  0.20823672050E+03  0.26950517507E+03  0.00000000000E+00 0. -1.
</event>
<event>
 7    1  0.6358809E-006  0.5665204E+02  0.7818608E-02  0.1443825E+00
          2   -1    0    0  502    0  0.00000000000E+00  0.00000000000E+00  0.32211285965E+04  0.32211285965E+04  0.00000000000E+00 0. -1.
          1   -1    0    0  501    0 -0.00000000000E+00 -0.00000000000E+00 -0.64508212953E+03  0.64508212953E+03  0.00000000000E+00 0. -1.
         25    2    1    2    0    0 -0.25351187678E+02 -0.32252460444E+02  0.17371347261E+03  0.21790693420E+03  0.12499662990E+03 0.  0.
          2    1    1    2  501    0  0.56853080073E+02  0.63990886822E+00 -0.62152314289E+03  0.62411833761E+03  0.00000000000E+00 0. -1.
          1    1    1    2  502    0 -0.31501892395E+02  0.31612551576E+02  0.30238561373E+04  0.30241854542E+04  0.00000000000E+00 0. -1.
         22    1    3    3    0    0 -0.15572278791E+00  0.22620978062E+02  0.15210132154E+03  0.15377433112E+03  0.00000000000E+00 0.  1.
         22    1    3    3    0    0 -0.25195464890E+02 -0.54873438506E+02  0.21612151073E+02  0.64132603086E+02  0.00000000000E+00 0.  1.
</event>
<event>
 7    1  0.6358809E-006  0.1973855E+03  0.7818608E-02  0.1216724E+00
          2   -1    0    0  502    0  0.00000000000E+00  0.00000000000E+00  0.17336068178E+04  0.17336068178E+04  0.00000000000E+00 0. -1.
          1   -1    0    0  501    0 -0.00000000000E+00 -0.00000000000E+00 -0.55532956155E+03  0.55532956155E+03  0.00000000000E+00 0. -1.
         25    2    1    2    0    0  0.11425949962E+03  0.21419147387E+03  0.42998662682E+03  0.50935922995E+03  0.12500042062E+03 0.  0.
          2    1    1    2  501    0  0.31929836065E+02 -0.90314306472E+02 -0.50384212899E+03  0.51286750660E+03  0.00000000000E+00 0. -1.
          1    1    1    2  502    0 -0.14618933568E+03 -0.12387716740E+03  0.12521327584E+04  0.12667096428E+04  0.00000000000E+00 0. -1.
         22    1    3    3    0    0  0.90316052871E+02  0.51665601182E+02  0.21439712096E+03  0.23831166406E+03  0.00000000000E+00 0.  1.
         22    1    3    3    0    0  0.23943446748E+02  0.16252587269E+03  0.21558950586E+03  0.27104756588E+03  0.00000000000E+00 0.  1.
</event>
<event>
 7    1  0.6358809E-006  0.7009123E+02  0.7818608E-02  0.1468018E+00
          2   -1    0    0  502    0  0.00000000000E+00  0.00000000000E+00  0.14457095615E+04  0.14457095615E+04  0.00000000000E+00 0. -1.
          1   -1    0    0  501    0 -0.00000000000E+00 -0.00000000000E+00 -0.84068331274E+03  0.84068331274E+03  0.00000000000E+00 0. -1.
         25    2    1    2    0    0 -0.40330469572E+02 -0.74368346650E+01  0.12546726222E+03  0.18179325723E+03  0.12499960480E+03 0.  0.
          2    1    1    2  501    0  0.70297429873E+02  0.34773338559E+01 -0.81081877197E+03  0.81386786487E+03  0.00000000000E+00 0. -1.
          1    1    1    2  502    0 -0.29966960300E+02  0.39595008091E+01  0.12903777585E+04  0.12907317521E+04  0.00000000000E+00 0. -1.
         22    1    3    3    0    0 -0.66611376491E+02 -0.20241976067E+02  0.13428406511E+03  0.15125813438E+03  0.00000000000E+00 0.  1.
         22    1    3    3    0    0  0.26280906919E+02  0.12805141402E+02 -0.88168028840E+01  0.30535122857E+02  0.00000000000E+00 0.  1.
</event>
<event>
 7    1  0.6358809E-006  0.7383703E+02  0.7818608E-02  0.1468195E+00
          2   -1    0    0  502    0  0.00000000000E+00  0.00000000000E+00  0.13632082419E+04  0.13632082419E+04  0.00000000000E+00 0. -1.
          1   -1    0    0  501    0 -0.00000000000E+00 -0.00000000000E+00 -0.55230746715E+03  0.55230746715E+03  0.00000000000E+00 0. -1.
         25    2    1    2    0    0 -0.43132748499E+02 -0.81035057164E+02 -0.85193813206E+01  0.15532092733E+03  0.12499958451E+03 0.  0.
          2    1    1    2  501    0  0.27161125249E+02  0.91391012576E+01 -0.46889815950E+03  0.46977306636E+03  0.00000000000E+00 0. -1.
          1    1    1    2  502    0  0.15971623250E+02  0.71895955907E+02  0.12883183155E+04  0.12904217153E+04  0.00000000000E+00 0. -1.
         22    1    3    3    0    0 -0.46589166937E+02 -0.59228464110E+02  0.51563937067E+02  0.91309369960E+02  0.00000000000E+00 0. -1.
         22    1    3    3    0    0  0.34564184375E+01 -0.21806593054E+02 -0.60083318388E+02  0.64011557374E+02  0.00000000000E+00 0. -1.
</event>
<event>
 7    1  0.6358809E-006  0.1174806E+03  0.7818608E-02  0.1403542E+00
          2   -1    0    0  502    0  0.00000000000E+00  0.00000000000E+00  0.43449996395E+03  0.43449996395E+03  0.00000000000E+00 0. -1.
          1   -1    0    0  501    0 -0.00000000000E+00 -0.00000000000E+00 -0.95037363124E+03  0.95037363124E+03  0.00000000000E+00 0. -1.
         25    2    1    2    0    0  0.14573295799E+03  0.33278421562E+01  0.42239655078E+02  0.19662760896E+03  0.12501623322E+03 0.  0.
          2    1    1    2  501    0 -0.11646938187E+03 -0.45719366706E+01 -0.86859751965E+03  0.87638328981E+03  0.00000000000E+00 0. -1.
          1    1    1    2  502    0 -0.29263576119E+02  0.12440945144E+01  0.31048419728E+03  0.31186269642E+03  0.00000000000E+00 0. -1.
         22    1    3    3    0    0  0.88488579980E+02  0.63551757543E+02  0.24461985607E+02  0.11165770647E+03  0.00000000000E+00 0.  1.
         22    1    3    3    0    0  0.57244378006E+02 -0.60223915387E+02  0.17777669471E+02  0.84969902493E+02  0.00000000000E+00 0.  1.
</event>
<event>
 7    1  0.6358809E-006  0.1630580E+03  0.7818608E-02  0.1265075E+00
          2   -1    0    0  502    0  0.00000000000E+00  0.00000000000E+00  0.93802706582E+03  0.93802706582E+03  0.00000000000E+00 0. -1.
          1   -1    0    0  501    0 -0.00000000000E+00 -0.00000000000E+00 -0.48135604649E+03  0.48135604649E+03  0.00000000000E+00 0. -1.
         25    2    1    2    0    0 -0.20072162915E+03  0.52780950928E+02  0.15278426679E+03  0.28643231237E+03  0.12500174481E+03 0.  0.
          2    1    1    2  501    0  0.42613661420E+02 -0.56798701317E+02 -0.40268329569E+03  0.40889589535E+03  0.00000000000E+00 0. -1.
          1    1    1    2  502    0  0.15810796773E+03  0.40177503884E+01  0.70657004823E+03  0.72405490457E+03  0.00000000000E+00 0. -1.
         22    1    3    3    0    0 -0.26619261582E+02  0.41027589374E+02  0.87271989720E+02  0.10004123333E+03  0.00000000000E+00 0.  1.
         22    1    3    3    0    0 -0.17410236757E+03  0.11753361554E+02  0.65512277065E+02  0.18639107904E+03  0.00000000000E+00 0.  1.
</event>
<event>
 7    1  0.6358809E-006  0.8666607E+02  0.7818608E-02  0.1333740E+00
          2   -1    0    0  502    0  0.00000000000E+00  0.00000000000E+00  0.66695409288E+03  0.66695409288E+03  0.00000000000E+00 0. -1.
          1   -1    0    0  501    0 -0.00000000000E+00 -0.00000000000E+00 -0.61226309487E+02  0.61226309487E+02  0.00000000000E+00 0. -1.
         25    2    1    2    0    0  0.25817380410E+02  0.45915989005E+02  0.35295125454E+03  0.37812045189E+03  0.12500269149E+03 0.  0.
          2    1    1    2  501    0 -0.76179917143E+02  0.41323464933E+02  0.10032455502E+02  0.87244820439E+02  0.00000000000E+00 0. -1.
          1    1    1    2  502    0  0.50362536733E+02 -0.87239453938E+02  0.24274407336E+03  0.26281513004E+03  0.00000000000E+00 0. -1.
         22    1    3    3    0    0  0.34045687317E+02 -0.37338486698E+02  0.16064870889E+03  0.16840807309E+03  0.00000000000E+00 0. -1.
         22    1    3    3    0    0 -0.82283069073E+01  0.83254475703E+02  0.19230254565E+03  0.20971237880E+03  0.00000000000E+00 0. -1.
</event>
<event>
 7    1  0.6358809E-006  0.8346283E+02  0.7818608E-02  0.1424724E+00
          2   -1    0    0  502    0  0.00000000000E+00  0.00000000000E+00  0.45632885807E+03  0.45632885807E+03  0.00000000000E+00 0. -1.
          1   -1    0    0  501    0 -0.00000000000E+00 -0.00000000000E+00 -0.48868552279E+03  0.48868552279E+03  0.00000000000E+00 0. -1.
         25    2    1    2    0    0 -0.25763962641E+02 -0.84313130850E+02 -0.34391391152E+02  0.15676760630E+03  0.12498331407E+03 0.  0.
          2    1    1    2  501    0 -0.28285116765E+02  0.20582775013E+02 -0.38789216052E+03  0.38946633571E+03  0.00000000000E+00 0. -1.
          1    1    1    2  502    0  0.54049079406E+02  0.63730355837E+02  0.38992688695E+03  0.39878043885E+03  0.00000000000E+00 0. -1.
         22    1    3    3    0    0  0.10068518599E+02 -0.43631906257E+02 -0.76148206344E+02  0.88338370145E+02  0.00000000000E+00 0.  1.
         22    1    3    3    0    0 -0.35832481240E+02 -0.40681224592E+02  0.41756815191E+02  0.68429236157E+02  0.00000000000E+00 0.  1.
</event>
<event>
 7    1  0.6358809E-006  0.1013217E+03  0.7818608E-02  0.1349297E+00
          2   -1    0    0  502    0  0.00000000000E+00  0.00000000000E+00  0.11650548725E+03  0.11650548725E+03  0.00000000000E+00 0. -1.
          1   -1    0    0  501    0 -0.00000000000E+00 -0.00000000000E+00 -0.26798747144E+04  0.26798747144E+04  0.00000000000E+00 0. -1.
         25    2    1    2    0    0  0.62919489111E+02 -0.19819159074E+02 -0.40899232219E+03  0.43272530658E+03  0.12499924069E+03 0.  0.
          2    1    1    2  501    0  0.12655432770E+02 -0.51458761064E+02 -0.22328396788E+04  0.22334684227E+04  0.00000000000E+00 0. -1.
          1    1    1    2  502    0 -0.75574921881E+02  0.71277920138E+02  0.78462773812E+02  0.13018647238E+03  0.00000000000E+00 0. -1.
         22    1    3    3    0    0 -0.34437105192E+02  0.15019912769E+02 -0.12325454100E+03  0.12885338129E+03  0.00000000000E+00 0. -1.
         22    1    3    3    0    0  0.97356594303E+02 -0.34839071843E+02 -0.28573778119E+03  0.30387192529E+03  0.00000000000E+00 0. -1.
</event>
<event>
 7    1  0.6358809E-006  0.6975178E+02  0.7818608E-02  0.1391739E+00
          2   -1    0    0  502    0  0.00000000000E+00  0.00000000000E+00  0.31368335974E+04  0.31368335974E+04  0.00000000000E+00 0. -1.
          1   -1    0    0  501    0 -0.00000000000E+00 -0.00000000000E+00 -0.14038120412E+03  0.14038120412E+03  0.00000000000E+00 0. -1.
         25    2    1    2    0    0  0.87331092045E+01  0.14287819371E+02  0.61286287723E+02  0.14021901877E+03  0.12499982073E+03 0.  0.
          2    1    1    2  501    0  0.41109697587E+02  0.35294828956E+02 -0.93204538783E+02  0.10780917510E+03  0.00000000000E+00 0. -1.
          1    1    1    2  502    0 -0.49842806792E+02 -0.49582648327E+02  0.30283706444E+04  0.30291866077E+04  0.00000000000E+00 0. -1.
         22    1    3    3    0    0  0.80007814332E+00  0.62578040315E+02  0.10273479496E+01  0.62591586483E+02  0.00000000000E+00 0. -1.
         22    1    3    3    0    0  0.79330310611E+01 -0.48290220944E+02  0.60258939774E+02  0.77627432286E+02  0.00000000000E+00 0. -1.
</event>
<event>
 7    1  0.6358809E-006  0.8389300E+02  0.7818608E-02  0.1389754E+00
          2   -1    0    0  502    0  0.00000000000E+00  0.00000000000E+00  0.18497565948E+04  0.18497565948E+04  0.00000000000E+00 0. -1.
          1   -1    0    0  501    0 -0.00000000000E+00 -0.00000000000E+00 -0.13525093246E+04  0.13525093246E+04  0.00000000000E+00 0. -1.
         25    2    1    2    0    0 -0.36137599750E+02 -0.24402095523E+02  0.17516871668E+03  0.21956756339E+03  0.12499778882E+03 0.  0.
          2    1    1    2  501    0 -0.18910035007E+02 -0.41684337988E+02 -0.13287963275E+04  0.13295844665E+04  0.00000000000E+00 0. -1.
          1    1    1    2  502    0  0.55047634757E+02  0.66086433512E+02  0.16508748811E+04  0.16531138895E+04  0.00000000000E+00 0. -1.
         22    1    3    3    0    0 -0.17925895397E+02 -0.69882494879E+02  0.14520414117E+03  0.16213927171E+03  0.00000000000E+00 0. -1.
         22    1    3    3    0    0 -0.18211704353E+02  0.45480399355E+02  0.29964575505E+02  0.57428291688E+02  0.00000000000E+00 0. -1.
</event>
<event>
 7    1  0.6358809E-006  0.1660189E+03  0.7818608E-02  0.1210911E+00
          2   -1    0    0  502    0  0.00000000000E+00  0.00000000000E+00  0.48355288059E+03  0.48355288059E+03  0.00000000000E+00 0. -1.
          1   -1    0    0  501    0 -0.00000000000E+00 -0.00000000000E+00 -0.60253240668E+03  0.60253240668E+03  0.00000000000E+00 0. -1.
         25    2    1    2    0    0 -0.43680193628E+01 -0.69609278542E+02 -0.64654783880E+01  0.14328759692E+03  0.12500000708E+03 0.  0.
          2    1    1    2  501    0  0.21967796476E+02  0.18945855179E+03 -0.50088752357E+03  0.53597149009E+03  0.00000000000E+00 0. -1.
          1    1    1    2  502    0 -0.17599777113E+02 -0.11984927325E+03  0.38837347587E+03  0.40682620025E+03  0.00000000000E+00 0. -1.
         22    1    3    3    0    0  0.42031794564E+02  0.11016198708E+02 -0.22437510336E+02  0.48902661056E+02  0.00000000000E+00 0.  1.
         22    1    3    3    0    0 -0.46399813927E+02 -0.80625477250E+02  0.15972031948E+02  0.94384935868E+02  0.00000000000E+00 0.  1.
</event>
<event>
 7    1  0.6358809E-006  0.1032448E+03  0.7818608E-02  0.1399080E+00
          2   -1    0    0  502    0  0.00000000000E+00  0.00000000000E+00  0.18628920804E+04  0.18628920804E+04  0.00000000000E+00 0. -1.
          1   -1    0    0  501    0 -0.00000000000E+00 -0.00000000000E+00 -0.48528536518E+03  0.48528536518E+03  0.00000000000E+00 0. -1.
         25    2    1    2    0    0  0.74030931168E+02 -0.11193865472E+03  0.34887494382E+03  0.39414437019E+03  0.12500086774E+03 0.  0.
          2    1    1    2  501    0 -0.66702315263E+02  0.78200493296E+02 -0.45673890824E+03  0.46816123966E+03  0.00000000000E+00 0. -1.
          1    1    1    2  502    0 -0.73286159046E+01  0.33738161421E+02  0.14854706796E+04  0.14858718357E+04  0.00000000000E+00 0. -1.
         22    1    3    3    0    0 -0.19442971501E+01  0.17800988887E+02  0.46246024813E+01  0.18494389551E+02  0.00000000000E+00 0. -1.
         22    1    3    3    0    0  0.75975228318E+02 -0.12973964360E+03  0.34425034134E+03  0.37564998064E+03  0.00000000000E+00 0. -1.
</event>
<event>
 7    1  0.6358809E-006  0.6645354E+02  0.7818608E-02  0.1472018E+00
          2   -1    0    0  502    0  0.00000000000E+00  0.00000000000E+00  0.23158771345E+04  0.23158771345E+04  0.00000000000E+00 0. -1.
          1   -1    0    0  501    0 -0.00000000000E+00 -0.00000000000E+00 -0.39839889218E+02  0.39839889218E+02  0.00000000000E+00 0. -1.
         25    2    1    2    0    0 -0.93086249049E+02 -0.19433550495E+02  0.12383417223E+04  0.12482618420E+04  0.12499876910E+03 0.  0.
          2    1    1    2  501    0  0.65543505593E+02  0.52471572953E+01 -0.34548942813E+01  0.65843906928E+02  0.00000000000E+00 0. -1.
          1    1    1    2  502    0  0.27542743456E+02  0.14186393200E+02  0.10411504172E+04  0.10416112748E+04  0.00000000000E+00 0. -1.
         22    1    3    3    0    0  0.95130537941E+01  0.37165753759E+02  0.23657156502E+03  0.23966204710E+03  0.00000000000E+00 0. -1.
         22    1    3    3    0    0 -0.10259930284E+03 -0.56599304254E+02  0.10017701573E+04  0.10085997949E+04  0.00000000000E+00 0. -1.
</event>
<event>
 7    1  0.6358809E-006  0.7065360E+02  0.7818608E-02  0.1482565E+00
          2   -1    0    0  502    0  0.00000000000E+00  0.00000000000E+00  0.10222116729E+04  0.10222116729E+04  0.00000000000E+00 0. -1.
          1   -1    0    0  501    0 -0.00000000000E+00 -0.00000000000E+00 -0.11187250539E+04  0.11187250539E+04  0.00000000000E+00 0. -1.
         25    2    1    2    0    0  0.83547531170E+02 -0.46596365077E+02  0.13826125537E+03  0.20950598476E+03  0.12500068683E+03 0.  0.
          2    1    1    2  501    0 -0.26044319200E+02  0.72706969815E+01 -0.10815032100E+04  0.10818411911E+04  0.00000000000E+00 0. -1.
          1    1    1    2  502    0 -0.57503211970E+02  0.39325668096E+02  0.84672857364E+03  0.84958955088E+03  0.00000000000E+00 0. -1.
         22    1    3    3    0    0  0.86758844862E+02 -0.59250687094E+02  0.43270922094E+02  0.11362268163E+03  0.00000000000E+00 0. -1.
         22    1    3    3    0    0 -0.32113136915E+01  0.12654322017E+02  0.94990333278E+02  0.95883303122E+02  0.00000000000E+00 0. -1.
</event>
<event>
 7    1  0.7282458E-006  0.1226352E+03  0.7818608E-02  0.1384956E+00
          2   -1    0    0  502    0  0.00000000000E+00  0.00000000000E+00  0.77650357719E+03  0.77650357719E+03  0.00000000000E+00 0. -1.
          1   -1    0    0  501    0 -0.00000000000E+00 -0.00000000000E+00 -0.11182784657E+04  0.11182784657E+04  0.00000000000E+00 0. -1.
         25    2    1    2    0    0  0.13274655085E+03 -0.16627729205E+02 -0.34381411058E+03  0.38952933763E+03  0.12500733618E+03 0.  0.
          2    1    1    2  501    0 -0.18228320305E+02 -0.26964978934E+02 -0.74626896822E+03  0.74697841647E+03  0.00000000000E+00 0. -1.
          1    1    1    2  502    0 -0.11451823054E+03  0.43592708139E+02  0.74830819031E+03  0.75827428877E+03  0.00000000000E+00 0. -1.
         22    1    3    3    0    0 -0.12694412878E+01  0.13695564530E+02  0.49945219330E+01  0.14633018086E+02  0.00000000000E+00 0.  1.
         22    1    3    3    0    0  0.13401599214E+03 -0.30323293735E+02 -0.34880863251E+03  0.37489631954E+03  0.00000000000E+00 0.  1.
</event>
<event>
 7    1  0.7129459E-006  0.1181152E+03  0.7818608E-02  0.1261697E+00
          2   -1    0    0  502    0  0.00000000000E+00  0.00000000000E+00  0.90325939750E+03  0.90325939750E+03  0.00000000000E+00 0. -1.
          1   -1    0    0  501    0 -0.00000000000E+00 -0.00000000000E+00 -0.22752725201E+04  0.22752725201E+04  0.00000000000E+00 0. -1.
         25    2    1    2    0    0  0.48108115284E+01 -0.16798277157E+02 -0.10134275980E+04  0.10212570244E+04  0.12500035015E+03 0.  0.
          2    1    1    2  501    0  0.46341939604E+02 -0.90096022690E+02 -0.12519712353E+04  0.12560640281E+04  0.00000000000E+00 0. -1.
          1    1    1    2  502    0 -0.51152751132E+02  0.10689429985E+03  0.89338571068E+03  0.90121086508E+03  0.00000000000E+00 0. -1.
         22    1    3    3    0    0 -0.45358322313E+02 -0.41203870114E+02 -0.71781118840E+03  0.72042212522E+03  0.00000000000E+00 0. -1.
         22    1    3    3    0    0  0.50169133841E+02  0.24405592957E+02 -0.29561640959E+03  0.30083489920E+03  0.00000000000E+00 0. -1.
</event>
<event>
 7    1  0.6358809E-006  0.1323477E+03  0.7818608E-02  0.1243401E+00
          2   -1    0    0  502    0  0.00000000000E+00  0.00000000000E+00  0.19582509875E+04  0.19582509875E+04  0.00000000000E+00 0. -1.
          1   -1    0    0  501    0 -0.00000000000E+00 -0.00000000000E+00 -0.13594081040E+04  0.13594081040E+04  0.00000000000E+00 0. -1.
         25    2    1    2    0    0  0.20933881622E+03  0.11025276425E+03  0.59109066831E+03  0.64883426562E+03  0.12497725424E+03 0.  0.
          2    1    1    2  501    0 -0.12487852588E+03 -0.42191502222E+02 -0.13250629556E+04  0.13316030209E+04  0.00000000000E+00 0. -1.
          1    1    1    2  502    0 -0.84460290343E+02 -0.68061262024E+02  0.13328151708E+04  0.13372218049E+04  0.00000000000E+00 0. -1.
         22    1    3    3    0    0  0.12608721656E+03  0.10346580979E+02  0.19966510466E+03  0.23637087794E+03  0.00000000000E+00 0. -1.
         22    1    3    3    0    0  0.83251599667E+02  0.99906183267E+02  0.39142556365E+03  0.41246338768E+03  0.00000000000E+00 0. -1.
</event>
<event>
 7    1  0.6358809E-006  0.3093869E+03  0.7818608E-02  0.1283747E+00
          2   -1    0    0  502    0  0.00000000000E+00  0.00000000000E+00  0.28804135921E+04  0.28804135921E+04  0.00000000000E+00 0. -1.
          1   -1    0    0  501    0 -0.00000000000E+00 -0.00000000000E+00 -0.13738059462E+04  0.13738059462E+04  0.00000000000E+00 0. -1.
         25    2    1    2    0    0 -0.31707048502E+03  0.40735555374E+01  0.69989352987E+03  0.77847658135E+03  0.12499819289E+03 0.  0.
          2    1    1    2  501    0  0.30738052273E+03 -0.33816082760E+02 -0.13164835980E+04  0.13523148217E+04  0.00000000000E+00 0. -1.
          1    1    1    2  502    0  0.96899622875E+01  0.29742527223E+02  0.21231977140E+04  0.21234281353E+04  0.00000000000E+00 0. -1.
         22    1    3    3    0    0 -0.21372023178E+03  0.29478869773E+02  0.57638897048E+03  0.61544259401E+03  0.00000000000E+00 0.  1.
         22    1    3    3    0    0 -0.10335025324E+03 -0.25405314235E+02  0.12350455940E+03  0.16303398734E+03  0.00000000000E+00 0.  1.
</event>
<event>
 7    1  0.6358809E-006  0.1037797E+03  0.7818608E-02  0.1284093E+00
          2   -1    0    0  502    0  0.00000000000E+00  0.00000000000E+00  0.10983501573E+04  0.10983501573E+04  0.00000000000E+00 0. -1.
          1   -1    0    0  501    0 -0.00000000000E+00 -0.00000000000E+00 -0.70832889212E+02  0.70832889212E+02  0.00000000000E+00 0. -1.
         25    2    1    2    0    0  0.15708990045E+03 -0.98912899447E+02  0.42659944635E+03  0.48174237798E+03  0.12501052999E+03 0.  0.
          2    1    1    2  501    0 -0.84521093698E+02  0.40830507131E+02  0.16045274239E+02  0.95228128292E+02  0.00000000000E+00 0. -1.
          1    1    1    2  502    0 -0.72568806752E+02  0.58082392317E+02  0.58487254752E+03  0.59221254027E+03  0.00000000000E+00 0. -1.
         22    1    3    3    0    0  0.91651825631E+02 -0.33803102027E+02  0.90390145298E+02  0.13309051512E+03  0.00000000000E+00 0.  1.
         22    1    3    3    0    0  0.65438074820E+02 -0.65109797420E+02  0.33620930106E+03  0.34865186286E+03  0.00000000000E+00 0.  1.
</event>
<event>
 7    1  0.6358809E-006  0.1020934E+03  0.7818608E-02  0.1365768E+00
          2   -1    0    0  502    0  0.00000000000E+00  0.00000000000E+00  0.23951337069E+04  0.23951337069E+04  0.00000000000E+00 0. -1.
          1   -1    0    0  501    0 -0.00000000000E+00 -0.00000000000E+00 -0.36353901738E+03  0.36353901738E+03  0.00000000000E+00 0. -1.
         25    2    1    2    0    0  0.69002519075E+02  0.28174829345E+02 -0.11949245626E+03  0.18829750002E+03  0.12498933059E+03 0.  0.
          2    1    1    2  501    0 -0.11388600524E+03 -0.19211370383E+02 -0.19349687948E+03  0.22534449474E+03  0.00000000000E+00 0. -1.
          1    1    1    2  502    0  0.44883486168E+02 -0.89634589618E+01  0.23445840252E+04  0.23450307295E+04  0.00000000000E+00 0. -1.
         22    1    3    3    0    0  0.10125117769E+03  0.30907319196E+02 -0.11381723618E+03  0.15543946286E+03  0.00000000000E+00 0. -1.
         22    1    3    3    0    0 -0.32248658610E+02 -0.27324898507E+01 -0.56752200810E+01  0.32858037158E+02  0.00000000000E+00 0. -1.
</event>
<event>
 7    1  0.6358809E-006  0.9140462E+02  0.7818608E-02  0.1448588E+00
          2   -1    0    0  502    0  0.00000000000E+00  0.00000000000E+00  0.16876913131E+04  0.16876913131E+04  0.00000000000E+00 0. -1.
          1   -1    0    0  501    0 -0.00000000000E+00 -0.00000000000E+00 -0.33626723293E+02  0.33626723293E+02  0.00000000000E+00 0. -1.
         25    2    1    2    0    0  0.80473747345E+02  0.82394324355E+01  0.42459355152E+03  0.44993798348E+03  0.12498236967E+03 0.  0.
          2    1    1    2  501    0 -0.93330568737E+02  0.15163311653E+02  0.86667093234E+02  0.12826420440E+03  0.00000000000E+00 0. -1.
          1    1    1    2  502    0  0.12856821392E+02 -0.23402744088E+02  0.11428039451E+04  0.11431158486E+04  0.00000000000E+00 0. -1.
         22    1    3    3    0    0  0.51494158576E+02 -0.27392908892E+02  0.64636599268E+02  0.87062677365E+02  0.00000000000E+00 0.  1.
         22    1    3    3    0    0  0.28979588769E+02  0.35632341327E+02  0.35995695225E+03  0.36287530611E+03  0.00000000000E+00 0.  1.
</event>
<event>
 7    1  0.6358809E-006  0.8138959E+02  0.7818608E-02  0.1373984E+00
          2   -1    0    0  502    0  0.00000000000E+00  0.00000000000E+00  0.32154436344E+03  0.32154436344E+03  0.00000000000E+00 0. -1.
          1   -1    0    0  501    0 -0.00000000000E+00 -0.00000000000E+00 -0.50362104872E+03  0.50362104872E+03  0.00000000000E+00 0. -1.
         25    2    1    2    0    0  0.52100932197E+02  0.46479913127E+02  0.29370123159E+02  0.14616129203E+03  0.12500251875E+03 0.  0.
          2    1    1    2  501    0 -0.11703063338E+02 -0.81763922166E+02 -0.43823934930E+03  0.44595518602E+03  0.00000000000E+00 0. -1.
          1    1    1    2  502    0 -0.40397868859E+02  0.35284009039E+02  0.22679254086E+03  0.23304893411E+03  0.00000000000E+00 0. -1.
         22    1    3    3    0    0 -0.31182921438E+02  0.14453058322E+02 -0.24247086428E+02  0.42061700923E+02  0.00000000000E+00 0.  1.
         22    1    3    3    0    0  0.83283853635E+02  0.32026854804E+02  0.53617209587E+02  0.10409959111E+03  0.00000000000E+00 0.  1.
</event>
<event>
 7    1  0.6358809E-006  0.2866078E+03  0.7818608E-02  0.1278233E+00
          2   -1    0    0  502    0  0.00000000000E+00  0.00000000000E+00  0.74959009638E+03  0.74959009638E+03  0.00000000000E+00 0. -1.
          1   -1    0    0  501    0 -0.00000000000E+00 -0.00000000000E+00 -0.68379209791E+03  0.68379209791E+03  0.00000000000E+00 0. -1.
         25    2    1    2    0    0 -0.13293148316E+03  0.24606580088E+03 -0.84721357676E+02  0.31784067178E+03  0.12500330641E+03 0.  0.
          2    1    1    2  501    0  0.27872498025E+02  0.22120081046E+02 -0.44900727513E+03  0.45041503888E+03  0.00000000000E+00 0. -1.
          1    1    1    2  502    0  0.10505898514E+03 -0.26818588192E+03  0.59952663127E+03  0.66512648363E+03  0.00000000000E+00 0. -1.
         22    1    3    3    0    0  0.10784114366E+02  0.14737128783E+01  0.13759701506E+02  0.17544182451E+02  0.00000000000E+00 0. -1.
         22    1    3    3    0    0 -0.14371559753E+03  0.24459208800E+03 -0.98481059182E+02  0.30029648933E+03  0.00000000000E+00 0. -1.
</event>
<event>
 7    1  0.6358809E-006  0.8231314E+02  0.7818608E-02  0.1394678E+00
          2   -1    0    0  502    0  0.00000000000E+00  0.00000000000E+00  0.66371230434E+03  0.66371230434E+03  0.00000000000E+00 0. -1.
          1   -1    0    0  501    0 -0.00000000000E+00 -0.00000000000E+00 -0.79711048280E+03  0.79711048280E+03  0.00000000000E+00 0. -1.
         25    2    1    2    0    0  0.98128000851E+02  0.18672150412E+01 -0.14441744910E+03  0.21474881789E+03  0.12501225596E+03 0.  0.
          2    1    1    2  501    0 -0.24154406685E+02 -0.37786973022E+02 -0.61401636090E+03  0.61565199759E+03  0.00000000000E+00 0. -1.
          1    1    1    2  502    0 -0.73973594167E+02  0.35919757981E+02  0.62503563154E+03  0.63042197165E+03  0.00000000000E+00 0. -1.
         22    1    3    3    0    0  0.73916429262E+00  0.29137210011E+02  0.94322621638E+01  0.30634799503E+02  0.00000000000E+00 0.  1.
         22    1    3    3    0    0  0.97388836559E+02 -0.27269994970E+02 -0.15384971126E+03  0.18411401839E+03  0.00000000000E+00 0.  1.
</event>
<event>
 7    1  0.6358809E-006  0.1358542E+03  0.7818608E-02  0.1289005E+00
          2   -1    0    0  502    0  0.00000000000E+00  0.00000000000E+00  0.11331811683E+04  0.11331811683E+04  0.00000000000E+00 0. -1.
          1   -1    0    0  501    0 -0.00000000000E+00 -0.00000000000E+00 -0.81877084265E+02  0.81877084265E+02  0.00000000000E+00 0. -1.
         25    2    1    2    0    0  0.11592021277E+03 -0.64777118730E+02  0.47258199546E+03  0.50654971130E+03  0.12500118696E+03 0.  0.
          2    1    1    2  501    0 -0.13857917328E+03  0.87976550354E+00  0.13503256840E+02  0.13923828209E+03  0.00000000000E+00 0. -1.
          1    1    1    2  502    0  0.22658960509E+02  0.63897353226E+02  0.56521883169E+03  0.56927025914E+03  0.00000000000E+00 0. -1.
         22    1    3    3    0    0 -0.23142290120E+02  0.58150141638E+01  0.96666548370E+02  0.99568074982E+02  0.00000000000E+00 0.  1.
         22    1    3    3    0    0  0.13906250289E+03 -0.70592132894E+02  0.37591544709E+03  0.40698163631E+03  0.00000000000E+00 0.  1.
</event>
<event>
 7    1  0.6358809E-006  0.9966893E+02  0.7818608E-02  0.1435872E+00
          2   -1    0    0  502    0  0.00000000000E+00  0.00000000000E+00  0.34364053241E+03  0.34364053241E+03  0.00000000000E+00 0. -1.
          1   -1    0    0  501    0 -0.00000000000E+00 -0.00000000000E+00 -0.30675150061E+04  0.30675150061E+04  0.00000000000E+00 0. -1.
         25    2    1    2    0    0  0.11581636804E+03  0.22588892335E+02 -0.17866865701E+04  0.17949367075E+04  0.12500077946E+03 0.  0.
          2    1    1    2  501    0 -0.88978339612E+02 -0.24697484679E+02 -0.12744966281E+04  0.12778375350E+04  0.00000000000E+00 0. -1.
          1    1    1    2  502    0 -0.26838028424E+02  0.21085923445E+01  0.33730872451E+03  0.33838129611E+03  0.00000000000E+00 0. -1.
         22    1    3    3    0    0  0.11091477151E+03 -0.14062758070E+02 -0.82520695600E+03  0.83274628065E+03  0.00000000000E+00 0.  1.
         22    1    3    3    0    0  0.49015965259E+01  0.36651650405E+02 -0.96147961409E+03  0.96219042681E+03  0.00000000000E+00 0.  1.
</event>
<event>
 7    1  0.6358809E-006  0.1010350E+03  0.7818608E-02  0.1335623E+00
          2   -1    0    0  502    0  0.00000000000E+00  0.00000000000E+00  0.42236497329E+03  0.42236497329E+03  0.00000000000E+00 0. -1.
          1   -1    0    0  501    0 -0.00000000000E+00 -0.00000000000E+00 -0.66952992170E+03  0.66952992170E+03  0.00000000000E+00 0. -1.
         25    2    1    2    0    0 -0.13600380197E+03 -0.44797357538E+02 -0.23695269840E+03  0.30376847962E+03  0.12499948215E+03 0.  0.
          2    1    1    2  501    0  0.35828157293E+02  0.47877667261E+02 -0.39039853447E+03  0.39495182440E+03  0.00000000000E+00 0. -1.
          1    1    1    2  502    0  0.10017564467E+03 -0.30803097227E+01  0.38018628446E+03  0.39317459098E+03  0.00000000000E+00 0. -1.
         22    1    3    3    0    0 -0.60900702681E+02 -0.48197750010E+02 -0.21000245118E+03  0.22390388160E+03  0.00000000000E+00 0.  1.
         22    1    3    3    0    0 -0.75103099287E+02  0.34003924715E+01 -0.26950247217E+02  0.79864598018E+02  0.00000000000E+00 0.  1.
</event>
<event>
 7    1  0.6358809E-006  0.3177490E+03  0.7818608E-02  0.1215107E+00
          2   -1    0    0  502    0  0.00000000000E+00  0.00000000000E+00  0.34590668786E+03  0.34590668786E+03  0.00000000000E+00 0. -1.
          1   -1    0    0  501    0 -0.00000000000E+00 -0.00000000000E+00 -0.95405382815E+03  0.95405382815E+03  0.00000000000E+00 0. -1.
         25    2    1    2    0    0  0.99781753843E+02  0.34165278673E+03 -0.68696256485E+02  0.38344120852E+03  0.12499983863E+03 0.  0.
          2    1    1    2  501    0 -0.50944969534E+02 -0.30588859985E+03 -0.68879077838E+03  0.75537802577E+03  0.00000000000E+00 0. -1.
          1    1    1    2  502    0 -0.48836784309E+02 -0.35764186886E+02  0.14933989457E+03  0.16114128173E+03  0.00000000000E+00 0. -1.
         22    1    3    3    0    0  0.18541012137E+02  0.43037738948E+02 -0.56946899131E+02  0.73749341865E+02  0.00000000000E+00 0.  1.
         22    1    3    3    0    0  0.81240741705E+02  0.29861504778E+03 -0.11749357354E+02  0.30969186666E+03  0.00000000000E+00 0.  1.
</event>
<event>
 7    1  0.6358809E-006  0.8731142E+02  0.7818608E-02  0.1383323E+00
          2   -1    0    0  502    0  0.00000000000E+00  0.00000000000E+00  0.16567748249E+04  0.16567748249E+04  0.00000000000E+00 0. -1.
          1   -1    0    0  501    0 -0.00000000000E+00 -0.00000000000E+00 -0.34134462295E+03  0.34134462295E+03  0.00000000000E+00 0. -1.
         25    2    1    2    0    0 -0.14640982353E+01 -0.12687052968E+03 -0.65686630564E+02  0.18983587012E+03  0.12499859705E+03 0.  0.
          2    1    1    2  501    0 -0.93281345803E+01  0.81819744475E+02 -0.20529491804E+03  0.22119558778E+03  0.00000000000E+00 0. -1.
          1    1    1    2  502    0  0.10792232816E+02  0.45050785209E+02  0.15864117506E+04  0.15870879900E+04  0.00000000000E+00 0. -1.
         22    1    3    3    0    0 -0.53139482585E+02 -0.10451606540E+03 -0.23749379807E+02  0.11963045422E+03  0.00000000000E+00 0. -1.
         22    1    3    3    0    0  0.51675384350E+02 -0.22354464287E+02 -0.41937250757E+02  0.70205415904E+02  0.00000000000E+00 0. -1.
</event>
<event>
 7    1  0.6358809E-006  0.1825143E+03  0.7818608E-02  0.1245552E+00
          2   -1    0    0  502    0  0.00000000000E+00  0.00000000000E+00  0.24056361825E+04  0.24056361825E+04  0.00000000000E+00 0. -1.
          1   -1    0    0  501    0 -0.00000000000E+00 -0.00000000000E+00 -0.86881671459E+03  0.86881671459E+03  0.00000000000E+00 0. -1.
         25    2    1    2    0    0  0.32026473055E+02 -0.18403141092E+03 -0.86603705772E+02  0.24087300919E+03  0.12500539797E+03 0.  0.
          2    1    1    2  501    0  0.44743358647E+02  0.17849834327E+03 -0.69242106062E+03  0.71645694350E+03  0.00000000000E+00 0. -1.
          1    1    1    2  502    0 -0.76769831703E+02  0.55330676471E+01  0.23158442343E+04  0.23171229444E+04  0.00000000000E+00 0. -1.
         22    1    3    3    0    0  0.69044622272E+01 -0.10748194757E+03 -0.11298728719E+03  0.15609666145E+03  0.00000000000E+00 0.  1.
         22    1    3    3    0    0  0.25122010828E+02 -0.76549463349E+02  0.26383581414E+02  0.84776347735E+02  0.00000000000E+00 0.  1.
</event>
<event>
 7    1  0.6358809E-006  0.9695147E+02  0.7818608E-02  0.1464672E+00
          2   -1    0    0  502    0  0.00000000000E+00  0.00000000000E+00  0.76891130806E+03  0.76891130806E+03  0.00000000000E+00 0. -1.
          1   -1    0    0  501    0 -0.00000000000E+00 -0.00000000000E+00 -0.71887532882E+03  0.71887532882E+03  0.00000000000E+00 0. -1.
         25    2    1    2    0    0 -0.24593053044E+02 -0.10598924804E+03  0.16301248576E+02  0.16651973628E+03  0.12499821162E+03 0.  0.
          2    1    1    2  501    0 -0.13928762626E+02  0.17524594253E+02 -0.64013405004E+03  0.64052534989E+03  0.00000000000E+00 0. -1.
          1    1    1    2  502    0  0.38521815670E+02  0.88464653783E+02  0.67386878070E+03  0.68074155071E+03  0.00000000000E+00 0. -1.
         22    1    3    3    0    0 -0.56156849589E+02 -0.97976429032E+02 -0.23239254671E+02  0.11529542645E+03  0.00000000000E+00 0. -1.
         22    1    3    3    0    0  0.31563796545E+02 -0.80128190040E+01  0.39540503247E+02  0.51224309832E+02  0.00000000000E+00 0. -1.
</event>
<event>
 7    1  0.6358809E-006  0.7845725E+02  0.7818608E-02  0.1463816E+00
          2   -1    0    0  502    0  0.00000000000E+00  0.00000000000E+00  0.49525342899E+02  0.49525342899E+02  0.00000000000E+00 0. -1.
          1   -1    0    0  501    0 -0.00000000000E+00 -0.00000000000E+00 -0.63295377596E+03  0.63295377596E+03  0.00000000000E+00 0. -1.
         25    2    1    2    0    0  0.32629279890E+02  0.85014407266E+02 -0.37197200496E+03  0.40283355659E+03  0.12497832808E+03 0.  0.
          2    1    1    2  501    0 -0.69615021726E+01 -0.74248817171E+02 -0.23287516155E+03  0.24452441643E+03  0.00000000000E+00 0. -1.
          1    1    1    2  502    0 -0.25667777717E+02 -0.10765590095E+02  0.21418733445E+02  0.35121145844E+02  0.00000000000E+00 0. -1.
         22    1    3    3    0    0  0.76117591150E+02  0.80157706557E+02 -0.27808806730E+03  0.29925260028E+03  0.00000000000E+00 0. -1.
         22    1    3    3    0    0 -0.43488311260E+02  0.48567007096E+01 -0.93883937660E+02  0.10358095630E+03  0.00000000000E+00 0. -1.
</event>
<event>
 7    1  0.6358809E-006  0.1034990E+03  0.7818608E-02  0.1305816E+00
          2   -1    0    0  502    0  0.00000000000E+00  0.00000000000E+00  0.27434546957E+04  0.27434546957E+04  0.00000000000E+00 0. -1.
          1   -1    0    0  501    0 -0.00000000000E+00 -0.00000000000E+00 -0.97747740245E+03  0.97747740245E+03  0.00000000000E+00 0. -1.
         25    2    1    2    0    0 -0.30311734639E+02 -0.15468590356E+02  0.23204405288E+03  0.26576205101E+03  0.12500778669E+03 0.  0.
          2    1    1    2  501    0 -0.75892797612E+02 -0.64442787974E+01 -0.95792753864E+03  0.96095078684E+03  0.00000000000E+00 0. -1.
          1    1    1    2  502    0  0.10620453225E+03  0.21912869153E+02  0.24918607790E+04  0.24942192603E+04  0.00000000000E+00 0. -1.
         22    1    3    3    0    0  0.15881720043E+02 -0.30140802021E+02  0.60162335817E+01  0.34596127594E+02  0.00000000000E+00 0. -1.
         22    1    3    3    0    0 -0.46193454682E+02  0.14672211665E+02  0.22602781930E+03  0.23116592341E+03  0.00000000000E+00 0. -1.
</event>
<event>
 7    1  0.6358809E-006  0.1301524E+03  0.7818608E-02  0.1259737E+00
          2   -1    0    0  502    0  0.00000000000E+00  0.00000000000E+00  0.11034883258E+04  0.11034883258E+04  0.00000000000E+00 0. -1.
          1   -1    0    0  501    0 -0.00000000000E+00 -0.00000000000E+00 -0.45870628168E+03  0.45870628168E+03  0.00000000000E+00 0. -1.
         25    2    1    2    0    0 -0.20252976058E+02 -0.48421928916E+02  0.12721231237E+03  0.18590467458E+03  0.12499083715E+03 0.  0.
          2    1    1    2  501    0 -0.57302464126E+02 -0.74176059983E+02 -0.41859038357E+03  0.42895637248E+03  0.00000000000E+00 0. -1.
          1    1    1    2  502    0  0.77555440184E+02  0.12259798890E+03  0.93616011529E+03  0.94733356039E+03  0.00000000000E+00 0. -1.
         22    1    3    3    0    0 -0.19133315508E+02  0.34545827971E+00  0.13513674810E+03  0.13648495811E+03  0.00000000000E+00 0. -1.
         22    1    3    3    0    0 -0.11196605505E+01 -0.48767387196E+02 -0.79244357302E+01  0.49419716463E+02  0.00000000000E+00 0. -1.
</event>
<event>
 7    1  0.6358809E-006  0.2170682E+03  0.7818608E-02  0.1173057E+00
          2   -1    0    0  502    0  0.00000000000E+00  0.00000000000E+00  0.16936210407E+04  0.16936210407E+04  0.00000000000E+00 0. -1.
          1   -1    0    0  501    0 -0.00000000000E+00 -0.00000000000E+00 -0.97957220624E+03  0.97957220624E+03  0.00000000000E+00 0. -1.
         25    2    1    2    0    0 -0.39053444375E+02  0.19254765013E+03 -0.34320676801E+03  0.41474926546E+03  0.12500519392E+03 0.  0.
          2    1    1    2  501    0  0.17818292098E+03 -0.17252604436E+03 -0.57183244698E+03  0.62330308577E+03  0.00000000000E+00 0. -1.
          1    1    1    2  502    0 -0.13912947660E+03 -0.20021605768E+02  0.16290880494E+04  0.16351408957E+04  0.00000000000E+00 0. -1.
         22    1    3    3    0    0 -0.50304830101E+02  0.20610404943E+03 -0.33157400729E+03  0.39363787601E+03  0.00000000000E+00 0.  1.
         22    1    3    3    0    0  0.11251385726E+02 -0.13556399297E+02 -0.11632760722E+02  0.21111389454E+02  0.00000000000E+00 0.  1.
</event>
<event>
 7    1  0.6358809E-006  0.4793855E+02  0.7818608E-02  0.1546474E+00
          2   -1    0    0  502    0  0.00000000000E+00  0.00000000000E+00  0.16343851970E+04  0.16343851970E+04  0.00000000000E+00 0. -1.
          1   -1    0    0  501    0 -0.00000000000E+00 -0.00000000000E+00 -0.44538450401E+02  0.44538450401E+02  0.00000000000E+00 0. -1.
         25    2    1    2    0    0  0.62339012993E+02  0.12758738551E+02  0.97605752543E+02  0.17088099873E+03  0.12499797938E+03 0.  0.
          2    1    1    2  501    0 -0.15228401280E+02 -0.20957606269E+02  0.14815166423E+02  0.29843167094E+02  0.00000000000E+00 0. -1.
          1    1    1    2  502    0 -0.47110611713E+02  0.81988677175E+01  0.14774258276E+04  0.14781994816E+04  0.00000000000E+00 0. -1.
         22    1    3    3    0    0  0.79328243578E+02  0.45789987174E+02  0.97446013851E+02  0.13373637789E+03  0.00000000000E+00 0.  1.
         22    1    3    3    0    0 -0.16989230585E+02 -0.33031248623E+02  0.15973869251E+00  0.37144620847E+02  0.00000000000E+00 0.  1.
</event>
<event>
 7    1  0.6358809E-006  0.1122463E+03  0.7818608E-02  0.1281970E+00
          2   -1    0    0  502    0  0.00000000000E+00  0.00000000000E+00  0.11600184061E+04  0.11600184061E+04  0.00000000000E+00 0. -1.
          1   -1    0    0  501    0 -0.00000000000E+00 -0.00000000000E+00 -0.13878544360E+04  0.13878544360E+04  0.00000000000E+00 0. -1.
         25    2    1    2    0    0 -0.54588126777E+02  0.11924145318E+03  0.15030590482E+03  0.23540562434E+03  0.12500222080E+03 0.  0.
          2    1    1    2  501    0  0.10261866261E+03 -0.45882362430E+02 -0.13409607408E+04  0.13456639586E+04  0.00000000000E+00 0. -1.
          1    1    1    2  502    0 -0.48030535833E+02 -0.73359090751E+02  0.96281880611E+03  0.96680325918E+03  0.00000000000E+00 0. -1.
         22    1    3    3    0    0 -0.12776724131E+02 -0.25813797545E+02  0.14050972276E+02  0.32047256436E+02  0.00000000000E+00 0. -1.
         22    1    3    3    0    0 -0.41811402646E+02  0.14505525073E+03  0.13625493254E+03  0.20335836791E+03  0.00000000000E+00 0. -1.
</event>
<event>
 7    1  0.6358809E-006  0.2232613E+03  0.7818608E-02  0.1303834E+00
          2   -1    0    0  502    0  0.00000000000E+00  0.00000000000E+00  0.37460962158E+03  0.37460962158E+03  0.00000000000E+00 0. -1.
          1   -1    0    0  501    0 -0.00000000000E+00 -0.00000000000E+00 -0.24352316018E+03  0.24352316018E+03  0.00000000000E+00 0. -1.
         25    2    1    2    0    0 -0.11206056820E+03  0.20799283787E+03 -0.94951343341E+01  0.26745907636E+03  0.12500243358E+03 0.  0.
          2    1    1    2  501    0  0.12303992518E+03 -0.17375514367E+03  0.77357175423E+01  0.21304815058E+03  0.00000000000E+00 0. -1.
          1    1    1    2  502    0 -0.10979356980E+02 -0.34237694206E+02  0.13284587820E+03  0.13762555482E+03  0.00000000000E+00 0. -1.
         22    1    3    3    0    0 -0.75620551103E+02  0.74843985139E+02 -0.57953414252E+02  0.12115563579E+03  0.00000000000E+00 0. -1.
         22    1    3    3    0    0 -0.36440017097E+02  0.13314885273E+03  0.48458279918E+02  0.14630344057E+03  0.00000000000E+00 0. -1.
</event>
<event>
 7    1  0.6358809E-006  0.7756068E+02  0.7818608E-02  0.1384534E+00
          2   -1    0    0  502    0  0.00000000000E+00  0.00000000000E+00  0.86057991841E+03  0.86057991841E+03  0.00000000000E+00 0. -1.
          1   -1    0    0  501    0 -0.00000000000E+00 -0.00000000000E+00 -0.31364158955E+03  0.31364158955E+03  0.00000000000E+00 0. -1.
         25    2    1    2    0    0  0.40366002643E+02  0.47964923235E+02  0.60447601338E+03  0.62043924422E+03  0.12499422781E+03 0.  0.
          2    1    1    2  501    0  0.17910217819E+01 -0.77788470582E+02 -0.29792130367E+03  0.30791452888E+03  0.00000000000E+00 0. -1.
          1    1    1    2  502    0 -0.42157024425E+02  0.29823547347E+02  0.24038361916E+03  0.24586773486E+03  0.00000000000E+00 0. -1.
         22    1    3    3    0    0  0.83822848987E+02  0.45724819639E+02  0.38243605090E+03  0.39417554741E+03  0.00000000000E+00 0.  1.
         22    1    3    3    0    0 -0.43456846344E+02  0.22401035951E+01  0.22203996248E+03  0.22626369681E+03  0.00000000000E+00 0.  1.
</event>
<event>
 7    1  0.6358809E-006  0.1170959E+03  0.7818608E-02  0.1268545E+00
          2   -1    0    0  502    0  0.00000000000E+00  0.00000000000E+00  0.41303242333E+03  0.41303242333E+03  0.00000000000E+00 0. -1.
          1   -1    0    0  501    0 -0.00000000000E+00 -0.00000000000E+00 -0.19399716668E+03  0.19399716668E+03  0.00000000000E+00 0. -1.
         25    2    1    2    0    0 -0.12655070160E+02 -0.81045083503E+01  0.22389698651E+02  0.12787723943E+03  0.12500182359E+03 0.  0.
          2    1    1    2  501    0  0.12578637240E+03  0.38316543640E+02 -0.96751216147E+02  0.16325185090E+03  0.00000000000E+00 0. -1.
          1    1    1    2  502    0 -0.11313130224E+03 -0.30212035289E+02  0.29339677415E+03  0.31590049968E+03  0.00000000000E+00 0. -1.
         22    1    3    3    0    0 -0.45575185838E+02  0.53125409419E+01  0.60388180995E+02  0.75842290704E+02  0.00000000000E+00 0. -1.
         22    1    3    3    0    0  0.32920115678E+02 -0.13417049292E+02 -0.37998482344E+02  0.52034948721E+02  0.00000000000E+00 0. -1.
</event>
<event>
 7    1  0.6358809E-006  0.4583267E+02  0.7818608E-02  0.1506453E+00
          2   -1    0    0  502    0  0.00000000000E+00  0.00000000000E+00  0.19429987652E+02  0.19429987652E+02  0.00000000000E+00 0. -1.
          1   -1    0    0  501    0 -0.00000000000E+00 -0.00000000000E+00 -0.23006107757E+04  0.23006107757E+04  0.00000000000E+00 0. -1.
         25    2    1    2    0    0 -0.31255824749E+02  0.23714922954E+02 -0.19159490968E+04  0.19204225589E+04  0.12499015646E+03 0.  0.
          2    1    1    2  501    0  0.57489862600E+02 -0.51553929408E-01 -0.35920720086E+03  0.36377864164E+03  0.00000000000E+00 0. -1.
          1    1    1    2  502    0 -0.26234037851E+02 -0.23663369025E+02 -0.60244903890E+01  0.35839562777E+02  0.00000000000E+00 0. -1.
         22    1    3    3    0    0 -0.12063176979E+01  0.22558974322E+00 -0.17555754130E+04  0.17555758419E+04  0.00000000000E+00 0. -1.
         22    1    3    3    0    0 -0.30049507051E+02  0.23489333211E+02 -0.16037368378E+03  0.16484671698E+03  0.00000000000E+00 0. -1.
</event>
<event>
 7    1  0.6358809E-006  0.8806316E+02  0.7818608E-02  0.1408008E+00
          2   -1    0    0  502    0  0.00000000000E+00  0.00000000000E+00  0.66799385993E+03  0.66799385993E+03  0.00000000000E+00 0. -1.
          1   -1    0    0  501    0 -0.00000000000E+00 -0.00000000000E+00 -0.61834881798E+02  0.61834881798E+02  0.00000000000E+00 0. -1.
         25    2    1    2    0    0  0.94333157951E+02  0.67909981627E+02  0.21323242185E+03  0.27313778274E+03  0.12500268934E+03 0.  0.
          2    1    1    2  501    0 -0.17389983238E+02 -0.33481210786E+02 -0.14662127047E+02  0.40476918883E+02  0.00000000000E+00 0. -1.
          1    1    1    2  502    0 -0.76943174713E+02 -0.34428770842E+02  0.40758868334E+03  0.41621404010E+03  0.00000000000E+00 0. -1.
         22    1    3    3    0    0  0.67790044508E+02  0.91594259282E+02  0.90984046453E+02  0.14581870654E+03  0.00000000000E+00 0.  1.
         22    1    3    3    0    0  0.26543113442E+02 -0.23684277654E+02  0.12224837539E+03  0.12731907620E+03  0.00000000000E+00 0.  1.
</event>
<event>
 7    1  0.6358809E-006  0.3493046E+02  0.7818608E-02  0.1630061E+00
          2   -1    0    0  502    0  0.00000000000E+00  0.00000000000E+00  0.11082353139E+04  0.11082353139E+04  0.00000000000E+00 0. -1.
          1   -1    0    0  501    0 -0.00000000000E+00 -0.00000000000E+00 -0.10314059603E+04  0.10314059603E+04  0.00000000000E+00 0. -1.
         25    2    1    2    0    0 -0.13831022095E+02  0.53798697996E+02 -0.27711986528E+03  0.30903991527E+03  0.12499860968E+03 0.  0.
          2    1    1    2  501    0  0.10713241350E+01 -0.21302785466E+02 -0.73789296485E+03  0.73820118124E+03  0.00000000000E+00 0. -1.
          1    1    1    2  502    0  0.12759697960E+02 -0.32495912530E+02  0.10918421836E+04  0.10924001777E+04  0.00000000000E+00 0. -1.
         22    1    3    3    0    0  0.46599534245E+02  0.35585629233E+02 -0.20491437684E+03  0.21313787894E+03  0.00000000000E+00 0. -1.
         22    1    3    3    0    0 -0.60430556341E+02  0.18213068763E+02 -0.72205488432E+02  0.95902036335E+02  0.00000000000E+00 0. -1.
</event>
<event>
 7    1  0.6358809E-006  0.7349880E+02  0.7818608E-02  0.1403275E+00
          2   -1    0    0  502    0  0.00000000000E+00  0.00000000000E+00  0.97147864373E+03  0.97147864373E+03  0.00000000000E+00 0. -1.
          1   -1    0    0  501    0 -0.00000000000E+00 -0.00000000000E+00 -0.12391026072E+03  0.12391026072E+03  0.00000000000E+00 0. -1.
         25    2    1    2    0    0 -0.62514090077E+02  0.89209098886E+02  0.31889406852E+03  0.35942386308E+03  0.12500324648E+03 0.  0.
          2    1    1    2  501    0  0.58621105337E+02 -0.42455083777E+02 -0.90011472768E+02  0.11550295823E+03  0.00000000000E+00 0. -1.
          1    1    1    2  502    0  0.38929847396E+01 -0.46754015109E+02  0.61868578726E+03  0.62046208314E+03  0.00000000000E+00 0. -1.
         22    1    3    3    0    0 -0.51151863216E+02  0.10916845035E+03  0.16793614314E+03  0.20672883649E+03  0.00000000000E+00 0. -1.
         22    1    3    3    0    0 -0.11362226861E+02 -0.19959351466E+02  0.15095792538E+03  0.15269502659E+03  0.00000000000E+00 0. -1.
</event>
<event>
 7    1  0.6358809E-006  0.2545366E+03  0.7818608E-02  0.1319393E+00
          2   -1    0    0  502    0  0.00000000000E+00  0.00000000000E+00  0.12579956142E+04  0.12579956142E+04  0.00000000000E+00 0. -1.
          1   -1    0    0  501    0 -0.00000000000E+00 -0.00000000000E+00 -0.12646240474E+04  0.12646240474E+04  0.00000000000E+00 0. -1.
         25    2    1    2    0    0 -0.75882891079E+02  0.26589138550E+03  0.91647812452E+02  0.31698720555E+03  0.12500049965E+03 0.  0.
          2    1    1    2  501    0 -0.36418173134E+01 -0.27151033011E+02 -0.11367631496E+04  0.11370931799E+04  0.00000000000E+00 0. -1.
          1    1    1    2  502    0  0.79524708392E+02 -0.23874035249E+03  0.10384869039E+04  0.10685392762E+04  0.00000000000E+00 0. -1.
         22    1    3    3    0    0 -0.72423777274E+02  0.21580769704E+03  0.12205499879E+03  0.25829360880E+03  0.00000000000E+00 0.  1.
         22    1    3    3    0    0 -0.34591138045E+01  0.50083688464E+02 -0.30407186340E+02  0.58693596751E+02  0.00000000000E+00 0.  1.
</event>
<event>
 7    1  0.6358809E-006  0.1832309E+03  0.7818608E-02  0.1256047E+00
          2   -1    0    0  502    0  0.00000000000E+00  0.00000000000E+00  0.14513026656E+04  0.14513026656E+04  0.00000000000E+00 0. -1.
          1   -1    0    0  501    0 -0.00000000000E+00 -0.00000000000E+00 -0.10511821025E+04  0.10511821025E+04  0.00000000000E+00 0. -1.
         25    2    1    2    0    0 -0.13762667011E+02  0.23470991921E+03  0.95114763714E+03  0.98771702484E+03  0.12499974534E+03 0.  0.
          2    1    1    2  501    0 -0.29030440679E+02 -0.18052352681E+03 -0.10222702310E+04  0.10384931080E+04  0.00000000000E+00 0. -1.
          1    1    1    2  502    0  0.42793107691E+02 -0.54186392398E+02  0.47124315699E+03  0.47627463527E+03  0.00000000000E+00 0. -1.
         22    1    3    3    0    0  0.27527572755E+02  0.42537960623E+02  0.38711165525E+03  0.39041347183E+03  0.00000000000E+00 0. -1.
         22    1    3    3    0    0 -0.41290239766E+02  0.19217195859E+03  0.56403598189E+03  0.59730355301E+03  0.00000000000E+00 0. -1.
</event>
<event>
 7    1  0.6358809E-006  0.5214840E+02  0.7818608E-02  0.1442653E+00
          2   -1    0    0  502    0  0.00000000000E+00  0.00000000000E+00  0.35646906961E+04  0.35646906961E+04  0.00000000000E+00 0. -1.
          1   -1    0    0  501    0 -0.00000000000E+00 -0.00000000000E+00 -0.88361570267E+02  0.88361570267E+02  0.00000000000E+00 0. -1.
         25    2    1    2    0    0  0.22465319148E+01 -0.56863813779E+01  0.71092819276E+03  0.72185957139E+03  0.12499985483E+03 0.  0.
          2    1    1    2  501    0 -0.57679363475E+01 -0.48566156202E+02 -0.75399395602E+02  0.89872184101E+02  0.00000000000E+00 0. -1.
          1    1    1    2  502    0  0.35214044327E+01  0.54252537579E+02  0.28408003287E+04  0.28413205109E+04  0.00000000000E+00 0. -1.
         22    1    3    3    0    0 -0.10840808187E+02  0.39800140735E+02  0.88576966158E+02  0.97711070296E+02  0.00000000000E+00 0. -1.
         22    1    3    3    0    0  0.13087340101E+02 -0.45486522112E+02  0.62235122660E+03  0.62414850110E+03  0.00000000000E+00 0. -1.
</event>
<event>
 7    1  0.6358809E-006  0.1035371E+03  0.7818608E-02  0.1394767E+00
          2   -1    0    0  502    0  0.00000000000E+00  0.00000000000E+00  0.24049920189E+04  0.24049920189E+04  0.00000000000E+00 0. -1.
          1   -1    0    0  501    0 -0.00000000000E+00 -0.00000000000E+00 -0.34212743581E+03  0.34212743581E+03  0.00000000000E+00 0. -1.
         25    2    1    2    0    0 -0.68307938679E+02  0.53465778043E+02  0.10325432182E+04  0.10436960532E+04  0.12502555740E+03 0.  0.
          2    1    1    2  501    0  0.98032196125E+02 -0.33821972471E+02 -0.32832336696E+03  0.34431158939E+03  0.00000000000E+00 0. -1.
          1    1    1    2  502    0 -0.29724257445E+02 -0.19643805572E+02  0.13586447318E+04  0.13591118121E+04  0.00000000000E+00 0. -1.
         22    1    3    3    0    0 -0.92201146170E+02  0.60276757999E+02  0.97245288019E+03  0.97867203041E+03  0.00000000000E+00 0.  1.
         22    1    3    3    0    0  0.23893207490E+02 -0.68109799558E+01  0.60090338055E+02  0.65024022789E+02  0.00000000000E+00 0.  1.
</event>
<event>
 7    1  0.6358809E-006  0.1360537E+03  0.7818608E-02  0.1311646E+00
          2   -1    0    0  502    0  0.00000000000E+00  0.00000000000E+00  0.13066352488E+03  0.13066352488E+03  0.00000000000E+00 0. -1.
          1   -1    0    0  501    0 -0.00000000000E+00 -0.00000000000E+00 -0.70694952658E+03  0.70694952658E+03  0.00000000000E+00 0. -1.
         25    2    1    2    0    0 -0.96274255454E+02  0.11970156486E+03 -0.26530256499E+03  0.33106926623E+03  0.12499684458E+03 0.  0.
          2    1    1    2  501    0  0.11396492782E+03 -0.67677152218E+02 -0.38908880055E+03  0.41104537027E+03  0.00000000000E+00 0. -1.
          1    1    1    2  502    0 -0.17690672368E+02 -0.52024412646E+02  0.78105363844E+02  0.95498414967E+02  0.00000000000E+00 0. -1.
         22    1    3    3    0    0  0.21978487520E+02  0.33573141088E+02 -0.11288144567E+03  0.11980162976E+03  0.00000000000E+00 0.  1.
         22    1    3    3    0    0 -0.11825274297E+03  0.86128423775E+02 -0.15242111932E+03  0.21126763647E+03  0.00000000000E+00 0.  1.
</event>
<event>
 7    1  0.6358809E-006  0.6114998E+02  0.7818608E-02  0.1397289E+00
          2   -1    0    0  502    0  0.00000000000E+00  0.00000000000E+00  0.14835820817E+04  0.14835820817E+04  0.00000000000E+00 0. -1.
          1   -1    0    0  501    0 -0.00000000000E+00 -0.00000000000E+00 -0.14836341033E+03  0.14836341033E+03  0.00000000000E+00 0. -1.
         25    2    1    2    0    0 -0.35054841700E+02  0.90930494935E+00  0.14142596874E+03  0.19197966331E+03  0.12500087092E+03 0.  0.
          2    1    1    2  501    0  0.13073637809E+02  0.57662678115E+02 -0.11519563497E+03  0.12948335325E+03  0.00000000000E+00 0. -1.
          1    1    1    2  502    0  0.21981203891E+02 -0.58571983065E+02  0.13089883376E+04  0.13104824754E+04  0.00000000000E+00 0. -1.
         22    1    3    3    0    0 -0.49084245114E+02  0.50963215295E+02  0.49428639296E+02  0.86311660940E+02  0.00000000000E+00 0.  1.
         22    1    3    3    0    0  0.14029403414E+02 -0.50053910346E+02  0.91997329441E+02  0.10566800237E+03  0.00000000000E+00 0.  1.
</event>
<event>
 7    1  0.6358809E-006  0.5003762E+02  0.7818608E-02  0.1486364E+00
          2   -1    0    0  502    0  0.00000000000E+00  0.00000000000E+00  0.19987752063E+04  0.19987752063E+04  0.00000000000E+00 0. -1.
          1   -1    0    0  501    0 -0.00000000000E+00 -0.00000000000E+00 -0.13714914682E+03  0.13714914682E+03  0.00000000000E+00 0. -1.
         25    2    1    2    0    0  0.46652073277E+02 -0.52636130199E+02  0.31470437057E+03  0.34584696388E+03  0.12499721366E+03 0.  0.
          2    1    1    2  501    0 -0.47410199414E+02  0.15467715488E+02 -0.11624741757E+03  0.12649284297E+03  0.00000000000E+00 0. -1.
          1    1    1    2  502    0  0.75812613717E+00  0.37168414711E+02  0.16631691065E+04  0.16635845463E+04  0.00000000000E+00 0. -1.
         22    1    3    3    0    0  0.52249424292E+02  0.25164790081E+02  0.82136395540E+02  0.10054678747E+03  0.00000000000E+00 0. -1.
         22    1    3    3    0    0 -0.55973510146E+01 -0.77800920281E+02  0.23256797503E+03  0.24530017640E+03  0.00000000000E+00 0. -1.
</event>
<event>
 7    1  0.6358809E-006  0.1165820E+03  0.7818608E-02  0.1346056E+00
          2   -1    0    0  502    0  0.00000000000E+00  0.00000000000E+00  0.18040238858E+04  0.18040238858E+04  0.00000000000E+00 0. -1.
          1   -1    0    0  501    0 -0.00000000000E+00 -0.00000000000E+00 -0.32368712869E+03  0.32368712869E+03  0.00000000000E+00 0. -1.
         25    2    1    2    0    0  0.16279188149E+03 -0.21618853028E+01  0.59221401941E+03  0.62677628109E+03  0.12500076527E+03 0.  0.
          2    1    1    2  501    0 -0.11559741679E+03  0.60146431676E+01 -0.29498313614E+03  0.31688166452E+03  0.00000000000E+00 0. -1.
          1    1    1    2  502    0 -0.47194464705E+02 -0.38527578648E+01  0.11831058738E+04  0.11840530689E+04  0.00000000000E+00 0. -1.
         22    1    3    3    0    0  0.11652959616E+03  0.19285396952E+02  0.54373898159E+03  0.55641994340E+03  0.00000000000E+00 0. -1.
         22    1    3    3    0    0  0.46262285337E+02 -0.21447282255E+02  0.48475037827E+02  0.70356337690E+02  0.00000000000E+00 0. -1.
</event>
<event>
 7    1  0.6358809E-006  0.8817609E+02  0.7818608E-02  0.1388140E+00
          2   -1    0    0  502    0  0.00000000000E+00  0.00000000000E+00  0.12868639245E+03  0.12868639245E+03  0.00000000000E+00 0. -1.
          1   -1    0    0  501    0 -0.00000000000E+00 -0.00000000000E+00 -0.51090836618E+03  0.51090836618E+03  0.00000000000E+00 0. -1.
         25    2    1    2    0    0  0.45579789947E+02  0.56734371556E+02 -0.34213173742E+03  0.37144977291E+03  0.12499800747E+03 0.  0.
          2    1    1    2  501    0 -0.88095189908E+02 -0.68520484601E+02 -0.12797726428E+03  0.16980576983E+03  0.00000000000E+00 0. -1.
          1    1    1    2  502    0  0.42515399961E+02  0.11786113045E+02  0.87887027978E+02  0.98339215887E+02  0.00000000000E+00 0. -1.
         22    1    3    3    0    0 -0.37537008188E+02 -0.75101888996E+01 -0.11491804898E+03  0.12112633035E+03  0.00000000000E+00 0. -1.
         22    1    3    3    0    0  0.83116798135E+02  0.64244560456E+02 -0.22721368844E+03  0.25032344256E+03  0.00000000000E+00 0. -1.
</event>
<event>
 7    1  0.6358809E-006  0.6020703E+02  0.7818608E-02  0.1432427E+00
          2   -1    0    0  502    0  0.00000000000E+00  0.00000000000E+00  0.11932236831E+04  0.11932236831E+04  0.00000000000E+00 0. -1.
          1   -1    0    0  501    0 -0.00000000000E+00 -0.00000000000E+00 -0.13251242602E+03  0.13251242602E+03  0.00000000000E+00 0. -1.
         25    2    1    2    0    0  0.44820421790E+02  0.95250780664E+01  0.26566228629E+03  0.29715555795E+03  0.12500151178E+03 0.  0.
          2    1    1    2  501    0  0.59425295220E+01 -0.45349770966E+02 -0.11118206406E+03  0.12022215583E+03  0.00000000000E+00 0. -1.
          1    1    1    2  502    0 -0.50762951312E+02  0.35824692900E+02  0.90623103481E+03  0.90835839530E+03  0.00000000000E+00 0. -1.
         22    1    3    3    0    0 -0.64442992865E+01 -0.52331977151E+02  0.10062337580E+03  0.11360118213E+03  0.00000000000E+00 0. -1.
         22    1    3    3    0    0  0.51264721076E+02  0.61857055218E+02  0.16503891049E+03  0.18355437582E+03  0.00000000000E+00 0. -1.
</event>
<event>
 7    1  0.6358809E-006  0.1249802E+03  0.7818608E-02  0.1312643E+00
          2   -1    0    0  502    0  0.00000000000E+00  0.00000000000E+00  0.36336831848E+03  0.36336831848E+03  0.00000000000E+00 0. -1.
          1   -1    0    0  501    0 -0.00000000000E+00 -0.00000000000E+00 -0.20414590026E+04  0.20414590026E+04  0.00000000000E+00 0. -1.
         25    2    1    2    0    0 -0.25118395902E+02  0.62231472093E+02 -0.47912631268E+03  0.49969111081E+03  0.12500197114E+03 0.  0.
          2    1    1    2  501    0 -0.18417762861E+02  0.56348065367E+02 -0.15401638906E+04  0.15413043594E+04  0.00000000000E+00 0. -1.
          1    1    1    2  502    0  0.43536158763E+02 -0.11857953746E+03  0.34119951916E+03  0.36383185085E+03  0.00000000000E+00 0. -1.
         22    1    3    3    0    0 -0.69029726151E+01  0.98142151024E+02 -0.38379573540E+03  0.39620537522E+03  0.00000000000E+00 0. -1.
         22    1    3    3    0    0 -0.18215423287E+02 -0.35910678932E+02 -0.95330577284E+02  0.10348573560E+03  0.00000000000E+00 0. -1.
</event>
<event>
 7    1  0.6358809E-006  0.9054051E+02  0.7818608E-02  0.1344025E+00
          2   -1    0    0  502    0  0.00000000000E+00  0.00000000000E+00  0.84588092242E+02  0.84588092242E+02  0.00000000000E+00 0. -1.
          1   -1    0    0  501    0 -0.00000000000E+00 -0.00000000000E+00 -0.11802985364E+04  0.11802985364E+04  0.00000000000E+00 0. -1.
         25    2    1    2    0    0 -0.55903250823E+02  0.10630602119E+03 -0.19722878281E+03  0.26258192523E+03  0.12499572430E+03 0.  0.
          2    1    1    2  501    0  0.75905731643E+02 -0.47574320409E+02 -0.92889668570E+03  0.93320632701E+03  0.00000000000E+00 0. -1.
          1    1    1    2  502    0 -0.20002480821E+02 -0.58731700781E+02  0.30415024356E+02  0.69098376408E+02  0.00000000000E+00 0. -1.
         22    1    3    3    0    0 -0.82141271298E+02  0.22833674351E+02 -0.10820809047E+03  0.13775905044E+03  0.00000000000E+00 0. -1.
         22    1    3    3    0    0  0.26238020475E+02  0.83472346839E+02 -0.89020692339E+02  0.12482287479E+03  0.00000000000E+00 0. -1.
</event>
<event>
 7    1  0.6358809E-006  0.8722799E+02  0.7818608E-02  0.1359316E+00
          2   -1    0    0  502    0  0.00000000000E+00  0.00000000000E+00  0.42074743155E+04  0.42074743155E+04  0.00000000000E+00 0. -1.
          1   -1    0    0  501    0 -0.00000000000E+00 -0.00000000000E+00 -0.89712724824E+02  0.89712724824E+02  0.00000000000E+00 0. -1.
         25    2    1    2    0    0 -0.28562628179E+02  0.25129162496E+02  0.60813868531E+03  0.62201601010E+03  0.12499583075E+03 0.  0.
          2    1    1    2  501    0 -0.18239336879E+02  0.53520072724E+02 -0.72464886476E+02  0.91914260951E+02  0.00000000000E+00 0. -1.
          1    1    1    2  502    0  0.46801965058E+02 -0.78649235219E+02  0.35820877918E+04  0.35832567693E+04  0.00000000000E+00 0. -1.
         22    1    3    3    0    0 -0.32554748832E+02  0.74389189111E+02  0.37105196634E+03  0.37983302233E+03  0.00000000000E+00 0. -1.
         22    1    3    3    0    0  0.39921206529E+01 -0.49260026615E+02  0.23708671897E+03  0.24218298777E+03  0.00000000000E+00 0. -1.
</event>
<event>
 7    1  0.6358809E-006  0.6551392E+02  0.7818608E-02  0.1393142E+00
          2   -1    0    0  502    0  0.00000000000E+00  0.00000000000E+00  0.67539147814E+03  0.67539147814E+03  0.00000000000E+00 0. -1.
          1   -1    0    0  501    0 -0.00000000000E+00 -0.00000000000E+00 -0.62407267672E+02  0.62407267672E+02  0.00000000000E+00 0. -1.
         25    2    1    2    0    0 -0.26010131226E+00 -0.69411566673E+02  0.87743585000E+02  0.16775490667E+03  0.12499895505E+03 0.  0.
          2    1    1    2  501    0 -0.50560352845E+02  0.26410928340E+02  0.20016813460E+02  0.60452950603E+02  0.00000000000E+00 0. -1.
          1    1    1    2  502    0  0.50820454157E+02  0.43000638334E+02  0.50522381201E+03  0.50959088853E+03  0.00000000000E+00 0. -1.
         22    1    3    3    0    0 -0.45534605148E+02 -0.14341954631E+02  0.83689527555E+02  0.96348476641E+02  0.00000000000E+00 0. -1.
         22    1    3    3    0    0  0.45274503836E+02 -0.55069612043E+02  0.40540574445E+01  0.71406430032E+02  0.00000000000E+00 0. -1.
</event>
<event>
 7    1  0.6358809E-006  0.6202412E+02  0.7818608E-02  0.1472704E+00
          2   -1    0    0  502    0  0.00000000000E+00  0.00000000000E+00  0.29440996388E+04  0.29440996388E+04  0.00000000000E+00 0. -1.
          1   -1    0    0  501    0 -0.00000000000E+00 -0.00000000000E+00 -0.77089732193E+03  0.77089732193E+03  0.00000000000E+00 0. -1.
         25    2    1    2    0    0 -0.48299490804E+02 -0.80496472849E+02  0.30359826634E+03  0.34148285286E+03  0.12500443401E+03 0.  0.
          2    1    1    2  501    0  0.21077583288E+02  0.25433158986E+02 -0.75123224236E+03  0.75195810525E+03  0.00000000000E+00 0. -1.
          1    1    1    2  502    0  0.27221907516E+02  0.55063313863E+02  0.26208362929E+04  0.26215560026E+04  0.00000000000E+00 0. -1.
         22    1    3    3    0    0  0.30896719199E+02 -0.69776078305E+02  0.15438713085E+03  0.17221699838E+03  0.00000000000E+00 0.  1.
         22    1    3    3    0    0 -0.79196210003E+02 -0.10720394544E+02  0.14921113549E+03  0.16926585448E+03  0.00000000000E+00 0.  1.
</event>
<event>
 7    1  0.6358809E-006  0.1070992E+03  0.7818608E-02  0.1461185E+00
          2   -1    0    0  502    0  0.00000000000E+00  0.00000000000E+00  0.44172631895E+03  0.44172631895E+03  0.00000000000E+00 0. -1.
          1   -1    0    0  501    0 -0.00000000000E+00 -0.00000000000E+00 -0.14027948515E+04  0.14027948515E+04  0.00000000000E+00 0. -1.
         25    2    1    2    0    0  0.11961765373E+03 -0.21882907666E+02  0.10435969621E+03  0.20323721864E+03  0.12500870415E+03 0.  0.
          2    1    1    2  501    0 -0.10676969363E+03  0.55477670794E+01 -0.13508661979E+04  0.13550904139E+04  0.00000000000E+00 0. -1.
          1    1    1    2  502    0 -0.12847960102E+02  0.16335140586E+02  0.28543796916E+03  0.28619353790E+03  0.00000000000E+00 0. -1.
         22    1    3    3    0    0  0.24710215509E+02 -0.59938751816E+02  0.69890896066E+02  0.95330929255E+02  0.00000000000E+00 0. -1.
         22    1    3    3    0    0  0.94907438226E+02  0.38055844150E+02  0.34468800147E+02  0.10790628938E+03  0.00000000000E+00 0. -1.
</event>
<event>
 7    1  0.6358809E-006  0.7678111E+02  0.7818608E-02  0.1410982E+00
          2   -1    0    0  502    0  0.00000000000E+00  0.00000000000E+00  0.11790029159E+04  0.11790029159E+04  0.00000000000E+00 0. -1.
          1   -1    0    0  501    0 -0.00000000000E+00 -0.00000000000E+00 -0.15295182976E+04  0.15295182976E+04  0.00000000000E+00 0. -1.
         25    2    1    2    0    0  0.10402323779E+03  0.31563653994E+02  0.71106793881E+03  0.73010930297E+03  0.12499952970E+03 0.  0.
          2    1    1    2  501    0 -0.42223374197E+02 -0.21592396229E+01 -0.15171471131E+04  0.15177360898E+04  0.00000000000E+00 0. -1.
          1    1    1    2  502    0 -0.61799863593E+02 -0.29404414371E+02  0.45556379257E+03  0.46067582075E+03  0.00000000000E+00 0. -1.
         22    1    3    3    0    0  0.72519680541E+02 -0.43129407799E+02  0.38124551666E+03  0.39047073368E+03  0.00000000000E+00 0.  1.
         22    1    3    3    0    0  0.31503557249E+02  0.74693061794E+02  0.32982242215E+03  0.33963856929E+03  0.00000000000E+00 0.  1.
</event>
<event>
 7    1  0.7065000E-006  0.1413005E+03  0.7818608E-02  0.1242215E+00
          2   -1    0    0  502    0  0.00000000000E+00  0.00000000000E+00  0.10324912559E+04  0.10324912559E+04  0.00000000000E+00 0. -1.
          1   -1    0    0  501    0 -0.00000000000E+00 -0.00000000000E+00 -0.13391100253E+04  0.13391100253E+04  0.00000000000E+00 0. -1.
         25    2    1    2    0    0 -0.44068400539E+02 -0.17050327711E+02 -0.79680111247E+02  0.15559078224E+03  0.12500733494E+03 0.  0.
          2    1    1    2  501    0 -0.10163605285E+03  0.15577678343E+02 -0.12139523294E+04  0.12182991461E+04  0.00000000000E+00 0. -1.
          1    1    1    2  502    0  0.14570445339E+03  0.14726493677E+01  0.98701367127E+03  0.99771135290E+03  0.00000000000E+00 0. -1.
         22    1    3    3    0    0  0.31226759436E+02  0.31106880232E+02 -0.22505937719E+02  0.49490056933E+02  0.00000000000E+00 0. -1.
         22    1    3    3    0    0 -0.75295159975E+02 -0.48157207943E+02 -0.57174173528E+02  0.10610072531E+03  0.00000000000E+00 0. -1.
</event>
<event>
 7    1  0.6358809E-006  0.3500165E+02  0.7818608E-02  0.1634977E+00
          2   -1    0    0  502    0  0.00000000000E+00  0.00000000000E+00  0.27057160865E+04  0.27057160865E+04  0.00000000000E+00 0. -1.
          1   -1    0    0  501    0 -0.00000000000E+00 -0.00000000000E+00 -0.36634926982E+01  0.36634926982E+01  0.00000000000E+00 0. -1.
         25    2    1    2    0    0  0.75251753820E+01 -0.14477652897E+02  0.13632809719E+04  0.13690977684E+04  0.12500984148E+03 0.  0.
          2    1    1    2  501    0  0.99856206937E+01 -0.18121653257E+02  0.24096257156E+03  0.24184926676E+03  0.00000000000E+00 0. -1.
          1    1    1    2  502    0 -0.17510796076E+02  0.32599306155E+02  0.10978090503E+04  0.10984325440E+04  0.00000000000E+00 0. -1.
         22    1    3    3    0    0  0.57913801109E+02  0.21369789388E+02  0.54540129895E+03  0.54888364264E+03  0.00000000000E+00 0.  1.
         22    1    3    3    0    0 -0.50388625727E+02 -0.35847442285E+02  0.81787967290E+03  0.82021412574E+03  0.00000000000E+00 0.  1.
</event>
<event>
 7    1  0.6358809E-006  0.2816046E+03  0.7818608E-02  0.1185505E+00
          2   -1    0    0  502    0  0.00000000000E+00  0.00000000000E+00  0.55254539646E+03  0.55254539646E+03  0.00000000000E+00 0. -1.
          1   -1    0    0  501    0 -0.00000000000E+00 -0.00000000000E+00 -0.46236388946E+03  0.46236388946E+03  0.00000000000E+00 0. -1.
         25    2    1    2    0    0 -0.16850542821E+03  0.28599792538E+03  0.85842300594E+02  0.36494233571E+03  0.12500046066E+03 0.  0.
          2    1    1    2  501    0 -0.12081687712E+02 -0.93408756774E+02 -0.25989804660E+03  0.27643834330E+03  0.00000000000E+00 0. -1.
          1    1    1    2  502    0  0.18058711592E+03 -0.19258916861E+03  0.26423725301E+03  0.37352860691E+03  0.00000000000E+00 0. -1.
         22    1    3    3    0    0 -0.86760218730E+02  0.58829534884E+02 -0.97511708582E+01  0.10527741952E+03  0.00000000000E+00 0.  1.
         22    1    3    3    0    0 -0.81745209475E+02  0.22716839050E+03  0.95593471452E+02  0.25966491618E+03  0.00000000000E+00 0.  1.
</event>
<event>
 7    1  0.6358809E-006  0.4010812E+02  0.7818608E-02  0.1557119E+00
          2   -1    0    0  502    0  0.00000000000E+00  0.00000000000E+00  0.26477654854E+03  0.26477654854E+03  0.00000000000E+00 0. -1.
          1   -1    0    0  501    0 -0.00000000000E+00 -0.00000000000E+00 -0.93847721888E+02  0.93847721888E+02  0.00000000000E+00 0. -1.
         25    2    1    2    0    0 -0.12440470991E+02  0.85123417301E+00  0.13367169282E+03  0.18343271527E+03  0.12499579854E+03 0.  0.
          2    1    1    2  501    0  0.41117455012E+02  0.29075870045E+01 -0.60521358990E+02  0.73225228322E+02  0.00000000000E+00 0. -1.
          1    1    1    2  502    0 -0.28676984021E+02 -0.37588211775E+01  0.97778492817E+02  0.10196632683E+03  0.00000000000E+00 0. -1.
         22    1    3    3    0    0 -0.66278548235E+02  0.78561068220E+01  0.97642867044E+02  0.11827380883E+03  0.00000000000E+00 0. -1.
         22    1    3    3    0    0  0.53838077244E+02 -0.70048726490E+01  0.36028825778E+02  0.65158906445E+02  0.00000000000E+00 0. -1.
</event>
<event>
 7    1  0.6358809E-006  0.8979842E+02  0.7818608E-02  0.1361176E+00
          2   -1    0    0  502    0  0.00000000000E+00  0.00000000000E+00  0.15447728658E+04  0.15447728658E+04  0.00000000000E+00 0. -1.
          1   -1    0    0  501    0 -0.00000000000E+00 -0.00000000000E+00 -0.41439618273E+03  0.41439618273E+03  0.00000000000E+00 0. -1.
         25    2    1    2    0    0  0.57058995120E+02 -0.12304635890E+03  0.20559708395E+03  0.27620513583E+03  0.12499192280E+03 0.  0.
          2    1    1    2  501    0 -0.24551838516E+01  0.54017060943E+02 -0.37566883565E+03  0.37954043905E+03  0.00000000000E+00 0. -1.
          1    1    1    2  502    0 -0.54603811269E+02  0.69029297953E+02  0.13004484347E+04  0.13034234736E+04  0.00000000000E+00 0. -1.
         22    1    3    3    0    0  0.72243064961E+02 -0.13219010245E+03  0.13132946310E+03  0.19985172378E+03  0.00000000000E+00 0. -1.
         22    1    3    3    0    0 -0.15184069840E+02  0.91437435571E+01  0.74267620856E+02  0.76353412044E+02  0.00000000000E+00 0. -1.
</event>
<event>
 7    1  0.6358809E-006  0.1247494E+03  0.7818608E-02  0.1353960E+00
          2   -1    0    0  502    0  0.00000000000E+00  0.00000000000E+00  0.25466778888E+03  0.25466778888E+03  0.00000000000E+00 0. -1.
          1   -1    0    0  501    0 -0.00000000000E+00 -0.00000000000E+00 -0.19154534180E+04  0.19154534180E+04  0.00000000000E+00 0. -1.
         25    2    1    2    0    0 -0.10159430689E+03 -0.99481014114E+01 -0.87232231485E+03  0.88712600029E+03  0.12500380586E+03 0.  0.
          2    1    1    2  501    0 -0.20982543436E+02  0.35648964548E+02 -0.10194237996E+04  0.10202627107E+04  0.00000000000E+00 0. -1.
          1    1    1    2  502    0  0.12257685033E+03 -0.25700863137E+02  0.23096048530E+03  0.26273249584E+03  0.00000000000E+00 0. -1.
         22    1    3    3    0    0 -0.51179792733E+02 -0.19816110368E+02 -0.10861933121E+03  0.12169720016E+03  0.00000000000E+00 0.  1.
         22    1    3    3    0    0 -0.50414514160E+02  0.98680089566E+01 -0.76370298364E+03  0.76542880013E+03  0.00000000000E+00 0.  1.
</event>
<event>
 7    1  0.6358809E-006  0.1665129E+03  0.7818608E-02  0.1246687E+00
          2   -1    0    0  502    0  0.00000000000E+00  0.00000000000E+00  0.21812236703E+03  0.21812236703E+03  0.00000000000E+00 0. -1.
          1   -1    0    0  501    0 -0.00000000000E+00 -0.00000000000E+00 -0.11261684934E+04  0.11261684934E+04  0.00000000000E+00 0. -1.
         25    2    1    2    0    0  0.96253182499E+02 -0.76855451815E+02 -0.28018155137E+03  0.33060243750E+03  0.12499933737E+03 0.  0.
          2    1    1    2  501    0  0.73357582862E+02  0.39693744822E+02 -0.77902345321E+03  0.78347588923E+03  0.00000000000E+00 0. -1.
          1    1    1    2  502    0 -0.16961076536E+03  0.37161706993E+02  0.15115887823E+03  0.23021253368E+03  0.00000000000E+00 0. -1.
         22    1    3    3    0    0  0.29218025115E+02 -0.81818125616E+02 -0.23246592318E+03  0.24816990976E+03  0.00000000000E+00 0. -1.
         22    1    3    3    0    0  0.67035157385E+02  0.49626738015E+01 -0.47715628188E+02  0.82432527744E+02  0.00000000000E+00 0. -1.
</event>
<event>
 7    1  0.6358809E-006  0.1542639E+03  0.7818608E-02  0.1396968E+00
          2   -1    0    0  502    0  0.00000000000E+00  0.00000000000E+00  0.21590392761E+04  0.21590392761E+04  0.00000000000E+00 0. -1.
          1   -1    0    0  501    0 -0.00000000000E+00 -0.00000000000E+00 -0.97805844472E+02  0.97805844472E+02  0.00000000000E+00 0. -1.
         25    2    1    2    0    0  0.74668901306E+02  0.15085802822E+03  0.18047386259E+04  0.18168765098E+04  0.12500061936E+03 0.  0.
          2    1    1    2  501    0 -0.51979559317E+02 -0.14474881058E+03 -0.26444076826E+02  0.15605570144E+03  0.00000000000E+00 0. -1.
          1    1    1    2  502    0 -0.22689341989E+02 -0.61092176334E+01  0.28293888258E+03  0.28391290928E+03  0.00000000000E+00 0. -1.
         22    1    3    3    0    0 -0.29638167892E+02  0.89283396688E+01  0.18281825519E+03  0.18542020030E+03  0.00000000000E+00 0.  1.
         22    1    3    3    0    0  0.10430706920E+03  0.14192968855E+03  0.16219203707E+04  0.16314563095E+04  0.00000000000E+00 0.  1.
</event>
<event>
 7    1  0.6358809E-006  0.1407639E+03  0.7818608E-02  0.1306186E+00
          2   -1    0    0  502    0  0.00000000000E+00  0.00000000000E+00  0.30551940895E+04  0.30551940895E+04  0.00000000000E+00 0. -1.
          1   -1    0    0  501    0 -0.00000000000E+00 -0.00000000000E+00 -0.50899640675E+03  0.50899640675E+03  0.00000000000E+00 0. -1.
         25    2    1    2    0    0  0.11947624588E+03 -0.41602264215E+02  0.57629126181E+03  0.60311125501E+03  0.12500498298E+03 0.  0.
          2    1    1    2  501    0 -0.11801606129E+02 -0.54551521596E+02 -0.49189377386E+03  0.49505012996E+03  0.00000000000E+00 0. -1.
          1    1    1    2  502    0 -0.10767463975E+03  0.96153785811E+02  0.24618001948E+04  0.24660291113E+04  0.00000000000E+00 0. -1.
         22    1    3    3    0    0  0.10136899126E+03  0.20036096812E+02  0.44637670524E+03  0.45818040175E+03  0.00000000000E+00 0.  1.
         22    1    3    3    0    0  0.18107254617E+02 -0.61638361027E+02  0.12991455656E+03  0.14493085326E+03  0.00000000000E+00 0.  1.
</event>
<event>
 7    1  0.6358809E-006  0.1029186E+03  0.7818608E-02  0.1282600E+00
          2   -1    0    0  502    0  0.00000000000E+00  0.00000000000E+00  0.26271031910E+04  0.26271031910E+04  0.00000000000E+00 0. -1.
          1   -1    0    0  501    0 -0.00000000000E+00 -0.00000000000E+00 -0.13511911853E+03  0.13511911853E+03  0.00000000000E+00 0. -1.
         25    2    1    2    0    0  0.24030925455E+02 -0.10397539161E+02  0.62720208667E+02  0.14228162218E+03  0.12499856493E+03 0.  0.
          2    1    1    2  501    0 -0.69202435357E+02  0.10287332203E+03 -0.53507675346E+02  0.13503691630E+03  0.00000000000E+00 0. -1.
          1    1    1    2  502    0  0.45171509902E+02 -0.92475782865E+02  0.24827715392E+04  0.24849037711E+04  0.00000000000E+00 0. -1.
         22    1    3    3    0    0  0.71556367181E+02 -0.13329827745E+01  0.12692408012E+02  0.72685540160E+02  0.00000000000E+00 0. -1.
         22    1    3    3    0    0 -0.47525441726E+02 -0.90645563865E+01  0.50027800655E+02  0.69596082017E+02  0.00000000000E+00 0. -1.
</event>
<event>
 7    1  0.6358809E-006  0.1835961E+03  0.7818608E-02  0.1194821E+00
          2   -1    0    0  502    0  0.00000000000E+00  0.00000000000E+00  0.15408732601E+04  0.15408732601E+04  0.00000000000E+00 0. -1.
          1   -1    0    0  501    0 -0.00000000000E+00 -0.00000000000E+00 -0.64729778069E+03  0.64729778069E+03  0.00000000000E+00 0. -1.
         25    2    1    2    0    0 -0.20923497090E+02 -0.75384845925E+02  0.79955049271E+03  0.81303744229E+03  0.12501289712E+03 0.  0.
          2    1    1    2  501    0 -0.64059953614E+02  0.17421078038E+03 -0.62109228953E+03  0.64823506984E+03  0.00000000000E+00 0. -1.
          1    1    1    2  502    0  0.84983450703E+02 -0.98825934453E+02  0.71511727623E+03  0.72689852867E+03  0.00000000000E+00 0. -1.
         22    1    3    3    0    0 -0.67621479101E+02 -0.18200605333E+02  0.30026178296E+03  0.30831974438E+03  0.00000000000E+00 0. -1.
         22    1    3    3    0    0  0.46697982012E+02 -0.57184240593E+02  0.49928870975E+03  0.50471769791E+03  0.00000000000E+00 0. -1.
</event>
<event>
 7    1  0.6358809E-006  0.1095335E+03  0.7818608E-02  0.1341589E+00
          2   -1    0    0  502    0  0.00000000000E+00  0.00000000000E+00  0.57206299678E+03  0.57206299678E+03  0.00000000000E+00 0. -1.
          1   -1    0    0  501    0 -0.00000000000E+00 -0.00000000000E+00 -0.32468542142E+04  0.32468542142E+04  0.00000000000E+00 0. -1.
         25    2    1    2    0    0  0.48173847568E+02  0.12884416790E+03 -0.52376949107E+03  0.55577026773E+03  0.12499828610E+03 0.  0.
          2    1    1    2  501    0 -0.46495998191E-01 -0.10818189643E+03 -0.27047673314E+04  0.27069299293E+04  0.00000000000E+00 0. -1.
          1    1    1    2  502    0 -0.48127351570E+02 -0.20662271467E+02  0.55374560510E+03  0.55621701394E+03  0.00000000000E+00 0. -1.
         22    1    3    3    0    0  0.51148873484E+02  0.15211347143E+03 -0.42600487004E+03  0.45523056219E+03  0.00000000000E+00 0.  1.
         22    1    3    3    0    0 -0.29750259163E+01 -0.23269303533E+02 -0.97764621024E+02  0.10053970554E+03  0.00000000000E+00 0.  1.
</event>
<event>
 7    1  0.6358809E-006  0.6037311E+02  0.7818608E-02  0.1466048E+00
          2   -1    0    0  502    0  0.00000000000E+00  0.00000000000E+00  0.92228724259E+03  0.92228724259E+03  0.00000000000E+00 0. -1.
          1   -1    0    0  501    0 -0.00000000000E+00 -0.00000000000E+00 -0.62796564587E+02  0.62796564587E+02  0.00000000000E+00 0. -1.
         25    2    1    2    0    0 -0.51662927042E+01 -0.92593930435E+02  0.12651728305E+03  0.20058233274E+03  0.12500529093E+03 0.  0.
          2    1    1    2  501    0 -0.79796011314E+01  0.34687689622E+02 -0.11697760546E+02  0.37466617773E+02  0.00000000000E+00 0. -1.
          1    1    1    2  502    0  0.13145893836E+02  0.57906240813E+02  0.74467115549E+03  0.74703485666E+03  0.00000000000E+00 0. -1.
         22    1    3    3    0    0  0.45878716802E+02 -0.40698450396E+02  0.10999716149E+03  0.12593885840E+03  0.00000000000E+00 0.  1.
         22    1    3    3    0    0 -0.51045009507E+02 -0.51895480039E+02  0.16520121564E+02  0.74643474333E+02  0.00000000000E+00 0.  1.
</event>
<event>
 7    1  0.6358809E-006  0.1285009E+03  0.7818608E-02  0.1371335E+00
          2   -1    0    0  502    0  0.00000000000E+00  0.00000000000E+00  0.59582560113E+03  0.59582560113E+03  0.00000000000E+00 0. -1.
          1   -1    0    0  501    0 -0.00000000000E+00 -0.00000000000E+00 -0.30963647729E+03  0.30963647729E+03  0.00000000000E+00 0. -1.
         25    2    1    2    0    0  0.55366267935E+02  0.11229922835E+03 -0.16016641509E+03  0.23863607325E+03  0.12496941474E+03 0.  0.
          2    1    1    2  501    0 -0.26463127993E+02 -0.13154156390E+03 -0.68603188840E+02  0.15069796845E+03  0.00000000000E+00 0. -1.
          1    1    1    2  502    0 -0.28903139942E+02  0.19242335548E+02  0.51495872777E+03  0.51612803672E+03  0.00000000000E+00 0. -1.
         22    1    3    3    0    0 -0.16483114800E+02  0.52923887423E+01  0.13789966876E+02  0.22132908498E+02  0.00000000000E+00 0. -1.
         22    1    3    3    0    0  0.71849382735E+02  0.10700683961E+03 -0.17395638197E+03  0.21650316476E+03  0.00000000000E+00 0. -1.
</event>
<event>
 7    1  0.6358809E-006  0.1533067E+03  0.7818608E-02  0.1314519E+00
          2   -1    0    0  502    0  0.00000000000E+00  0.00000000000E+00  0.83467160187E+02  0.83467160187E+02  0.00000000000E+00 0. -1.
          1   -1    0    0  501    0 -0.00000000000E+00 -0.00000000000E+00 -0.23402424829E+04  0.23402424829E+04  0.00000000000E+00 0. -1.
         25    2    1    2    0    0  0.12920584595E+03  0.55128404972E+02 -0.10935129574E+04  0.11095621663E+04  0.12499728550E+03 0.  0.
          2    1    1    2  501    0 -0.12830234037E+03 -0.10263662955E+03 -0.12251522824E+04  0.12361204971E+04  0.00000000000E+00 0. -1.
          1    1    1    2  502    0 -0.90350558432E+00  0.47508224576E+02  0.61889917040E+02  0.78026979667E+02  0.00000000000E+00 0. -1.
         22    1    3    3    0    0  0.11899343468E+03  0.14117893929E+02 -0.48500910819E+03  0.49959242133E+03  0.00000000000E+00 0.  1.
         22    1    3    3    0    0  0.10212411268E+02  0.41010511042E+02 -0.60850384918E+03  0.60996974501E+03  0.00000000000E+00 0.  1.
</event>
<event>
 7    1  0.6358809E-006  0.9756152E+02  0.7818608E-02  0.1445909E+00
          2   -1    0    0  502    0  0.00000000000E+00  0.00000000000E+00  0.45806746289E+03  0.45806746289E+03  0.00000000000E+00 0. -1.
          1   -1    0    0  501    0 -0.00000000000E+00 -0.00000000000E+00 -0.19808279332E+03  0.19808279332E+03  0.00000000000E+00 0. -1.
         25    2    1    2    0    0  0.82107600210E+02  0.74665994288E+02 -0.85262432206E+02  0.18764413714E+03  0.12499588450E+03 0.  0.
          2    1    1    2  501    0 -0.25203013156E+02  0.39926630403E+01 -0.52878970523E+02  0.58713871903E+02  0.00000000000E+00 0. -1.
          1    1    1    2  502    0 -0.56904587054E+02 -0.78658657329E+02  0.39812607230E+03  0.40979224717E+03  0.00000000000E+00 0. -1.
         22    1    3    3    0    0  0.15661360595E+02  0.96075931188E+02 -0.49765537372E+02  0.10932735924E+03  0.00000000000E+00 0.  1.
         22    1    3    3    0    0  0.66446239614E+02 -0.21409936899E+02 -0.35496894834E+02  0.78316777894E+02  0.00000000000E+00 0.  1.
</event>
<event>
 7    1  0.6358809E-006  0.1348722E+03  0.7818608E-02  0.1383909E+00
          2   -1    0    0  502    0  0.00000000000E+00  0.00000000000E+00  0.12876064521E+04  0.12876064521E+04  0.00000000000E+00 0. -1.
          1   -1    0    0  501    0 -0.00000000000E+00 -0.00000000000E+00 -0.41309394784E+03  0.41309394784E+03  0.00000000000E+00 0. -1.
         25    2    1    2    0    0  0.10727481865E+03  0.11391511628E+03  0.48088625937E+03  0.52092451586E+03  0.12500486524E+03 0.  0.
          2    1    1    2  501    0 -0.77733541591E+02 -0.10965173645E+03 -0.38128893175E+03  0.40428610695E+03  0.00000000000E+00 0. -1.
          1    1    1    2  502    0 -0.29541277059E+02 -0.42633798304E+01  0.77491517661E+03  0.77548977711E+03  0.00000000000E+00 0. -1.
         22    1    3    3    0    0  0.70466647327E+01 -0.26678879849E+02  0.68857674654E+02  0.74180843030E+02  0.00000000000E+00 0. -1.
         22    1    3    3    0    0  0.10022815392E+03  0.14059399613E+03  0.41202858472E+03  0.44674367283E+03  0.00000000000E+00 0. -1.
</event>
<event>
 7    1  0.6358809E-006  0.5378992E+02  0.7818608E-02  0.1481411E+00
          2   -1    0    0  502    0  0.00000000000E+00  0.00000000000E+00  0.30609555606E+03  0.30609555606E+03  0.00000000000E+00 0. -1.
          1   -1    0    0  501    0 -0.00000000000E+00 -0.00000000000E+00 -0.14249958548E+03  0.14249958548E+03  0.00000000000E+00 0. -1.
         25    2    1    2    0    0 -0.10758659317E+02 -0.19802645388E+02 -0.20848955032E+01  0.12703714468E+03  0.12500478321E+03 0.  0.
          2    1    1    2  501    0  0.55136097483E+01 -0.35380345924E+02 -0.70439503975E+02  0.79018304780E+02  0.00000000000E+00 0. -1.
          1    1    1    2  502    0  0.52450495691E+01  0.55182991312E+02  0.23612037005E+03  0.24253969207E+03  0.00000000000E+00 0. -1.
         22    1    3    3    0    0 -0.10212094258E+02 -0.55736612051E+02  0.41727543445E+02  0.70370765762E+02  0.00000000000E+00 0.  1.
         22    1    3    3    0    0 -0.54656505908E+00  0.35933966663E+02 -0.43812438948E+02  0.56666378921E+02  0.00000000000E+00 0.  1.
</event>
<event>
 7    1  0.6358809E-006  0.1205083E+03  0.7818608E-02  0.1251822E+00
          2   -1    0    0  502    0  0.00000000000E+00  0.00000000000E+00  0.19877431767E+03  0.19877431767E+03  0.00000000000E+00 0. -1.
          1   -1    0    0  501    0 -0.00000000000E+00 -0.00000000000E+00 -0.18606360398E+04  0.18606360398E+04  0.00000000000E+00 0. -1.
         25    2    1    2    0    0  0.90282077291E+02 -0.53216274261E+02 -0.65663878307E+03  0.67659624745E+03  0.12500066124E+03 0.  0.
          2    1    1    2  501    0  0.53882635963E+01  0.12649271477E+03 -0.11710222889E+04  0.11778466120E+04  0.00000000000E+00 0. -1.
          1    1    1    2  502    0 -0.95670340887E+02 -0.73276440512E+02  0.16579934982E+03  0.20496749806E+03  0.00000000000E+00 0. -1.
         22    1    3    3    0    0 -0.67708314868E+01  0.20419073500E+02 -0.23566063338E+02  0.31908338454E+02  0.00000000000E+00 0. -1.
         22    1    3    3    0    0  0.97052908778E+02 -0.73635347761E+02 -0.63307271973E+03  0.64468790900E+03  0.00000000000E+00 0. -1.
</event>
<event>
 7    1  0.6358809E-006  0.3538325E+03  0.7818608E-02  0.1192103E+00
          2   -1    0    0  502    0  0.00000000000E+00  0.00000000000E+00  0.15639983821E+04  0.15639983821E+04  0.00000000000E+00 0. -1.
          1   -1    0    0  501    0 -0.00000000000E+00 -0.00000000000E+00 -0.19241018510E+03  0.19241018510E+03  0.00000000000E+00 0. -1.
         25    2    1    2    0    0  0.61584101012E+02  0.31842720505E+03  0.37336907495E+03  0.51012304916E+03  0.12503028733E+03 0.  0.
          2    1    1    2  501    0 -0.19190229988E+02 -0.37372740590E+03  0.16302242674E+03  0.40818715128E+03  0.00000000000E+00 0. -1.
          1    1    1    2  502    0 -0.42393871025E+02  0.55300200849E+02  0.83519669528E+03  0.83809836674E+03  0.00000000000E+00 0. -1.
         22    1    3    3    0    0  0.96680340615E+02  0.24985427902E+03  0.31470614182E+03  0.41329675138E+03  0.00000000000E+00 0.  1.
         22    1    3    3    0    0 -0.35096239602E+02  0.68572926035E+02  0.58662933124E+02  0.96826297781E+02  0.00000000000E+00 0.  1.
</event>
<event>
 7    1  0.6358809E-006  0.7999742E+02  0.7818608E-02  0.1358931E+00
          2   -1    0    0  502    0  0.00000000000E+00  0.00000000000E+00  0.12091821684E+04  0.12091821684E+04  0.00000000000E+00 0. -1.
          1   -1    0    0  501    0 -0.00000000000E+00 -0.00000000000E+00 -0.51402275322E+03  0.51402275322E+03  0.00000000000E+00 0. -1.
         25    2    1    2    0    0 -0.12461977605E+02  0.10302856583E+03  0.39449911530E+03  0.42664355422E+03  0.12499993650E+03 0.  0.
          2    1    1    2  501    0  0.51598554706E+02 -0.34109427537E+02 -0.49405094565E+03  0.49790782359E+03  0.00000000000E+00 0. -1.
          1    1    1    2  502    0 -0.39136577101E+02 -0.68919138291E+02  0.79471124552E+03  0.79865354382E+03  0.00000000000E+00 0. -1.
         22    1    3    3    0    0 -0.15798268516E+02  0.13215305244E+03  0.32754850568E+03  0.35355627293E+03  0.00000000000E+00 0. -1.
         22    1    3    3    0    0  0.33362909102E+01 -0.29124486615E+02  0.66950609624E+02  0.73087281292E+02  0.00000000000E+00 0. -1.
</event>
<event>
 7    1  0.6358809E-006  0.9363313E+02  0.7818608E-02  0.1376932E+00
          2   -1    0    0  502    0  0.00000000000E+00  0.00000000000E+00  0.54363978243E+02  0.54363978243E+02  0.00000000000E+00 0. -1.
          1   -1    0    0  501    0 -0.00000000000E+00 -0.00000000000E+00 -0.10553331919E+04  0.10553331919E+04  0.00000000000E+00 0. -1.
         25    2    1    2    0    0 -0.11408821413E+03  0.59412583814E+02 -0.71170110792E+03  0.73395451325E+03  0.12499913918E+03 0.  0.
          2    1    1    2  501    0  0.25233536508E+02 -0.37872219427E+02 -0.28019339823E+03  0.28386506791E+03  0.00000000000E+00 0. -1.
          1    1    1    2  502    0  0.88854677624E+02 -0.21540364387E+02 -0.90747074714E+01  0.91877588940E+02  0.00000000000E+00 0. -1.
         22    1    3    3    0    0 -0.14112240566E+03  0.44733391022E+02 -0.60967576332E+03  0.62739233819E+03  0.00000000000E+00 0.  1.
         22    1    3    3    0    0  0.27034191523E+02  0.14679192791E+02 -0.10202534460E+03  0.10656217506E+03  0.00000000000E+00 0.  1.
</event>
<event>
 7    1  0.6358809E-006  0.1742411E+03  0.7818608E-02  0.1266527E+00
          2   -1    0    0  502    0  0.00000000000E+00  0.00000000000E+00  0.60684789751E+03  0.60684789751E+03  0.00000000000E+00 0. -1.
          1   -1    0    0  501    0 -0.00000000000E+00 -0.00000000000E+00 -0.14599447579E+03  0.14599447579E+03  0.00000000000E+00 0. -1.
         25    2    1    2    0    0 -0.15426815267E+03 -0.11722379430E+02  0.24228703896E+03  0.31347136076E+03  0.12500083065E+03 0.  0.
          2    1    1    2  501    0 -0.34938694321E+02  0.55423910840E+02 -0.67210599408E+02  0.93860465193E+02  0.00000000000E+00 0. -1.
          1    1    1    2  502    0  0.18920684699E+03 -0.43701531410E+02  0.28577698216E+03  0.34551054735E+03  0.00000000000E+00 0. -1.
         22    1    3    3    0    0 -0.91488017600E+02 -0.66983387598E+02  0.11786221567E+03  0.16354917750E+03  0.00000000000E+00 0.  1.
         22    1    3    3    0    0 -0.62780135065E+02  0.55261008169E+02  0.12442482329E+03  0.14992218326E+03  0.00000000000E+00 0.  1.
</event>
<event>
 7    1  0.6358809E-006  0.1014098E+03  0.7818608E-02  0.1438155E+00
          2   -1    0    0  502    0  0.00000000000E+00  0.00000000000E+00  0.63974417344E+03  0.63974417344E+03  0.00000000000E+00 0. -1.
          1   -1    0    0  501    0 -0.00000000000E+00 -0.00000000000E+00 -0.13642712413E+04  0.13642712413E+04  0.00000000000E+00 0. -1.
         25    2    1    2    0    0 -0.21980907061E+01  0.76750461588E+02 -0.54524138190E+02  0.15649745553E+03  0.12499242771E+03 0.  0.
          2    1    1    2  501    0 -0.55498326425E+01  0.25410014582E+02 -0.12541674135E+04  0.12544370732E+04  0.00000000000E+00 0. -1.
          1    1    1    2  502    0  0.77479233486E+01 -0.10216047617E+03  0.58416448383E+03  0.59308088603E+03  0.00000000000E+00 0. -1.
         22    1    3    3    0    0  0.43563703933E+02  0.85928433060E+02 -0.52646035292E+02  0.10978659727E+03  0.00000000000E+00 0. -1.
         22    1    3    3    0    0 -0.45761794639E+02 -0.91779714723E+01 -0.18781028979E+01  0.46710858260E+02  0.00000000000E+00 0. -1.
</event>
<event>
 7    1  0.6358809E-006  0.9691859E+02  0.7818608E-02  0.1356270E+00
          2   -1    0    0  502    0  0.00000000000E+00  0.00000000000E+00  0.43287418710E+03  0.43287418710E+03  0.00000000000E+00 0. -1.
          1   -1    0    0  501    0 -0.00000000000E+00 -0.00000000000E+00 -0.79056057880E+03  0.79056057880E+03  0.00000000000E+00 0. -1.
         25    2    1    2    0    0  0.77830618678E+01 -0.64120764719E+02 -0.41516690655E+03  0.43836036990E+03  0.12499682031E+03 0.  0.
          2    1    1    2  501    0  0.50252432639E+02 -0.14173949210E+02 -0.35623176789E+03  0.36003788728E+03  0.00000000000E+00 0. -1.
          1    1    1    2  502    0 -0.58035494507E+02  0.78294713929E+02  0.41371228274E+03  0.42503650871E+03  0.00000000000E+00 0. -1.
         22    1    3    3    0    0  0.89914078686E+01 -0.95300971487E+02 -0.37750029112E+03  0.38944780187E+03  0.00000000000E+00 0. -1.
         22    1    3    3    0    0 -0.12083460008E+01  0.31180206768E+02 -0.37666615425E+02  0.48912568034E+02  0.00000000000E+00 0. -1.
</event>
<event>
 7    1  0.6358809E-006  0.4194662E+02  0.7818608E-02  0.1541086E+00
          2   -1    0    0  502    0  0.00000000000E+00  0.00000000000E+00  0.22597544494E+04  0.22597544494E+04  0.00000000000E+00 0. -1.
          1   -1    0    0  501    0 -0.00000000000E+00 -0.00000000000E+00 -0.45600992895E+03  0.45600992895E+03  0.00000000000E+00 0. -1.
         25    2    1    2    0    0 -0.70669367398E+02  0.74945149451E+01  0.28044810546E+03  0.31516135017E+03  0.12500083816E+03 0.  0.
          2    1    1    2  501    0  0.30487802622E+02  0.32271051180E+01 -0.43789691014E+03  0.43896881920E+03  0.00000000000E+00 0. -1.
          1    1    1    2  502    0  0.40181564775E+02 -0.10721620063E+02  0.19611933252E+04  0.19616342090E+04  0.00000000000E+00 0. -1.
         22    1    3    3    0    0 -0.72077164788E+01 -0.42486338758E+02  0.18578009751E+03  0.19071257113E+03  0.00000000000E+00 0.  1.
         22    1    3    3    0    0 -0.63461650919E+02  0.49980853703E+02  0.94668007958E+02  0.12444877904E+03  0.00000000000E+00 0.  1.
</event>
<event>
 7    1  0.6358809E-006  0.9880707E+02  0.7818608E-02  0.1384743E+00
          2   -1    0    0  502    0  0.00000000000E+00  0.00000000000E+00  0.10177069488E+04  0.10177069488E+04  0.00000000000E+00 0. -1.
          1   -1    0    0  501    0 -0.00000000000E+00 -0.00000000000E+00 -0.83958708512E+03  0.83958708512E+03  0.00000000000E+00 0. -1.
         25    2    1    2    0    0  0.61723004668E+02  0.93539897565E+01 -0.48242839819E+02  0.14782040139E+03  0.12500509207E+03 0.  0.
          2    1    1    2  501    0  0.37961269374E+02 -0.14019713568E+02 -0.73842778057E+03  0.73953579863E+03  0.00000000000E+00 0. -1.
          1    1    1    2  502    0 -0.99684274042E+02  0.46657238113E+01  0.96479048406E+03  0.96993783388E+03  0.00000000000E+00 0. -1.
         22    1    3    3    0    0 -0.15078856559E+02 -0.42778650017E+02 -0.57125637085E+01  0.45716716817E+02  0.00000000000E+00 0. -1.
         22    1    3    3    0    0  0.76801861227E+02  0.52132639774E+02 -0.42530276110E+02  0.10210368457E+03  0.00000000000E+00 0. -1.
</event>
<event>
 7    1  0.6358809E-006  0.3545105E+02  0.7818608E-02  0.1610934E+00
          2   -1    0    0  502    0  0.00000000000E+00  0.00000000000E+00  0.13146682635E+04  0.13146682635E+04  0.00000000000E+00 0. -1.
          1   -1    0    0  501    0 -0.00000000000E+00 -0.00000000000E+00 -0.12237282655E+04  0.12237282655E+04  0.00000000000E+00 0. -1.
         25    2    1    2    0    0  0.65357225039E+01 -0.10424193699E+02 -0.41304182030E+02  0.13222102092E+03  0.12499993375E+03 0.  0.
          2    1    1    2  501    0 -0.23290015075E+02  0.26916415928E+02 -0.11365781721E+04  0.11371353743E+04  0.00000000000E+00 0. -1.
          1    1    1    2  502    0  0.16754292571E+02 -0.16492222229E+02  0.12688223522E+04  0.12690401337E+04  0.00000000000E+00 0. -1.
         22    1    3    3    0    0  0.10836142905E+02 -0.47597300545E+02 -0.69806570570E+02  0.85181466922E+02  0.00000000000E+00 0.  1.
         22    1    3    3    0    0 -0.43004204013E+01  0.37173106846E+02  0.28502388541E+02  0.47039554002E+02  0.00000000000E+00 0.  1.
</event>
<event>
 7    1  0.6358809E-006  0.7652445E+02  0.7818608E-02  0.1487459E+00
          2   -1    0    0  502    0  0.00000000000E+00  0.00000000000E+00  0.90469684649E+03  0.90469684649E+03  0.00000000000E+00 0. -1.
          1   -1    0    0  501    0 -0.00000000000E+00 -0.00000000000E+00 -0.11999149487E+03  0.11999149487E+03  0.00000000000E+00 0. -1.
         25    2    1    2    0    0  0.56771115136E+02 -0.48282207658E+02 -0.10810226705E+02  0.14589792379E+03  0.12496084217E+03 0.  0.
          2    1    1    2  501    0 -0.16918558175E+02 -0.17195694218E+02 -0.36226656041E+02  0.43523558198E+02  0.00000000000E+00 0. -1.
          1    1    1    2  502    0 -0.39852556961E+02  0.65477901876E+02  0.83174223436E+03  0.83526685936E+03  0.00000000000E+00 0. -1.
         22    1    3    3    0    0  0.58435118822E+02  0.15213298583E+02  0.32928377236E+02  0.68777798692E+02  0.00000000000E+00 0. -1.
         22    1    3    3    0    0 -0.16640036856E+01 -0.63495506242E+02 -0.43738603941E+02  0.77120125103E+02  0.00000000000E+00 0. -1.
</event>
<event>
 7    1  0.6358809E-006  0.9652737E+02  0.7818608E-02  0.1341319E+00
          2   -1    0    0  502    0  0.00000000000E+00  0.00000000000E+00  0.28739692308E+03  0.28739692308E+03  0.00000000000E+00 0. -1.
          1   -1    0    0  501    0 -0.00000000000E+00 -0.00000000000E+00 -0.13457967408E+03  0.13457967408E+03  0.00000000000E+00 0. -1.
         25    2    1    2    0    0 -0.12562349569E+02  0.13934769595E+03  0.22134018149E+02  0.18892101880E+03  0.12500257434E+03 0.  0.
          2    1    1    2  501    0 -0.17883607458E+01 -0.81531249310E+02 -0.81740473837E+01  0.81959489376E+02  0.00000000000E+00 0. -1.
          1    1    1    2  502    0  0.14350710315E+02 -0.57816446642E+02  0.13885727823E+03  0.15109608899E+03  0.00000000000E+00 0. -1.
         22    1    3    3    0    0 -0.49571016550E+02  0.12008408290E+02 -0.11128661454E+02  0.52204737881E+02  0.00000000000E+00 0.  1.
         22    1    3    3    0    0  0.37008666981E+02  0.12733928766E+03  0.33262679603E+02  0.13671628092E+03  0.00000000000E+00 0.  1.
</event>
<event>
 7    1  0.6358809E-006  0.7256764E+02  0.7818608E-02  0.1502527E+00
          2   -1    0    0  502    0  0.00000000000E+00  0.00000000000E+00  0.15078256227E+03  0.15078256227E+03  0.00000000000E+00 0. -1.
          1   -1    0    0  501    0 -0.00000000000E+00 -0.00000000000E+00 -0.69776926264E+03  0.69776926264E+03  0.00000000000E+00 0. -1.
         25    2    1    2    0    0  0.88104597216E+02  0.25453296576E+02 -0.15353080426E+03  0.21819352601E+03  0.12500566618E+03 0.  0.
          2    1    1    2  501    0 -0.70290851600E+02 -0.11031005640E+02 -0.50829680878E+03  0.51325250386E+03  0.00000000000E+00 0. -1.
          1    1    1    2  502    0 -0.17813745616E+02 -0.14422290936E+02  0.11484091267E+03  0.11710579504E+03  0.00000000000E+00 0. -1.
         22    1    3    3    0    0  0.33345691819E+02 -0.97369377545E+01 -0.14894329321E+03  0.15294066729E+03  0.00000000000E+00 0.  1.
         22    1    3    3    0    0  0.54758905397E+02  0.35190234331E+02 -0.45875110501E+01  0.65252858713E+02  0.00000000000E+00 0.  1.
</event>
<event>
 7    1  0.6358809E-006  0.8063351E+02  0.7818608E-02  0.1349889E+00
          2   -1    0    0  502    0  0.00000000000E+00  0.00000000000E+00  0.18221210871E+02  0.18221210871E+02  0.00000000000E+00 0. -1.
          1   -1    0    0  501    0 -0.00000000000E+00 -0.00000000000E+00 -0.14033172949E+04  0.14033172949E+04  0.00000000000E+00 0. -1.
         25    2    1    2    0    0 -0.51495750372E+01  0.96996946192E+01 -0.68376754422E+03  0.69518564238E+03  0.12499768254E+03 0.  0.
          2    1    1    2  501    0 -0.75784771688E+02 -0.27539620313E+02 -0.52924075654E+03  0.53534805565E+03  0.00000000000E+00 0. -1.
          1    1    1    2  502    0  0.80934346726E+02  0.17839925694E+02 -0.17208778324E+03  0.19100480771E+03  0.00000000000E+00 0. -1.
         22    1    3    3    0    0  0.37984825828E+02 -0.37526291790E+02 -0.43756307464E+03  0.44080893124E+03  0.00000000000E+00 0. -1.
         22    1    3    3    0    0 -0.43134400865E+02  0.47225986409E+02 -0.24620446957E+03  0.25437671114E+03  0.00000000000E+00 0. -1.
</event>
<event>
 7    1  0.6358809E-006  0.2737420E+02  0.7818608E-02  0.1669316E+00
          2   -1    0    0  502    0  0.00000000000E+00  0.00000000000E+00  0.11759479437E+03  0.11759479437E+03  0.00000000000E+00 0. -1.
          1   -1    0    0  501    0 -0.00000000000E+00 -0.00000000000E+00 -0.54915236660E+03  0.54915236660E+03  0.00000000000E+00 0. -1.
         25    2    1    2    0    0  0.14766731828E+02 -0.38963965492E+02  0.15058774882E+02  0.13261698678E+03  0.12499700599E+03 0.  0.
          2    1    1    2  501    0 -0.20598827676E+02  0.17954680438E+02 -0.48725031738E+03  0.48801593625E+03  0.00000000000E+00 0. -1.
          1    1    1    2  502    0  0.58320958473E+01  0.21009285054E+02  0.40633970265E+02  0.46114237931E+02  0.00000000000E+00 0. -1.
         22    1    3    3    0    0 -0.46780330854E+02  0.15450963390E+02  0.10270629401E+02  0.50325117514E+02  0.00000000000E+00 0.  1.
         22    1    3    3    0    0  0.61547062682E+02 -0.54414928883E+02  0.47881454807E+01  0.82291869265E+02  0.00000000000E+00 0.  1.
</event>
<event>
 7    1  0.6358809E-006  0.1375723E+03  0.7818608E-02  0.1241974E+00
          2   -1    0    0  502    0  0.00000000000E+00  0.00000000000E+00  0.19280535499E+04  0.19280535499E+04  0.00000000000E+00 0. -1.
          1   -1    0    0  501    0 -0.00000000000E+00 -0.00000000000E+00 -0.17055680870E+04  0.17055680870E+04  0.00000000000E+00 0. -1.
         25    2    1    2    0    0 -0.59212361869E+02  0.22474850468E+03 -0.19431853038E+03  0.32772482059E+03  0.12500349045E+03 0.  0.
          2    1    1    2  501    0  0.59012736442E+01 -0.13328273928E+03 -0.14399549298E+04  0.14461221641E+04  0.00000000000E+00 0. -1.
          1    1    1    2  502    0  0.53311088224E+02 -0.91465765400E+02  0.18567589231E+04  0.18597746522E+04  0.00000000000E+00 0. -1.
         22    1    3    3    0    0  0.11114366085E+02 -0.12129002787E+02 -0.16476317173E+02  0.23283274462E+02  0.00000000000E+00 0. -1.
         22    1    3    3    0    0 -0.70326727954E+02  0.23687750747E+03 -0.17784221320E+03  0.30444154612E+03  0.00000000000E+00 0. -1.
</event>
<event>
 7    1  0.6358809E-006  0.1517151E+03  0.7818608E-02  0.1384963E+00
          2   -1    0    0  502    0  0.00000000000E+00  0.00000000000E+00  0.20280535100E+04  0.20280535100E+04  0.00000000000E+00 0. -1.
          1   -1    0    0  501    0 -0.00000000000E+00 -0.00000000000E+00 -0.55137677665E+02  0.55137677665E+02  0.00000000000E+00 0. -1.
         25    2    1    2    0    0 -0.13554766763E+03  0.37982091551E+02  0.40042791105E+03  0.44247435166E+03  0.12500092181E+03 0.  0.
          2    1    1    2  501    0  0.15545932277E+03 -0.20787986723E+02  0.14692411345E+03  0.21491029883E+03  0.00000000000E+00 0. -1.
          1    1    1    2  502    0 -0.19911655142E+02 -0.17194104827E+02  0.14255638078E+04  0.14258065372E+04  0.00000000000E+00 0. -1.
         22    1    3    3    0    0 -0.48638352035E+02  0.42303920430E+02  0.31133137880E+03  0.31793480211E+03  0.00000000000E+00 0. -1.
         22    1    3    3    0    0 -0.86909315594E+02 -0.43218288793E+01  0.89096532257E+02  0.12453954955E+03  0.00000000000E+00 0. -1.
</event>
<event>
 7    1  0.6358809E-006  0.8127688E+02  0.7818608E-02  0.1404017E+00
          2   -1    0    0  502    0  0.00000000000E+00  0.00000000000E+00  0.47912024152E+02  0.47912024152E+02  0.00000000000E+00 0. -1.
          1   -1    0    0  501    0 -0.00000000000E+00 -0.00000000000E+00 -0.71508655137E+03  0.71508655137E+03  0.00000000000E+00 0. -1.
         25    2    1    2    0    0 -0.61775154772E+02 -0.46082127638E+02 -0.24905893512E+03  0.28912573760E+03  0.12499442686E+03 0.  0.
          2    1    1    2  501    0  0.28205381497E+02 -0.31361193407E+02 -0.37812883331E+03  0.38047402353E+03  0.00000000000E+00 0. -1.
          1    1    1    2  502    0  0.33569773275E+02  0.77443321045E+02 -0.39986758790E+02  0.93398814397E+02  0.00000000000E+00 0. -1.
         22    1    3    3    0    0  0.22253623756E+01 -0.74792349740E+02 -0.15145789416E+03  0.16893294978E+03  0.00000000000E+00 0. -1.
         22    1    3    3    0    0 -0.64000517148E+02  0.28710222102E+02 -0.97601040963E+02  0.12019278783E+03  0.00000000000E+00 0. -1.
</event>
<event>
 7    1  0.6358809E-006  0.4877825E+02  0.7818608E-02  0.1487914E+00
          2   -1    0    0  502    0  0.00000000000E+00  0.00000000000E+00  0.10224417480E+04  0.10224417480E+04  0.00000000000E+00 0. -1.
          1   -1    0    0  501    0 -0.00000000000E+00 -0.00000000000E+00 -0.15825939519E+02  0.15825939519E+02  0.00000000000E+00 0. -1.
         25    2    1    2    0    0  0.34064058346E+02  0.33691254845E+02  0.37112035276E+03  0.39452701411E+03  0.12500315159E+03 0.  0.
          2    1    1    2  501    0 -0.33909818817E+02  0.16531663831E+02  0.11965587809E+03  0.12546194994E+03  0.00000000000E+00 0. -1.
          1    1    1    2  502    0 -0.15423952929E+00 -0.50222918676E+02  0.51583957762E+03  0.51827872346E+03  0.00000000000E+00 0. -1.
         22    1    3    3    0    0  0.75419736762E+01  0.74140461149E+02  0.14211380776E+03  0.16046813921E+03  0.00000000000E+00 0. -1.
         22    1    3    3    0    0  0.26522084670E+02 -0.40449206304E+02  0.22900654500E+03  0.23405887490E+03  0.00000000000E+00 0. -1.
</event>
<event>
 7    1  0.6358809E-006  0.8157336E+02  0.7818608E-02  0.1425850E+00
          2   -1    0    0  502    0  0.00000000000E+00  0.00000000000E+00  0.55953912497E+03  0.55953912497E+03  0.00000000000E+00 0. -1.
          1   -1    0    0  501    0 -0.00000000000E+00 -0.00000000000E+00 -0.24298877343E+03  0.24298877343E+03  0.00000000000E+00 0. -1.
         25    2    1    2    0    0  0.76862217174E+02 -0.34392494429E+02 -0.12526866569E+03  0.19598042639E+03  0.12500177929E+03 0.  0.
          2    1    1    2  501    0 -0.54771566381E+02  0.62163330038E+02 -0.60744234278E+02  0.10273298440E+03  0.00000000000E+00 0. -1.
          1    1    1    2  502    0 -0.22090650793E+02 -0.27770835608E+02  0.50256325150E+03  0.50381448761E+03  0.00000000000E+00 0. -1.
         22    1    3    3    0    0 -0.23120652863E+02 -0.22424279814E+02  0.36289432599E+01  0.32412684911E+02  0.00000000000E+00 0.  1.
         22    1    3    3    0    0  0.99982870037E+02 -0.11968214616E+02 -0.12889760895E+03  0.16356774148E+03  0.00000000000E+00 0.  1.
</event>
<event>
 7    1  0.6358809E-006  0.3498762E+02  0.7818608E-02  0.1577315E+00
          2   -1    0    0  502    0  0.00000000000E+00  0.00000000000E+00  0.51903119378E+01  0.51903119378E+01  0.00000000000E+00 0. -1.
          1   -1    0    0  501    0 -0.00000000000E+00 -0.00000000000E+00 -0.32197616533E+04  0.32197616533E+04  0.00000000000E+00 0. -1.
         25    2    1    2    0    0  0.30698156888E+02  0.19030207768E+02 -0.23443020970E+04  0.23479104560E+04  0.12500664725E+03 0.  0.
          2    1    1    2  501    0 -0.35682876139E+02  0.97478423040E+01 -0.80116794976E+03  0.80202142852E+03  0.00000000000E+00 0. -1.
          1    1    1    2  502    0  0.49847192518E+01 -0.28778050072E+02 -0.69101294582E+02  0.75020080677E+02  0.00000000000E+00 0. -1.
         22    1    3    3    0    0  0.37367993405E+02  0.50554113118E+02 -0.21527099937E+04  0.21536277307E+04  0.00000000000E+00 0. -1.
         22    1    3    3    0    0 -0.66698365175E+01 -0.31523905350E+02 -0.19159210326E+03  0.19428272532E+03  0.00000000000E+00 0. -1.
</event>
<event>
 7    1  0.6358809E-006  0.1420719E+03  0.7818608E-02  0.1287831E+00
          2   -1    0    0  502    0  0.00000000000E+00  0.00000000000E+00  0.88882248120E+03  0.88882248120E+03  0.00000000000E+00 0. -1.
          1   -1    0    0  501    0 -0.00000000000E+00 -0.00000000000E+00 -0.31847572330E+03  0.31847572330E+03  0.00000000000E+00 0. -1.
         25    2    1    2    0    0 -0.90578306743E+02 -0.92772736912E+02  0.13875933301E+03  0.22735227284E+03  0.12499477229E+03 0.  0.
          2    1    1    2  501    0  0.13704214126E+03  0.46538918553E+02 -0.25340595377E+03  0.29182357140E+03  0.00000000000E+00 0. -1.
          1    1    1    2  502    0 -0.46463834513E+02  0.46233818359E+02  0.68499337866E+03  0.68812236026E+03  0.00000000000E+00 0. -1.
         22    1    3    3    0    0 -0.10481556278E+02  0.23129584714E+02  0.61807215608E+02  0.66820450554E+02  0.00000000000E+00 0.  1.
         22    1    3    3    0    0 -0.80096750465E+02 -0.11590232163E+03  0.76952117403E+02  0.16053182228E+03  0.00000000000E+00 0.  1.
</event>
<event>
 7    1  0.6358809E-006  0.7636794E+02  0.7818608E-02  0.1423728E+00
          2   -1    0    0  502    0  0.00000000000E+00  0.00000000000E+00  0.26119981442E+03  0.26119981442E+03  0.00000000000E+00 0. -1.
          1   -1    0    0  501    0 -0.00000000000E+00 -0.00000000000E+00 -0.39351125196E+03  0.39351125196E+03  0.00000000000E+00 0. -1.
         25    2    1    2    0    0  0.23844255167E+02 -0.84656125940E+02 -0.28832968905E+02  0.15553584113E+03  0.12499939847E+03 0.  0.
          2    1    1    2  501    0  0.26695541188E+02  0.27774219754E+02 -0.29270178326E+03  0.29522600347E+03  0.00000000000E+00 0. -1.
          1    1    1    2  502    0 -0.50539796355E+02  0.56881906186E+02  0.18922331463E+03  0.20394922178E+03  0.00000000000E+00 0. -1.
         22    1    3    3    0    0  0.49130360515E+01 -0.24537874965E+02  0.49217384913E+02  0.55214094294E+02  0.00000000000E+00 0. -1.
         22    1    3    3    0    0  0.18931219115E+02 -0.60118250975E+02 -0.78050353818E+02  0.10032174684E+03  0.00000000000E+00 0. -1.
</event>
<event>
 7    1  0.6358809E-006  0.5390742E+02  0.7818608E-02  0.1455756E+00
          2   -1    0    0  502    0  0.00000000000E+00  0.00000000000E+00  0.25129024188E+04  0.25129024188E+04  0.00000000000E+00 0. -1.
          1   -1    0    0  501    0 -0.00000000000E+00 -0.00000000000E+00 -0.19461415447E+03  0.19461415447E+03  0.00000000000E+00 0. -1.
         25    2    1    2    0    0  0.18306494017E+02 -0.17532763764E+02  0.46201321763E+03  0.47929479351E+03  0.12499904117E+03 0.  0.
          2    1    1    2  501    0  0.37052878730E+02  0.21726880140E+02 -0.18311038988E+03  0.18808080185E+03  0.00000000000E+00 0. -1.
          1    1    1    2  502    0 -0.55359372747E+02 -0.41941163763E+01  0.20393854366E+04  0.20401409779E+04  0.00000000000E+00 0. -1.
         22    1    3    3    0    0 -0.22795550713E+02 -0.58444913975E+02  0.16188652214E+03  0.17361650599E+03  0.00000000000E+00 0.  1.
         22    1    3    3    0    0  0.41102044730E+02  0.40912150211E+02  0.30012669549E+03  0.30567828752E+03  0.00000000000E+00 0.  1.
</event>
<event>
 7    1  0.6358809E-006  0.4444713E+02  0.7818608E-02  0.1544317E+00
          2   -1    0    0  502    0  0.00000000000E+00  0.00000000000E+00  0.18300644145E+04  0.18300644145E+04  0.00000000000E+00 0. -1.
          1   -1    0    0  501    0 -0.00000000000E+00 -0.00000000000E+00 -0.11585823558E+03  0.11585823558E+03  0.00000000000E+00 0. -1.
         25    2    1    2    0    0  0.33979925947E+02  0.63828069023E+02  0.17832609751E+03  0.22946582023E+03  0.12500283132E+03 0.  0.
          2    1    1    2  501    0 -0.11296261658E+02 -0.25984034549E+02 -0.87758470494E+02  0.92218895690E+02  0.00000000000E+00 0. -1.
          1    1    1    2  502    0 -0.22683664289E+02 -0.37844034475E+02  0.16236385519E+04  0.16242379341E+04  0.00000000000E+00 0. -1.
         22    1    3    3    0    0  0.29551551671E+02  0.41932291947E+02  0.19497142018E+03  0.20160720722E+03  0.00000000000E+00 0. -1.
         22    1    3    3    0    0  0.44283742754E+01  0.21895777076E+02 -0.16645322667E+02  0.27858613016E+02  0.00000000000E+00 0. -1.
</event>
<event>
 7    1  0.6358809E-006  0.6453287E+02  0.7818608E-02  0.1380573E+00
          2   -1    0    0  502    0  0.00000000000E+00  0.00000000000E+00  0.64205202737E+03  0.64205202737E+03  0.00000000000E+00 0. -1.
          1   -1    0    0  501    0 -0.00000000000E+00 -0.00000000000E+00 -0.22340689076E+04  0.22340689076E+04  0.00000000000E+00 0. -1.
         25    2    1    2    0    0 -0.70920327359E+01  0.10926269610E+02  0.31660109111E+02  0.12960292310E+03  0.12499949949E+03 0.  0.
          2    1    1    2  501    0  0.52080672103E+02  0.38106367533E+02 -0.21826470654E+04  0.21836008572E+04  0.00000000000E+00 0. -1.
          1    1    1    2  502    0 -0.44988639368E+02 -0.49032637143E+02  0.55897007600E+03  0.56291715469E+03  0.00000000000E+00 0. -1.
         22    1    3    3    0    0  0.14173130148E+02  0.38000888920E+02  0.68231983759E+02  0.79375996275E+02  0.00000000000E+00 0.  1.
         22    1    3    3    0    0 -0.21265162884E+02 -0.27074619310E+02 -0.36571874648E+02  0.50226926828E+02  0.00000000000E+00 0.  1.
</event>
<event>
 7    1  0.6358809E-006  0.1014844E+03  0.7818608E-02  0.1410976E+00
          2   -1    0    0  502    0  0.00000000000E+00  0.00000000000E+00  0.21019141707E+04  0.21019141707E+04  0.00000000000E+00 0. -1.
          1   -1    0    0  501    0 -0.00000000000E+00 -0.00000000000E+00 -0.12457708164E+03  0.12457708164E+03  0.00000000000E+00 0. -1.
         25    2    1    2    0    0 -0.83541862652E+02 -0.23323485894E+02  0.89252043187E+03  0.90539497426E+03  0.12499644114E+03 0.  0.
          2    1    1    2  501    0 -0.24236150533E+02  0.20877658420E+02 -0.11350939394E+03  0.11793070053E+03  0.00000000000E+00 0. -1.
          1    1    1    2  502    0  0.10777801318E+03  0.24458274732E+01  0.11983260511E+04  0.12031655776E+04  0.00000000000E+00 0. -1.
         22    1    3    3    0    0 -0.99063924138E+02 -0.25853285591E+02  0.40902428914E+03  0.42164312226E+03  0.00000000000E+00 0.  1.
         22    1    3    3    0    0  0.15522061487E+02  0.25297996970E+01  0.48349614273E+03  0.48375185200E+03  0.00000000000E+00 0.  1.
</event>
<event>
 7    1  0.6358809E-006  0.1030371E+03  0.7818608E-02  0.1293324E+00
          2   -1    0    0  502    0  0.00000000000E+00  0.00000000000E+00  0.59496175954E+03  0.59496175954E+03  0.00000000000E+00 0. -1.
          1   -1    0    0  501    0 -0.00000000000E+00 -0.00000000000E+00 -0.19671975444E+04  0.19671975444E+04  0.00000000000E+00 0. -1.
         25    2    1    2    0    0 -0.93298836287E+02  0.14014363395E+03 -0.56516879559E+03  0.60281466442E+03  0.12499936460E+03 0.  0.
          2    1    1    2  501    0  0.63401894528E+01 -0.85617286700E+02 -0.13772872632E+04  0.13799604064E+04  0.00000000000E+00 0. -1.
          1    1    1    2  502    0  0.86958646834E+02 -0.54526347248E+02  0.57022027394E+03  0.57938423314E+03  0.00000000000E+00 0. -1.
         22    1    3    3    0    0  0.21291789600E+02  0.16326374077E+02 -0.18444910842E+03  0.18639035488E+03  0.00000000000E+00 0.  1.
         22    1    3    3    0    0 -0.11459062589E+03  0.12381725987E+03 -0.38071968717E+03  0.41642430955E+03  0.00000000000E+00 0.  1.
</event>
<event>
 7    1  0.6358809E-006  0.7270283E+02  0.7818608E-02  0.1490273E+00
          2   -1    0    0  502    0  0.00000000000E+00  0.00000000000E+00  0.86450025915E+03  0.86450025915E+03  0.00000000000E+00 0. -1.
          1   -1    0    0  501    0 -0.00000000000E+00 -0.00000000000E+00 -0.12152601791E+04  0.12152601791E+04  0.00000000000E+00 0. -1.
         25    2    1    2    0    0  0.47242742884E+02  0.23240447373E+02 -0.57858536105E+03  0.59427062912E+03  0.12499826184E+03 0.  0.
          2    1    1    2  501    0  0.86447382083E+01  0.23348661768E+02 -0.62703974064E+03  0.62753384598E+03  0.00000000000E+00 0. -1.
          1    1    1    2  502    0 -0.55887481093E+02 -0.46589109141E+02  0.85486518177E+03  0.85795596311E+03  0.00000000000E+00 0. -1.
         22    1    3    3    0    0 -0.27199472947E+02  0.30462693675E+02 -0.77187404524E+02  0.87325153603E+02  0.00000000000E+00 0.  1.
         22    1    3    3    0    0  0.74442215831E+02 -0.72222463015E+01 -0.50139795652E+03  0.50694547551E+03  0.00000000000E+00 0.  1.
</event>
<event>
 7    1  0.6358809E-006  0.5876054E+02  0.7818608E-02  0.1491847E+00
          2   -1    0    0  502    0  0.00000000000E+00  0.00000000000E+00  0.25891355824E+03  0.25891355824E+03  0.00000000000E+00 0. -1.
          1   -1    0    0  501    0 -0.00000000000E+00 -0.00000000000E+00 -0.71297848463E+03  0.71297848463E+03  0.00000000000E+00 0. -1.
         25    2    1    2    0    0  0.65176765903E+02  0.25117962726E+02  0.53164945415E+02  0.15274577311E+03  0.12500334763E+03 0.  0.
          2    1    1    2  501    0 -0.71414210160E+01 -0.29620848615E+02 -0.65739133570E+03  0.65809707705E+03  0.00000000000E+00 0. -1.
          1    1    1    2  502    0 -0.58035344887E+02  0.45028858895E+01  0.15016146389E+03  0.16104919272E+03  0.00000000000E+00 0. -1.
         22    1    3    3    0    0  0.85919992900E+02  0.44092369675E+02  0.70634171752E+02  0.11964768474E+03  0.00000000000E+00 0.  1.
         22    1    3    3    0    0 -0.20743226998E+02 -0.18974406949E+02 -0.17469226337E+02  0.33098088377E+02  0.00000000000E+00 0.  1.
</event>
<event>
 7    1  0.6358809E-006  0.5575741E+02  0.7818608E-02  0.1450187E+00
          2   -1    0    0  502    0  0.00000000000E+00  0.00000000000E+00  0.11951324885E+04  0.11951324885E+04  0.00000000000E+00 0. -1.
          1   -1    0    0  501    0 -0.00000000000E+00 -0.00000000000E+00 -0.67692268469E+02  0.67692268469E+02  0.00000000000E+00 0. -1.
         25    2    1    2    0    0  0.38053024832E+02 -0.96741663472E+01  0.12343038118E+03  0.18000490008E+03  0.12500033145E+03 0.  0.
          2    1    1    2  501    0  0.80319175509E+01  0.42507832475E+02 -0.26517241741E+02  0.50740433885E+02  0.00000000000E+00 0. -1.
          1    1    1    2  502    0 -0.46084942383E+02 -0.32833666128E+02  0.10305270806E+04  0.10320794230E+04  0.00000000000E+00 0. -1.
         22    1    3    3    0    0  0.42394350396E+02 -0.58570540765E+02  0.10517712666E+03  0.12763235155E+03  0.00000000000E+00 0. -1.
         22    1    3    3    0    0 -0.43413255634E+01  0.48896374418E+02  0.18253254520E+02  0.52372548529E+02  0.00000000000E+00 0. -1.
</event>
<event>
 7    1  0.6358809E-006  0.9399086E+02  0.7818608E-02  0.1446502E+00
          2   -1    0    0  502    0  0.00000000000E+00  0.00000000000E+00  0.90195416959E+03  0.90195416959E+03  0.00000000000E+00 0. -1.
          1   -1    0    0  501    0 -0.00000000000E+00 -0.00000000000E+00 -0.29759727586E+03  0.29759727586E+03  0.00000000000E+00 0. -1.
         25    2    1    2    0    0  0.78662730286E+02  0.87323666672E+02  0.35181547099E+03  0.39142322449E+03  0.12499906859E+03 0.  0.
          2    1    1    2  501    0 -0.69442150427E+02 -0.62617550913E+02 -0.26958279198E+03  0.28533848613E+03  0.00000000000E+00 0. -1.
          1    1    1    2  502    0 -0.92205798594E+01 -0.24706115759E+02  0.52212421472E+03  0.52278973483E+03  0.00000000000E+00 0. -1.
         22    1    3    3    0    0  0.10964080175E+02  0.23428601762E+02  0.25788367040E+03  0.25917773418E+03  0.00000000000E+00 0.  1.
         22    1    3    3    0    0  0.67698650111E+02  0.63895064909E+02  0.93931800588E+02  0.13224549031E+03  0.00000000000E+00 0.  1.
</event>
<event>
 7    1  0.6358809E-006  0.1309758E+03  0.7818608E-02  0.1415075E+00
          2   -1    0    0  502    0  0.00000000000E+00  0.00000000000E+00  0.10007013467E+04  0.10007013467E+04  0.00000000000E+00 0. -1.
          1   -1    0    0  501    0 -0.00000000000E+00 -0.00000000000E+00 -0.87109136706E+02  0.87109136706E+02  0.00000000000E+00 0. -1.
         25    2    1    2    0    0 -0.13133831381E+03  0.57412473885E+02  0.45354461733E+03  0.49180519163E+03  0.12499472698E+03 0.  0.
          2    1    1    2  501    0  0.22841132180E+02  0.73966364570E+01 -0.57995892204E+02  0.62769029487E+02  0.00000000000E+00 0. -1.
          1    1    1    2  502    0  0.10849718163E+03 -0.64809110342E+02  0.51804348483E+03  0.53323626225E+03  0.00000000000E+00 0. -1.
         22    1    3    3    0    0  0.70206283405E+01  0.30965150710E+02  0.24139229696E+02  0.39885237760E+02  0.00000000000E+00 0. -1.
         22    1    3    3    0    0 -0.13835894215E+03  0.26447323175E+02  0.42940538763E+03  0.45191995387E+03  0.00000000000E+00 0. -1.
</event>
<event>
 7    1  0.6358809E-006  0.7368274E+02  0.7818608E-02  0.1400524E+00
          2   -1    0    0  502    0  0.00000000000E+00  0.00000000000E+00  0.11712068373E+04  0.11712068373E+04  0.00000000000E+00 0. -1.
          1   -1    0    0  501    0 -0.00000000000E+00 -0.00000000000E+00 -0.11420180297E+04  0.11420180297E+04  0.00000000000E+00 0. -1.
         25    2    1    2    0    0  0.32905203892E+01 -0.10844268064E+03  0.38885615420E+02  0.17002350874E+03  0.12500103971E+03 0.  0.
          2    1    1    2  501    0 -0.27226001083E+02  0.39320728419E+02 -0.10746626243E+04  0.10757263272E+04  0.00000000000E+00 0. -1.
          1    1    1    2  502    0  0.23935480694E+02  0.69121952223E+02  0.10649658166E+04  0.10674750311E+04  0.00000000000E+00 0. -1.
         22    1    3    3    0    0  0.25794060028E+02 -0.98304269432E+02 -0.22297736948E+02  0.10404927676E+03  0.00000000000E+00 0. -1.
         22    1    3    3    0    0 -0.22503539639E+02 -0.10138411210E+02  0.61183352368E+02  0.65974231978E+02  0.00000000000E+00 0. -1.
</event>
<event>
 7    1  0.6358809E-006  0.1423102E+03  0.7818608E-02  0.1288369E+00
          2   -1    0    0  502    0  0.00000000000E+00  0.00000000000E+00  0.22791910410E+04  0.22791910410E+04  0.00000000000E+00 0. -1.
          1   -1    0    0  501    0 -0.00000000000E+00 -0.00000000000E+00 -0.27500887138E+03  0.27500887138E+03  0.00000000000E+00 0. -1.
         25    2    1    2    0    0 -0.92527533666E+02 -0.64241489990E+02  0.11425574322E+04  0.11548797838E+04  0.12498606110E+03 0.  0.
          2    1    1    2  501    0  0.69314124556E+02  0.12507057246E+03 -0.24881283218E+03  0.28697547180E+03  0.00000000000E+00 0. -1.
          1    1    1    2  502    0  0.23213409111E+02 -0.60829082467E+02  0.11104375696E+04  0.11123446568E+04  0.00000000000E+00 0. -1.
         22    1    3    3    0    0 -0.47287155506E+02 -0.65258227372E+02  0.10357653631E+04  0.10388958555E+04  0.00000000000E+00 0.  1.
         22    1    3    3    0    0 -0.45240378160E+02  0.10167373819E+01  0.10679206918E+03  0.11598392824E+03  0.00000000000E+00 0.  1.
</event>
<event>
 7    1  0.6358809E-006  0.1125678E+03  0.7818608E-02  0.1272485E+00
          2   -1    0    0  502    0  0.00000000000E+00  0.00000000000E+00  0.99165393030E+03  0.99165393030E+03  0.00000000000E+00 0. -1.
          1   -1    0    0  501    0 -0.00000000000E+00 -0.00000000000E+00 -0.86019306241E+03  0.86019306241E+03  0.00000000000E+00 0. -1.
         25    2    1    2    0    0 -0.47517537398E+02 -0.18818386286E+02  0.29663422977E+03  0.32592935336E+03  0.12500411628E+03 0.  0.
          2    1    1    2  501    0  0.42357827025E+02 -0.10429436708E+03 -0.83616376189E+03  0.84370690243E+03  0.00000000000E+00 0. -1.
          1    1    1    2  502    0  0.51597103731E+01  0.12311275337E+03  0.67099040002E+03  0.68221073692E+03  0.00000000000E+00 0. -1.
         22    1    3    3    0    0 -0.52356151256E+02  0.28555384643E+02  0.60167848179E+02  0.84715680490E+02  0.00000000000E+00 0. -1.
         22    1    3    3    0    0  0.48386138571E+01 -0.47373770929E+02  0.23646638159E+03  0.24121367287E+03  0.00000000000E+00 0. -1.
</event>
<event>
 7    1  0.6358809E-006  0.5574025E+02  0.7818608E-02  0.1458366E+00
          2   -1    0    0  502    0  0.00000000000E+00  0.00000000000E+00  0.14784771801E+04  0.14784771801E+04  0.00000000000E+00 0. -1.
          1   -1    0    0  501    0 -0.00000000000E+00 -0.00000000000E+00 -0.27631445436E+02  0.27631445436E+02  0.00000000000E+00 0. -1.
         25    2    1    2    0    0  0.83935391890E+02 -0.18369760567E+02  0.39367539174E+03  0.42188747005E+03  0.12500450076E+03 0.  0.
          2    1    1    2  501    0 -0.38865364185E+02 -0.12274072399E+02  0.19608700666E+02  0.45229089403E+02  0.00000000000E+00 0. -1.
          1    1    1    2  502    0 -0.45070027705E+02  0.30643832965E+02  0.10375616422E+04  0.10389920661E+04  0.00000000000E+00 0. -1.
         22    1    3    3    0    0  0.87031849840E+02  0.32126393686E+02  0.31476782449E+03  0.32815458459E+03  0.00000000000E+00 0.  1.
         22    1    3    3    0    0 -0.30964579503E+01 -0.50496154253E+02  0.78907567251E+02  0.93732885454E+02  0.00000000000E+00 0.  1.
</event>
<event>
 7    1  0.6358809E-006  0.1308182E+03  0.7818608E-02  0.1388984E+00
          2   -1    0    0  502    0  0.00000000000E+00  0.00000000000E+00  0.15747428898E+03  0.15747428898E+03  0.00000000000E+00 0. -1.
          1   -1    0    0  501    0 -0.00000000000E+00 -0.00000000000E+00 -0.69332159228E+03  0.69332159228E+03  0.00000000000E+00 0. -1.
         25    2    1    2    0    0  0.32009889941E+02  0.13868261366E+03 -0.63592252028E+02  0.19981641579E+03  0.12500050046E+03 0.  0.
          2    1    1    2  501    0 -0.53406892751E+02 -0.11832195403E+03 -0.55141434821E+03  0.56648933301E+03  0.00000000000E+00 0. -1.
          1    1    1    2  502    0  0.21397002810E+02 -0.20360659632E+02  0.79159296945E+02  0.84490132458E+02  0.00000000000E+00 0. -1.
         22    1    3    3    0    0 -0.40065298686E+02  0.41672667014E+02  0.94913788726E+01  0.58582639133E+02  0.00000000000E+00 0.  1.
         22    1    3    3    0    0  0.72075188627E+02  0.97009946646E+02 -0.73083630901E+02  0.14123377666E+03  0.00000000000E+00 0.  1.
</event>
<event>
 7    1  0.6358809E-006  0.3308714E+02  0.7818608E-02  0.1611387E+00
          2   -1    0    0  502    0  0.00000000000E+00  0.00000000000E+00  0.18983418045E+02  0.18983418045E+02  0.00000000000E+00 0. -1.
          1   -1    0    0  501    0 -0.00000000000E+00 -0.00000000000E+00 -0.14363674804E+04  0.14363674804E+04  0.00000000000E+00 0. -1.
         25    2    1    2    0    0 -0.40844131432E+02  0.15567442751E+02 -0.38537102237E+03  0.40748806193E+03  0.12500042954E+03 0.  0.
          2    1    1    2  501    0  0.32039934526E+02  0.79608816579E+01 -0.10190669974E+04  0.10196016273E+04  0.00000000000E+00 0. -1.
          1    1    1    2  502    0  0.88041969061E+01 -0.23528324409E+02 -0.12946042597E+02  0.28261209309E+02  0.00000000000E+00 0. -1.
         22    1    3    3    0    0 -0.33796126139E+02 -0.28956485930E+02 -0.42075106542E+02  0.61245169687E+02  0.00000000000E+00 0.  1.
         22    1    3    3    0    0 -0.70480052931E+01  0.44523928682E+02 -0.34329591583E+03  0.34624289224E+03  0.00000000000E+00 0.  1.
</event>
<event>
 7    1  0.6358809E-006  0.4529136E+02  0.7818608E-02  0.1513894E+00
          2   -1    0    0  502    0  0.00000000000E+00  0.00000000000E+00  0.18761336555E+03  0.18761336555E+03  0.00000000000E+00 0. -1.
          1   -1    0    0  501    0 -0.00000000000E+00 -0.00000000000E+00 -0.36618336860E+03  0.36618336860E+03  0.00000000000E+00 0. -1.
         25    2    1    2    0    0  0.15906032834E+02  0.73053114941E+02  0.34000148224E+02  0.14956732772E+03  0.12499846382E+03 0.  0.
          2    1    1    2  501    0 -0.21211488836E+02 -0.39475643416E+02 -0.30368811891E+03  0.30697675360E+03  0.00000000000E+00 0. -1.
          1    1    1    2  502    0  0.53054560020E+01 -0.33577471525E+02  0.91117967633E+02  0.97252652832E+02  0.00000000000E+00 0. -1.
         22    1    3    3    0    0 -0.15237007992E+01  0.80762082191E+01  0.71889145112E+02  0.72357418336E+02  0.00000000000E+00 0.  1.
         22    1    3    3    0    0  0.17429733634E+02  0.64976906722E+02 -0.37888996888E+02  0.77209909383E+02  0.00000000000E+00 0.  1.
</event>
<event>
 7    1  0.6358809E-006  0.6647964E+02  0.7818608E-02  0.1431401E+00
          2   -1    0    0  502    0  0.00000000000E+00  0.00000000000E+00  0.83547447598E+02  0.83547447598E+02  0.00000000000E+00 0. -1.
          1   -1    0    0  501    0 -0.00000000000E+00 -0.00000000000E+00 -0.35478106797E+03  0.35478106797E+03  0.00000000000E+00 0. -1.
         25    2    1    2    0    0  0.39314684486E+02 -0.49510945261E+02 -0.35146005856E+02  0.14442712217E+03  0.12500789485E+03 0.  0.
          2    1    1    2  501    0  0.30223399170E+02  0.28794906182E+02 -0.21403224177E+03  0.21806513017E+03  0.00000000000E+00 0. -1.
          1    1    1    2  502    0 -0.69538083655E+02  0.20716039079E+02 -0.22055372749E+02  0.75836263230E+02  0.00000000000E+00 0. -1.
         22    1    3    3    0    0 -0.35660046692E+02  0.30906805094E+01  0.16355138675E+02  0.39353294616E+02  0.00000000000E+00 0.  1.
         22    1    3    3    0    0  0.74974731178E+02 -0.52601625770E+02 -0.51501144532E+02  0.10507382755E+03  0.00000000000E+00 0.  1.
</event>
<event>
 7    1  0.6358809E-006  0.9918274E+02  0.7818608E-02  0.1290859E+00
          2   -1    0    0  502    0  0.00000000000E+00  0.00000000000E+00  0.24872869995E+03  0.24872869995E+03  0.00000000000E+00 0. -1.
          1   -1    0    0  501    0 -0.00000000000E+00 -0.00000000000E+00 -0.35079698169E+03  0.35079698169E+03  0.00000000000E+00 0. -1.
         25    2    1    2    0    0  0.12476633693E+03 -0.12894555209E+03 -0.73386060360E+02  0.23066045038E+03  0.12500054113E+03 0.  0.
          2    1    1    2  501    0 -0.76073026655E+02  0.50417638312E+02 -0.17410262885E+03  0.19657255406E+03  0.00000000000E+00 0. -1.
          1    1    1    2  502    0 -0.48693310271E+02  0.78527913778E+02  0.14542040747E+03  0.17229267720E+03  0.00000000000E+00 0. -1.
         22    1    3    3    0    0  0.81517710366E+01 -0.66996866027E+02  0.18270078897E+02  0.69920148822E+02  0.00000000000E+00 0. -1.
         22    1    3    3    0    0  0.11661456589E+03 -0.61948686064E+02 -0.91656139257E+02  0.16074030156E+03  0.00000000000E+00 0. -1.
</event>
<event>
 7    1  0.6358809E-006  0.1108316E+03  0.7818608E-02  0.1455919E+00
          2   -1    0    0  502    0  0.00000000000E+00  0.00000000000E+00  0.27779254637E+03  0.27779254637E+03  0.00000000000E+00 0. -1.
          1   -1    0    0  501    0 -0.00000000000E+00 -0.00000000000E+00 -0.46066953552E+03  0.46066953552E+03  0.00000000000E+00 0. -1.
         25    2    1    2    0    0 -0.93810713152E+02  0.38714993186E+01 -0.68303854642E+02  0.17060801187E+03  0.12500495489E+03 0.  0.
          2    1    1    2  501    0  0.11350149675E+03 -0.10778747474E+02 -0.33117424235E+03  0.35025012485E+03  0.00000000000E+00 0. -1.
          1    1    1    2  502    0 -0.19690783598E+02  0.69072481556E+01  0.21660110784E+03  0.21760394517E+03  0.00000000000E+00 0. -1.
         22    1    3    3    0    0 -0.80667007791E+02 -0.51544391301E+02 -0.60192039212E+02  0.11307993635E+03  0.00000000000E+00 0.  1.
         22    1    3    3    0    0 -0.13143705361E+02  0.55415890620E+02 -0.81118154298E+01  0.57528075523E+02  0.00000000000E+00 0.  1.
</event>
<event>
 7    1  0.6358809E-006  0.8503411E+02  0.7818608E-02  0.1435005E+00
          2   -1    0    0  502    0  0.00000000000E+00  0.00000000000E+00  0.11783295262E+04  0.11783295262E+04  0.00000000000E+00 0. -1.
          1   -1    0    0  501    0 -0.00000000000E+00 -0.00000000000E+00 -0.18092794992E+04  0.18092794992E+04  0.00000000000E+00 0. -1.
         25    2    1    2    0    0 -0.28043114000E+02  0.11038731895E+03  0.20180561367E+02  0.17030880906E+03  0.12500423576E+03 0.  0.
          2    1    1    2  501    0 -0.24456424212E+01 -0.31666017028E+02 -0.17324246229E+04  0.17327157274E+04  0.00000000000E+00 0. -1.
          1    1    1    2  502    0  0.30488756421E+02 -0.78721301926E+02  0.10812940885E+04  0.10845844889E+04  0.00000000000E+00 0. -1.
         22    1    3    3    0    0 -0.74808910761E+01  0.10356910015E+03  0.63612030337E+02  0.12177443345E+03  0.00000000000E+00 0.  1.
         22    1    3    3    0    0 -0.20562222923E+02  0.68182188024E+01 -0.43431468970E+02  0.48534375612E+02  0.00000000000E+00 0.  1.
</event>
<event>
 7    1  0.6358809E-006  0.7244642E+02  0.7818608E-02  0.1443637E+00
          2   -1    0    0  502    0  0.00000000000E+00  0.00000000000E+00  0.21064161644E+03  0.21064161644E+03  0.00000000000E+00 0. -1.
          1   -1    0    0  501    0 -0.00000000000E+00 -0.00000000000E+00 -0.24061509051E+04  0.24061509051E+04  0.00000000000E+00 0. -1.
         25    2    1    2    0    0 -0.79032520714E+02 -0.60798273355E+00 -0.51126170093E+03  0.53222192009E+03  0.12500054568E+03 0.  0.
          2    1    1    2  501    0  0.64808040925E+02  0.32529946870E+02 -0.18821801321E+04  0.18835764729E+04  0.00000000000E+00 0. -1.
          1    1    1    2  502    0  0.14224479789E+02 -0.31921964136E+02  0.19793254433E+03  0.20099412858E+03  0.00000000000E+00 0. -1.
         22    1    3    3    0    0 -0.19328968944E+02  0.18210330487E+02 -0.12156312055E+02  0.29206182559E+02  0.00000000000E+00 0.  1.
         22    1    3    3    0    0 -0.59703551771E+02 -0.18818313221E+02 -0.49910538887E+03  0.50301573753E+03  0.00000000000E+00 0.  1.
</event>
<event>
 7    1  0.6358809E-006  0.1808977E+03  0.7818608E-02  0.1193811E+00
          2   -1    0    0  502    0  0.00000000000E+00  0.00000000000E+00  0.70459077985E+03  0.70459077985E+03  0.00000000000E+00 0. -1.
          1   -1    0    0  501    0 -0.00000000000E+00 -0.00000000000E+00 -0.21731972554E+04  0.21731972554E+04  0.00000000000E+00 0. -1.
         25    2    1    2    0    0  0.17069397774E+03 -0.34876933221E+02  0.32087452748E+03  0.38592178488E+03  0.12498930814E+03 0.  0.
          2    1    1    2  501    0 -0.15296487839E+03 -0.97701241603E+02 -0.21239249477E+04  0.21316662426E+04  0.00000000000E+00 0. -1.
          1    1    1    2  502    0 -0.17729099351E+02  0.13257817482E+03  0.33444394469E+03  0.36020000769E+03  0.00000000000E+00 0. -1.
         22    1    3    3    0    0  0.13049908635E+03 -0.31842777223E+02  0.11711402563E+03  0.17821242661E+03  0.00000000000E+00 0. -1.
         22    1    3    3    0    0  0.40194891390E+02 -0.30341559985E+01  0.20376050185E+03  0.20770935826E+03  0.00000000000E+00 0. -1.
</event>
<event>
 7    1  0.6358809E-006  0.8185571E+02  0.7818608E-02  0.1391177E+00
          2   -1    0    0  502    0  0.00000000000E+00  0.00000000000E+00  0.23841669858E+04  0.23841669858E+04  0.00000000000E+00 0. -1.
          1   -1    0    0  501    0 -0.00000000000E+00 -0.00000000000E+00 -0.45294227118E+02  0.45294227118E+02  0.00000000000E+00 0. -1.
         25    2    1    2    0    0  0.93199557036E+01 -0.11266796465E+03  0.53451985239E+03  0.56046184128E+03  0.12500028439E+03 0.  0.
          2    1    1    2  501    0 -0.32617595276E+02  0.72565160518E+02  0.17393211908E+02  0.81437914162E+02  0.00000000000E+00 0. -1.
          1    1    1    2  502    0  0.23297639573E+02  0.40102804137E+02  0.17869596944E+04  0.17875614574E+04  0.00000000000E+00 0. -1.
         22    1    3    3    0    0 -0.45504841132E+02 -0.10232302136E+03  0.33084715060E+03  0.34928574023E+03  0.00000000000E+00 0.  1.
         22    1    3    3    0    0  0.54824796836E+02 -0.10344943291E+02  0.20367270178E+03  0.21117610104E+03  0.00000000000E+00 0.  1.
</event>
<event>
 7    1  0.6358809E-006  0.1176570E+03  0.7818608E-02  0.1280235E+00
          2   -1    0    0  502    0  0.00000000000E+00  0.00000000000E+00  0.12960765218E+04  0.12960765218E+04  0.00000000000E+00 0. -1.
          1   -1    0    0  501    0 -0.00000000000E+00 -0.00000000000E+00 -0.51262498987E+03  0.51262498987E+03  0.00000000000E+00 0. -1.
         25    2    1    2    0    0 -0.96787051297E+01 -0.10650684577E+03  0.17729031387E+03  0.24185893920E+03  0.12500602207E+03 0.  0.
          2    1    1    2  501    0 -0.74290094127E+02  0.93037143973E+02 -0.47126179685E+03  0.48606852338E+03  0.00000000000E+00 0. -1.
          1    1    1    2  502    0  0.83968799257E+02  0.13469701795E+02  0.10774230149E+04  0.10807740491E+04  0.00000000000E+00 0. -1.
         22    1    3    3    0    0  0.76131797343E+00 -0.93171253308E+02  0.36523730960E+02  0.10007719506E+03  0.00000000000E+00 0.  1.
         22    1    3    3    0    0 -0.10440023103E+02 -0.13335592460E+02  0.14076658291E+03  0.14178174414E+03  0.00000000000E+00 0.  1.
</event>
<event>
 7    1  0.6358809E-006  0.5349711E+02  0.7818608E-02  0.1484703E+00
          2   -1    0    0  502    0  0.00000000000E+00  0.00000000000E+00  0.13461981798E+04  0.13461981798E+04  0.00000000000E+00 0. -1.
          1   -1    0    0  501    0 -0.00000000000E+00 -0.00000000000E+00 -0.79491331304E+02  0.79491331304E+02  0.00000000000E+00 0. -1.
         25    2    1    2    0    0  0.67061320678E+02  0.46443522909E+02  0.77799447300E+03  0.79218338356E+03  0.12499956647E+03 0.  0.
          2    1    1    2  501    0 -0.21186518756E+02 -0.28084096149E+02 -0.66961243799E+02  0.75639891622E+02  0.00000000000E+00 0. -1.
          1    1    1    2  502    0 -0.45874801922E+02 -0.18359426760E+02  0.55567361926E+03  0.55786623589E+03  0.00000000000E+00 0. -1.
         22    1    3    3    0    0 -0.12279758358E+02  0.39553970685E+02  0.84217470764E+02  0.93850367310E+02  0.00000000000E+00 0.  1.
         22    1    3    3    0    0  0.79341079036E+02  0.68895522236E+01  0.69377700223E+03  0.69833301625E+03  0.00000000000E+00 0.  1.
</event>
<event>
 7    1  0.6358809E-006  0.5982341E+02  0.7818608E-02  0.1507247E+00
          2   -1    0    0  502    0  0.00000000000E+00  0.00000000000E+00  0.22789157468E+03  0.22789157468E+03  0.00000000000E+00 0. -1.
          1   -1    0    0  501    0 -0.00000000000E+00 -0.00000000000E+00 -0.48818521976E+03  0.48818521976E+03  0.00000000000E+00 0. -1.
         25    2    1    2    0    0  0.24087979081E+02  0.25966151614E+02  0.12635092779E+03  0.18122652106E+03  0.12499609280E+03 0.  0.
          2    1    1    2  501    0 -0.29723741940E+02 -0.52291061813E+02 -0.45626159068E+03  0.46020918625E+03  0.00000000000E+00 0. -1.
          1    1    1    2  502    0  0.56357628587E+01  0.26324910199E+02  0.69617017801E+02  0.74641087127E+02  0.00000000000E+00 0. -1.
         22    1    3    3    0    0  0.12646298617E+01  0.55935739694E+02  0.73807508068E+01  0.56434756545E+02  0.00000000000E+00 0. -1.
         22    1    3    3    0    0  0.22823349219E+02 -0.29969588079E+02  0.11897017699E+03  0.12479176452E+03  0.00000000000E+00 0. -1.
</event>
<event>
 7    1  0.6358809E-006  0.4616354E+02  0.7818608E-02  0.1523812E+00
          2   -1    0    0  502    0  0.00000000000E+00  0.00000000000E+00  0.93982123858E+03  0.93982123858E+03  0.00000000000E+00 0. -1.
          1   -1    0    0  501    0 -0.00000000000E+00 -0.00000000000E+00 -0.77167362265E+03  0.77167362265E+03  0.00000000000E+00 0. -1.
         25    2    1    2    0    0 -0.14175787775E+02  0.53702608436E+02  0.45066492059E+02  0.14401299618E+03  0.12499532491E+03 0.  0.
          2    1    1    2  501    0  0.34826339675E+02 -0.30303417318E+02 -0.72117402877E+03  0.72265008878E+03  0.00000000000E+00 0. -1.
          1    1    1    2  502    0 -0.20650551901E+02 -0.23399191118E+02  0.84425515264E+03  0.84483177628E+03  0.00000000000E+00 0. -1.
         22    1    3    3    0    0  0.40611633883E+02  0.68216297181E+02  0.33494878040E+02  0.86166553039E+02  0.00000000000E+00 0.  1.
         22    1    3    3    0    0 -0.54787421658E+02 -0.14513688745E+02  0.11571614019E+02  0.57846443139E+02  0.00000000000E+00 0.  1.
</event>
<event>
 7    1  0.6358809E-006  0.2513161E+03  0.7818608E-02  0.1251846E+00
          2   -1    0    0  502    0  0.00000000000E+00  0.00000000000E+00  0.28100991455E+04  0.28100991455E+04  0.00000000000E+00 0. -1.
          1   -1    0    0  501    0 -0.00000000000E+00 -0.00000000000E+00 -0.15265201528E+03  0.15265201528E+03  0.00000000000E+00 0. -1.
         25    2    1    2    0    0 -0.26152004354E+03  0.81069225367E+02  0.11816994993E+04  0.12194274992E+04  0.12499906676E+03 0.  0.
          2    1    1    2  501    0  0.24764637369E+03 -0.30451714749E+02 -0.16590828184E+02  0.25006256999E+03  0.00000000000E+00 0. -1.
          1    1    1    2  502    0  0.13873669856E+02 -0.50617510619E+02  0.14923384591E+04  0.14932610916E+04  0.00000000000E+00 0. -1.
         22    1    3    3    0    0 -0.20584069859E+03  0.16668513580E+02  0.68387439981E+03  0.71437555057E+03  0.00000000000E+00 0. -1.
         22    1    3    3    0    0 -0.55679344953E+02  0.64400711788E+02  0.49782509949E+03  0.50505194863E+03  0.00000000000E+00 0. -1.
</event>
<event>
 7    1  0.6358809E-006  0.8199432E+02  0.7818608E-02  0.1389886E+00
          2   -1    0    0  502    0  0.00000000000E+00  0.00000000000E+00  0.32854603153E+03  0.32854603153E+03  0.00000000000E+00 0. -1.
          1   -1    0    0  501    0 -0.00000000000E+00 -0.00000000000E+00 -0.14104745263E+03  0.14104745263E+03  0.00000000000E+00 0. -1.
         25    2    1    2    0    0  0.10668670807E+03 -0.51236747864E+02  0.12309726058E+03  0.21162434344E+03  0.12499867665E+03 0.  0.
          2    1    1    2  501    0 -0.59903802441E+02  0.51066089042E+02 -0.76341195903E+02  0.10965486395E+03  0.00000000000E+00 0. -1.
          1    1    1    2  502    0 -0.46782905627E+02  0.17065882162E+00  0.14074251422E+03  0.14831427677E+03  0.00000000000E+00 0. -1.
         22    1    3    3    0    0  0.71991786907E+02 -0.12766864979E+02 -0.51632128849E+01  0.73297128121E+02  0.00000000000E+00 0. -1.
         22    1    3    3    0    0  0.34694921161E+02 -0.38469882885E+02  0.12826047347E+03  0.13832721532E+03  0.00000000000E+00 0. -1.
</event>
<event>
 7    1  0.6358809E-006  0.7884369E+02  0.7818608E-02  0.1374786E+00
          2   -1    0    0  502    0  0.00000000000E+00  0.00000000000E+00  0.57332799899E+03  0.57332799899E+03  0.00000000000E+00 0. -1.
          1   -1    0    0  501    0 -0.00000000000E+00 -0.00000000000E+00 -0.57564869230E+03  0.57564869230E+03  0.00000000000E+00 0. -1.
         25    2    1    2    0    0 -0.10036961123E+03  0.49895985121E+02 -0.13501937714E+03  0.21544928495E+03  0.12499797596E+03 0.  0.
          2    1    1    2  501    0  0.76734576156E+02 -0.22737045840E+00 -0.39529613351E+03  0.40267515449E+03  0.00000000000E+00 0. -1.
          1    1    1    2  502    0  0.23635035078E+02 -0.49668614663E+02  0.52799481733E+03  0.53085225185E+03  0.00000000000E+00 0. -1.
         22    1    3    3    0    0 -0.24619900581E+01 -0.64144763167E+01 -0.95563376603E+02  0.95810050878E+02  0.00000000000E+00 0.  1.
         22    1    3    3    0    0 -0.97907621176E+02  0.56310461438E+02 -0.39456000538E+02  0.11963923408E+03  0.00000000000E+00 0.  1.
</event>
<event>
 7    1  0.6358809E-006  0.1755074E+03  0.7818608E-02  0.1276534E+00
          2   -1    0    0  502    0  0.00000000000E+00  0.00000000000E+00  0.11596650691E+04  0.11596650691E+04  0.00000000000E+00 0. -1.
          1   -1    0    0  501    0 -0.00000000000E+00 -0.00000000000E+00 -0.61262744450E+03  0.61262744450E+03  0.00000000000E+00 0. -1.
         25    2    1    2    0    0 -0.19706178131E+02  0.14119091222E+03 -0.21617226054E+03  0.28753701364E+03  0.12499552325E+03 0.  0.
          2    1    1    2  501    0  0.25018301860E+02 -0.20001105852E+03 -0.33175969503E+03  0.38819432531E+03  0.00000000000E+00 0. -1.
          1    1    1    2  502    0 -0.53121237292E+01  0.58820146295E+02  0.10949695801E+04  0.10965611746E+04  0.00000000000E+00 0. -1.
         22    1    3    3    0    0  0.19955693627E+02  0.14726935245E+02  0.88919134883E+01  0.26347266563E+02  0.00000000000E+00 0. -1.
         22    1    3    3    0    0 -0.39661871758E+02  0.12646397698E+03 -0.22506417403E+03  0.26118974708E+03  0.00000000000E+00 0. -1.
</event>
<event>
 7    1  0.6358809E-006  0.4267030E+02  0.7818608E-02  0.1586313E+00
          2   -1    0    0  502    0  0.00000000000E+00  0.00000000000E+00  0.11298691882E+03  0.11298691882E+03  0.00000000000E+00 0. -1.
          1   -1    0    0  501    0 -0.00000000000E+00 -0.00000000000E+00 -0.16189771989E+03  0.16189771989E+03  0.00000000000E+00 0. -1.
         25    2    1    2    0    0 -0.19192163281E+02  0.18063946566E+02  0.10013127911E+02  0.12812135651E+03  0.12498069438E+03 0.  0.
          2    1    1    2  501    0  0.16883718191E+02 -0.40602699941E+02 -0.94702931130E+02  0.10441400455E+03  0.00000000000E+00 0. -1.
          1    1    1    2  502    0  0.23084450903E+01  0.22538753375E+02  0.35779002145E+02  0.42349277644E+02  0.00000000000E+00 0. -1.
         22    1    3    3    0    0 -0.21206195365E+02  0.42048438601E+02  0.57835477110E+02  0.74583619671E+02  0.00000000000E+00 0.  1.
         22    1    3    3    0    0  0.20140320839E+01 -0.23984492034E+02 -0.47822349199E+02  0.53537736844E+02  0.00000000000E+00 0.  1.
</event>
<event>
 7    1  0.6358809E-006  0.5834193E+02  0.7818608E-02  0.1464243E+00
          2   -1    0    0  502    0  0.00000000000E+00  0.00000000000E+00  0.63170615571E+03  0.63170615571E+03  0.00000000000E+00 0. -1.
          1   -1    0    0  501    0 -0.00000000000E+00 -0.00000000000E+00 -0.24726914778E+04  0.24726914778E+04  0.00000000000E+00 0. -1.
         25    2    1    2    0    0  0.62076621349E+01 -0.83375265676E+02 -0.19873713683E+03  0.24922102919E+03  0.12499880734E+03 0.  0.
          2    1    1    2  501    0  0.20105236333E+02  0.31436185409E+02 -0.22471596762E+04  0.22474694803E+04  0.00000000000E+00 0. -1.
          1    1    1    2  502    0 -0.26312898468E+02  0.51939080268E+02  0.60491149098E+03  0.60770712404E+03  0.00000000000E+00 0. -1.
         22    1    3    3    0    0  0.52282011071E+02 -0.82353410292E+02 -0.16652949437E+03  0.19299628329E+03  0.00000000000E+00 0.  1.
         22    1    3    3    0    0 -0.46074348936E+02 -0.10218553842E+01 -0.32207642460E+02  0.56224745897E+02  0.00000000000E+00 0.  1.
</event>
<event>
 7    1  0.6358809E-006  0.1016955E+03  0.7818608E-02  0.1298895E+00
          2   -1    0    0  502    0  0.00000000000E+00  0.00000000000E+00  0.22218730661E+03  0.22218730661E+03  0.00000000000E+00 0. -1.
          1   -1    0    0  501    0 -0.00000000000E+00 -0.00000000000E+00 -0.59134030052E+03  0.59134030052E+03  0.00000000000E+00 0. -1.
         25    2    1    2    0    0 -0.61727779682E+02 -0.13299925442E+03 -0.38912278778E+02  0.19656710256E+03  0.12500135962E+03 0.  0.
          2    1    1    2  501    0 -0.20581186959E+02  0.79998591788E+02 -0.45270309266E+03  0.46017762880E+03  0.00000000000E+00 0. -1.
          1    1    1    2  502    0  0.82308966641E+02  0.53000662633E+02  0.12246237752E+03  0.15678287578E+03  0.00000000000E+00 0. -1.
         22    1    3    3    0    0 -0.63343278536E+02 -0.60942938738E+02 -0.75376984807E+02  0.11579336145E+03  0.00000000000E+00 0.  1.
         22    1    3    3    0    0  0.16154988536E+01 -0.72056315683E+02  0.36464706029E+02  0.80773741106E+02  0.00000000000E+00 0.  1.
</event>
<event>
 7    1  0.6358809E-006  0.6490798E+02  0.7818608E-02  0.1393398E+00
          2   -1    0    0  502    0  0.00000000000E+00  0.00000000000E+00  0.12256594566E+03  0.12256594566E+03  0.00000000000E+00 0. -1.
          1   -1    0    0  501    0 -0.00000000000E+00 -0.00000000000E+00 -0.16571408093E+03  0.16571408093E+03  0.00000000000E+00 0. -1.
         25    2    1    2    0    0 -0.33596997909E+01  0.49530724990E+02 -0.21670701368E+02  0.13623262924E+03  0.12500051868E+03 0.  0.
          2    1    1    2  501    0  0.63026430203E+02 -0.23978296282E+02 -0.47112004265E+02  0.82260747277E+02  0.00000000000E+00 0. -1.
          1    1    1    2  502    0 -0.59666730412E+02 -0.25552428708E+02  0.25634570365E+02  0.69786650075E+02  0.00000000000E+00 0. -1.
         22    1    3    3    0    0 -0.36219809126E+02  0.68674096957E+02  0.19636701247E+02  0.80084993612E+02  0.00000000000E+00 0.  1.
         22    1    3    3    0    0  0.32860109336E+02 -0.19143371967E+02 -0.41307402615E+02  0.56147635628E+02  0.00000000000E+00 0.  1.
</event>
<event>
 7    1  0.6358809E-006  0.3937825E+02  0.7818608E-02  0.1568803E+00
          2   -1    0    0  502    0  0.00000000000E+00  0.00000000000E+00  0.89573109408E+03  0.89573109408E+03  0.00000000000E+00 0. -1.
          1   -1    0    0  501    0 -0.00000000000E+00 -0.00000000000E+00 -0.20324420625E+03  0.20324420625E+03  0.00000000000E+00 0. -1.
         25    2    1    2    0    0 -0.11989115491E+02  0.20387670982E+02  0.63278317243E+03  0.64544533301E+03  0.12500295430E+03 0.  0.
          2    1    1    2  501    0 -0.85052942799E+01 -0.38518800235E+02 -0.19419505182E+03  0.19816093498E+03  0.00000000000E+00 0. -1.
          1    1    1    2  502    0  0.20494409771E+02  0.18131129253E+02  0.25389876722E+03  0.25536903233E+03  0.00000000000E+00 0. -1.
         22    1    3    3    0    0 -0.34398041216E+01 -0.26343120695E+02  0.27270536950E+02  0.38071964040E+02  0.00000000000E+00 0.  1.
         22    1    3    3    0    0 -0.85493113694E+01  0.46730791677E+02  0.60551263548E+03  0.60737336897E+03  0.00000000000E+00 0.  1.
</event>
<event>
 7    1  0.6358809E-006  0.5864017E+02  0.7818608E-02  0.1450273E+00
          2   -1    0    0  502    0  0.00000000000E+00  0.00000000000E+00  0.21132877860E+04  0.21132877860E+04  0.00000000000E+00 0. -1.
          1   -1    0    0  501    0 -0.00000000000E+00 -0.00000000000E+00 -0.12444379969E+04  0.12444379969E+04  0.00000000000E+00 0. -1.
         25    2    1    2    0    0  0.73620634934E+02  0.63841639456E+02  0.41471084199E+03  0.44396758437E+03  0.12500552263E+03 0.  0.
          2    1    1    2  501    0 -0.50335106961E+02 -0.29965724571E+02 -0.12288609305E+04  0.12302563774E+04  0.00000000000E+00 0. -1.
          1    1    1    2  502    0 -0.23285527974E+02 -0.33875914885E+02  0.16829998777E+04  0.16835018211E+04  0.00000000000E+00 0. -1.
         22    1    3    3    0    0  0.52824246497E+02  0.40497839056E+01  0.34796626702E+03  0.35197631277E+03  0.00000000000E+00 0.  1.
         22    1    3    3    0    0  0.20796388438E+02  0.59791855551E+02  0.66744574977E+02  0.91991271603E+02  0.00000000000E+00 0.  1.
</event>
<event>
 7    1  0.6358809E-006  0.2165674E+03  0.7818608E-02  0.1201715E+00
          2   -1    0    0  502    0  0.00000000000E+00  0.00000000000E+00  0.48508279371E+03  0.48508279371E+03  0.00000000000E+00 0. -1.
          1   -1    0    0  501    0 -0.00000000000E+00 -0.00000000000E+00 -0.14225163107E+04  0.14225163107E+04  0.00000000000E+00 0. -1.
         25    2    1    2    0    0 -0.14331735523E+02  0.23936114906E+03  0.83637497820E+02  0.28305374131E+03  0.12500012443E+03 0.  0.
          2    1    1    2  501    0 -0.80685430813E+02 -0.20090590173E+03 -0.13049183800E+04  0.13227567042E+04  0.00000000000E+00 0. -1.
          1    1    1    2  502    0  0.95017166336E+02 -0.38455247330E+02  0.28384736515E+03  0.30178865891E+03  0.00000000000E+00 0. -1.
         22    1    3    3    0    0 -0.18390688676E+02 -0.10873861252E+01 -0.14372122241E+02  0.23365738513E+02  0.00000000000E+00 0.  1.
         22    1    3    3    0    0  0.40589531536E+01  0.24044853518E+03  0.98009620061E+02  0.25968800280E+03  0.00000000000E+00 0.  1.
</event>
<event>
 7    1  0.6358809E-006  0.6476239E+02  0.7818608E-02  0.1435471E+00
          2   -1    0    0  502    0  0.00000000000E+00  0.00000000000E+00  0.62594418976E+02  0.62594418976E+02  0.00000000000E+00 0. -1.
          1   -1    0    0  501    0 -0.00000000000E+00 -0.00000000000E+00 -0.13029978465E+04  0.13029978465E+04  0.00000000000E+00 0. -1.
         25    2    1    2    0    0  0.26412320058E+02 -0.23341066307E+02 -0.41372325677E+03  0.43363014857E+03  0.12500302609E+03 0.  0.
          2    1    1    2  501    0 -0.24653263280E+02  0.64859817413E+02 -0.86951662731E+03  0.87228077159E+03  0.00000000000E+00 0. -1.
          1    1    1    2  502    0 -0.17590567784E+01 -0.41518751107E+02  0.42836456530E+02  0.59681345346E+02  0.00000000000E+00 0. -1.
         22    1    3    3    0    0  0.34680324960E+02  0.28135576542E+02 -0.53661187380E+02  0.69813026276E+02  0.00000000000E+00 0. -1.
         22    1    3    3    0    0 -0.82680049019E+01 -0.51476642849E+02 -0.36006206939E+03  0.36381712230E+03  0.00000000000E+00 0. -1.
</event>
<event>
 7    1  0.6358809E-006  0.1641778E+03  0.7818608E-02  0.1314013E+00
          2   -1    0    0  502    0  0.00000000000E+00  0.00000000000E+00  0.41390016285E+03  0.41390016285E+03  0.00000000000E+00 0. -1.
          1   -1    0    0  501    0 -0.00000000000E+00 -0.00000000000E+00 -0.44448491185E+03  0.44448491185E+03  0.00000000000E+00 0. -1.
         25    2    1    2    0    0  0.13266403203E+03  0.36773932066E+02  0.10136461066E+03  0.21178589255E+03  0.12500564993E+03 0.  0.
          2    1    1    2  501    0 -0.14800574043E+03 -0.78624063912E+02 -0.36906259644E+03  0.40533275554E+03  0.00000000000E+00 0. -1.
          1    1    1    2  502    0  0.15341708390E+02  0.41850131846E+02  0.23711323678E+03  0.24126642661E+03  0.00000000000E+00 0. -1.
         22    1    3    3    0    0  0.83580263152E+02  0.46329285371E+02  0.12428638470E+03  0.15677744893E+03  0.00000000000E+00 0. -1.
         22    1    3    3    0    0  0.49083768883E+02 -0.95553533058E+01 -0.22921774037E+02  0.55008443620E+02  0.00000000000E+00 0. -1.
</event>
<event>
 7    1  0.6358809E-006  0.1060512E+03  0.7818608E-02  0.1411773E+00
          2   -1    0    0  502    0  0.00000000000E+00  0.00000000000E+00  0.31616544092E+03  0.31616544092E+03  0.00000000000E+00 0. -1.
          1   -1    0    0  501    0 -0.00000000000E+00 -0.00000000000E+00 -0.10729193313E+04  0.10729193313E+04  0.00000000000E+00 0. -1.
         25    2    1    2    0    0 -0.83092491614E+02  0.69548151468E+02 -0.52903225696E+03  0.55429597980E+03  0.12501038670E+03 0.  0.
          2    1    1    2  501    0  0.97411326134E+02 -0.42706897883E+02 -0.52514790202E+03  0.53581075444E+03  0.00000000000E+00 0. -1.
          1    1    1    2  502    0 -0.14318834520E+02 -0.26841253585E+02  0.29742626862E+03  0.29897803795E+03  0.00000000000E+00 0. -1.
         22    1    3    3    0    0  0.32796270468E+02  0.22760536178E+02 -0.14811520828E+03  0.15340062675E+03  0.00000000000E+00 0.  1.
         22    1    3    3    0    0 -0.11588876208E+03  0.46787615290E+02 -0.38091704867E+03  0.40089535304E+03  0.00000000000E+00 0.  1.
</event>
<event>
 7    1  0.6358809E-006  0.5008612E+02  0.7818608E-02  0.1480567E+00
          2   -1    0    0  502    0  0.00000000000E+00  0.00000000000E+00  0.24940359057E+03  0.24940359057E+03  0.00000000000E+00 0. -1.
          1   -1    0    0  501    0 -0.00000000000E+00 -0.00000000000E+00 -0.70050629479E+03  0.70050629479E+03  0.00000000000E+00 0. -1.
         25    2    1    2    0    0 -0.60205891613E+01 -0.38261811419E+02 -0.98345656964E+02  0.16369879212E+03  0.12500085036E+03 0.  0.
          2    1    1    2  501    0 -0.32655512318E+02  0.39090229364E+02 -0.56660622172E+03  0.56889106075E+03  0.00000000000E+00 0. -1.
          1    1    1    2  502    0  0.38676101479E+02 -0.82841794500E+00  0.21384917446E+03  0.21732003248E+03  0.00000000000E+00 0. -1.
         22    1    3    3    0    0 -0.49020357551E+02  0.15894667879E+02 -0.11705379836E+02  0.52845547007E+02  0.00000000000E+00 0.  1.
         22    1    3    3    0    0  0.42999768390E+02 -0.54156479298E+02 -0.86640277128E+02  0.11085324511E+03  0.00000000000E+00 0.  1.
</event>
<event>
 7    1  0.6358809E-006  0.5052049E+02  0.7818608E-02  0.1494789E+00
          2   -1    0    0  502    0  0.00000000000E+00  0.00000000000E+00  0.24901782825E+04  0.24901782825E+04  0.00000000000E+00 0. -1.
          1   -1    0    0  501    0 -0.00000000000E+00 -0.00000000000E+00 -0.14265721687E+02  0.14265721687E+02  0.00000000000E+00 0. -1.
         25    2    1    2    0    0 -0.21633068696E+02  0.32133247539E+02  0.61820528786E+03  0.63190299170E+03  0.12499231068E+03 0.  0.
          2    1    1    2  501    0 -0.58153261955E+01 -0.53401068678E+02  0.92306576492E+02  0.10679885869E+03  0.00000000000E+00 0. -1.
          1    1    1    2  502    0  0.27448394892E+02  0.21267821139E+02  0.17654006964E+04  0.17657421538E+04  0.00000000000E+00 0. -1.
         22    1    3    3    0    0 -0.63741991544E+02 -0.12115643994E+02  0.40328184175E+03  0.40846795982E+03  0.00000000000E+00 0. -1.
         22    1    3    3    0    0  0.42108922847E+02  0.44248891533E+02  0.21492344610E+03  0.22343503188E+03  0.00000000000E+00 0. -1.
</event>
<event>
 7    1  0.6358809E-006  0.8695302E+02  0.7818608E-02  0.1433549E+00
          2   -1    0    0  502    0  0.00000000000E+00  0.00000000000E+00  0.26614617222E+03  0.26614617222E+03  0.00000000000E+00 0. -1.
          1   -1    0    0  501    0 -0.00000000000E+00 -0.00000000000E+00 -0.78966513306E+02  0.78966513306E+02  0.00000000000E+00 0. -1.
         25    2    1    2    0    0 -0.44241811112E+02  0.52745374336E+02  0.85638461677E+02  0.16643235493E+03  0.12500548102E+03 0.  0.
          2    1    1    2  501    0  0.74091162566E+02 -0.62497374222E+02  0.31496713209E+02  0.10191891433E+03  0.00000000000E+00 0. -1.
          1    1    1    2  502    0 -0.29849351455E+02  0.97519998854E+01  0.70044484033E+02  0.76761416268E+02  0.00000000000E+00 0. -1.
         22    1    3    3    0    0 -0.33329439163E+02 -0.34783959248E+02  0.78198452795E+01  0.48804972248E+02  0.00000000000E+00 0.  1.
         22    1    3    3    0    0 -0.10912371948E+02  0.87529333585E+02  0.77818616397E+02  0.11762738268E+03  0.00000000000E+00 0.  1.
</event>
<event>
 7    1  0.6358809E-006  0.1295959E+03  0.7818608E-02  0.1402937E+00
          2   -1    0    0  502    0  0.00000000000E+00  0.00000000000E+00  0.15425816290E+03  0.15425816290E+03  0.00000000000E+00 0. -1.
          1   -1    0    0  501    0 -0.00000000000E+00 -0.00000000000E+00 -0.23617951028E+04  0.23617951028E+04  0.00000000000E+00 0. -1.
         25    2    1    2    0    0  0.11029117091E+03 -0.25782317097E+02 -0.38100697116E+03  0.41667466910E+03  0.12499038978E+03 0.  0.
          2    1    1    2  501    0 -0.12203269347E+03  0.49738356543E+02 -0.19594152729E+04  0.19638416672E+04  0.00000000000E+00 0. -1.
          1    1    1    2  502    0  0.11741522568E+02 -0.23956039447E+02  0.13288530412E+03  0.13553692939E+03  0.00000000000E+00 0. -1.
         22    1    3    3    0    0  0.70814819159E+02 -0.51805204701E+02 -0.34830295592E+03  0.35918444697E+03  0.00000000000E+00 0. -1.
         22    1    3    3    0    0  0.39476351748E+02  0.26022887604E+02 -0.32704015246E+02  0.57490222124E+02  0.00000000000E+00 0. -1.
</event>
<event>
 7    1  0.6358809E-006  0.2647909E+03  0.7818608E-02  0.1250756E+00
          2   -1    0    0  502    0  0.00000000000E+00  0.00000000000E+00  0.10010235224E+04  0.10010235224E+04  0.00000000000E+00 0. -1.
          1   -1    0    0  501    0 -0.00000000000E+00 -0.00000000000E+00 -0.57026182180E+03  0.57026182180E+03  0.00000000000E+00 0. -1.
         25    2    1    2    0    0 -0.14096543728E+03  0.18558980649E+03 -0.36485623012E+03  0.45062273783E+03  0.12500380959E+03 0.  0.
          2    1    1    2  501    0  0.13776045102E+02  0.48436451725E+02 -0.13952078438E+03  0.14833043703E+03  0.00000000000E+00 0. -1.
          1    1    1    2  502    0  0.12718939218E+03 -0.23402625822E+03  0.93513871506E+03  0.97233216929E+03  0.00000000000E+00 0. -1.
         22    1    3    3    0    0 -0.93920619378E+02  0.25098708092E+02 -0.13509487837E+03  0.16643813882E+03  0.00000000000E+00 0. -1.
         22    1    3    3    0    0 -0.47044817905E+02  0.16049109840E+03 -0.22976135175E+03  0.28418459901E+03  0.00000000000E+00 0. -1.
</event>
<event>
 7    1  0.6358809E-006  0.6370001E+02  0.7818608E-02  0.1401397E+00
          2   -1    0    0  502    0  0.00000000000E+00  0.00000000000E+00  0.31098651939E+03  0.31098651939E+03  0.00000000000E+00 0. -1.
          1   -1    0    0  501    0 -0.00000000000E+00 -0.00000000000E+00 -0.10039080773E+04  0.10039080773E+04  0.00000000000E+00 0. -1.
         25    2    1    2    0    0 -0.50208771712E+02  0.10490713286E+03 -0.20849543021E+02  0.17200949036E+03  0.12500453611E+03 0.  0.
          2    1    1    2  501    0  0.26287313280E+02 -0.48244064534E+02 -0.90261152457E+03  0.90428207816E+03  0.00000000000E+00 0. -1.
          1    1    1    2  502    0  0.23921458431E+02 -0.56663068325E+02  0.23053950972E+03  0.23860302812E+03  0.00000000000E+00 0. -1.
         22    1    3    3    0    0 -0.79627497293E+02  0.77205213713E+02  0.22043566777E+02  0.11308006980E+03  0.00000000000E+00 0.  1.
         22    1    3    3    0    0  0.29418725581E+02  0.27701919146E+02 -0.42893109798E+02  0.58929420559E+02  0.00000000000E+00 0.  1.
</event>
<event>
 7    1  0.6358809E-006  0.8788801E+02  0.7818608E-02  0.1377067E+00
          2   -1    0    0  502    0  0.00000000000E+00  0.00000000000E+00  0.16212667130E+04  0.16212667130E+04  0.00000000000E+00 0. -1.
          1   -1    0    0  501    0 -0.00000000000E+00 -0.00000000000E+00 -0.51924655623E+03  0.51924655623E+03  0.00000000000E+00 0. -1.
         25    2    1    2    0    0 -0.70826213105E+02 -0.43455255904E+02 -0.22883057015E+03  0.27366547606E+03  0.12499860488E+03 0.  0.
          2    1    1    2  501    0  0.42444056934E+02  0.82696988280E+02 -0.25955881352E+03  0.27570104736E+03  0.00000000000E+00 0. -1.
          1    1    1    2  502    0  0.28382156171E+02 -0.39241732377E+02  0.15904095405E+04  0.15911467458E+04  0.00000000000E+00 0. -1.
         22    1    3    3    0    0 -0.67099250233E+02 -0.81077737366E+02 -0.20042788103E+03  0.22637854221E+03  0.00000000000E+00 0. -1.
         22    1    3    3    0    0 -0.37269628716E+01  0.37622481462E+02 -0.28402689125E+02  0.47286933853E+02  0.00000000000E+00 0. -1.
</event>
<event>
 7    1  0.6358809E-006  0.1022144E+03  0.7818608E-02  0.1293576E+00
          2   -1    0    0  502    0  0.00000000000E+00  0.00000000000E+00  0.30136138344E+04  0.30136138344E+04  0.00000000000E+00 0. -1.
          1   -1    0    0  501    0 -0.00000000000E+00 -0.00000000000E+00 -0.21224135167E+03  0.21224135167E+03  0.00000000000E+00 0. -1.
         25    2    1    2    0    0  0.15899023558E+03 -0.40949038194E+02  0.10032116790E+04  0.10242134316E+04  0.12499904774E+03 0.  0.
          2    1    1    2  501    0 -0.76611868280E+02  0.66800783069E+02 -0.18793954805E+03  0.21366561890E+03  0.00000000000E+00 0. -1.
          1    1    1    2  502    0 -0.82378367298E+02 -0.25851744876E+02  0.19861003518E+04  0.19879761355E+04  0.00000000000E+00 0. -1.
         22    1    3    3    0    0  0.12314431592E+03 -0.53342779150E+02  0.94663234457E+03  0.95609767828E+03  0.00000000000E+00 0.  1.
         22    1    3    3    0    0  0.35845919659E+02  0.12393740956E+02  0.56579334422E+02  0.68115753352E+02  0.00000000000E+00 0.  1.
</event>
<event>
 7    1  0.6358809E-006  0.1385752E+03  0.7818608E-02  0.1294201E+00
          2   -1    0    0  502    0  0.00000000000E+00  0.00000000000E+00  0.11228384410E+04  0.11228384410E+04  0.00000000000E+00 0. -1.
          1   -1    0    0  501    0 -0.00000000000E+00 -0.00000000000E+00 -0.56777265274E+02  0.56777265274E+02  0.00000000000E+00 0. -1.
         25    2    1    2    0    0 -0.14371733986E+03  0.29005390441E+02  0.58595917125E+03  0.61682195078E+03  0.12500072853E+03 0.  0.
          2    1    1    2  501    0  0.32544404918E+02  0.54311627287E+02  0.33519665101E+00  0.63316692166E+02  0.00000000000E+00 0. -1.
          1    1    1    2  502    0  0.11117293494E+03 -0.83317017729E+02  0.47976680782E+03  0.49947706333E+03  0.00000000000E+00 0. -1.
         22    1    3    3    0    0 -0.62435276885E+02 -0.48117573225E+02  0.28430439027E+03  0.29502957645E+03  0.00000000000E+00 0.  1.
         22    1    3    3    0    0 -0.81282062973E+02  0.77122963666E+02  0.30165478098E+03  0.32179237432E+03  0.00000000000E+00 0.  1.
</event>
<event>
 7    1  0.6358809E-006  0.9312845E+02  0.7818608E-02  0.1407492E+00
          2   -1    0    0  502    0  0.00000000000E+00  0.00000000000E+00  0.96244545894E+03  0.96244545894E+03  0.00000000000E+00 0. -1.
          1   -1    0    0  501    0 -0.00000000000E+00 -0.00000000000E+00 -0.37094022949E+03  0.37094022949E+03  0.00000000000E+00 0. -1.
         25    2    1    2    0    0  0.40220779183E+02  0.62996017473E+02  0.32485909262E+02  0.14921956710E+03  0.12499974244E+03 0.  0.
          2    1    1    2  501    0 -0.20268785177E+02 -0.92745343845E+02 -0.30498540011E+03  0.31941918655E+03  0.00000000000E+00 0. -1.
          1    1    1    2  502    0 -0.19951994006E+02  0.29749326371E+02  0.86400472030E+03  0.86474693477E+03  0.00000000000E+00 0. -1.
         22    1    3    3    0    0 -0.40635558660E+02  0.48852346441E+02  0.13197001697E+02  0.64899624299E+02  0.00000000000E+00 0. -1.
         22    1    3    3    0    0  0.80856337843E+02  0.14143671033E+02  0.19288907565E+02  0.84319942806E+02  0.00000000000E+00 0. -1.
</event>
<event>
 7    1  0.6358809E-006  0.7287546E+02  0.7818608E-02  0.1447214E+00
          2   -1    0    0  502    0  0.00000000000E+00  0.00000000000E+00  0.20140776796E+04  0.20140776796E+04  0.00000000000E+00 0. -1.
          1   -1    0    0  501    0 -0.00000000000E+00 -0.00000000000E+00 -0.58315363270E+03  0.58315363270E+03  0.00000000000E+00 0. -1.
         25    2    1    2    0    0  0.12587581050E+02  0.71046979088E+02  0.34823055233E+03  0.37695512870E+03  0.12499812416E+03 0.  0.
          2    1    1    2  501    0 -0.43901280992E+02 -0.58236759036E+02 -0.56627932675E+03  0.57095631924E+03  0.00000000000E+00 0. -1.
          1    1    1    2  502    0  0.31313699942E+02 -0.12810220053E+02  0.16489728214E+04  0.16493198644E+04  0.00000000000E+00 0. -1.
         22    1    3    3    0    0 -0.55969327537E+02  0.29043827107E+02  0.17384182363E+03  0.18492454992E+03  0.00000000000E+00 0. -1.
         22    1    3    3    0    0  0.68556908587E+02  0.42003151981E+02  0.17438872870E+03  0.19203057878E+03  0.00000000000E+00 0. -1.
</event>
<event>
 7    1  0.6358809E-006  0.1096500E+03  0.7818608E-02  0.1278227E+00
          2   -1    0    0  502    0  0.00000000000E+00  0.00000000000E+00  0.95491128754E+03  0.95491128754E+03  0.00000000000E+00 0. -1.
          1   -1    0    0  501    0 -0.00000000000E+00 -0.00000000000E+00 -0.30745674363E+03  0.30745674363E+03  0.00000000000E+00 0. -1.
         25    2    1    2    0    0 -0.95264593694E+02  0.50674512872E+02  0.21743944954E+03  0.27303323560E+03  0.12499593778E+03 0.  0.
          2    1    1    2  501    0 -0.12583517623E+02 -0.92159663391E+02 -0.26703548640E+03  0.28277146155E+03  0.00000000000E+00 0. -1.
          1    1    1    2  502    0  0.10784811132E+03  0.41485150519E+02  0.69705058077E+03  0.70656333401E+03  0.00000000000E+00 0. -1.
         22    1    3    3    0    0 -0.57898125931E+02 -0.37243803755E+02  0.10410555151E+03  0.12480889296E+03  0.00000000000E+00 0.  1.
         22    1    3    3    0    0 -0.37366467763E+02  0.87918316627E+02  0.11333389802E+03  0.14822434265E+03  0.00000000000E+00 0.  1.
</event>
<event>
 7    1  0.6358809E-006  0.3725172E+02  0.7818608E-02  0.1621412E+00
          2   -1    0    0  502    0  0.00000000000E+00  0.00000000000E+00  0.49065230874E+03  0.49065230874E+03  0.00000000000E+00 0. -1.
          1   -1    0    0  501    0 -0.00000000000E+00 -0.00000000000E+00 -0.40220091338E+02  0.40220091338E+02  0.00000000000E+00 0. -1.
         25    2    1    2    0    0  0.86389833894E+01 -0.20590842359E+02  0.30720803760E+03  0.33241577286E+03  0.12499941141E+03 0.  0.
          2    1    1    2  501    0  0.34117358334E+01  0.37829881673E+02 -0.13512195019E+02  0.40315249014E+02  0.00000000000E+00 0. -1.
          1    1    1    2  502    0 -0.12050719223E+02 -0.17239039315E+02  0.15673637481E+03  0.15814137820E+03  0.00000000000E+00 0. -1.
         22    1    3    3    0    0  0.38058494511E+02 -0.43501632113E+02  0.28089021860E+03  0.28677544508E+03  0.00000000000E+00 0. -1.
         22    1    3    3    0    0 -0.29419511122E+02  0.22910789754E+02  0.26317819009E+02  0.45640327772E+02  0.00000000000E+00 0. -1.
</event>
<event>
 7    1  0.6358809E-006  0.5719652E+02  0.7818608E-02  0.1558489E+00
          2   -1    0    0  502    0  0.00000000000E+00  0.00000000000E+00  0.50314046961E+02  0.50314046961E+02  0.00000000000E+00 0. -1.
          1   -1    0    0  501    0 -0.00000000000E+00 -0.00000000000E+00 -0.25340779985E+03  0.25340779985E+03  0.00000000000E+00 0. -1.
         25    2    1    2    0    0  0.13711675084E+00 -0.43387242314E+02 -0.95316858116E+02  0.16307447616E+03  0.12500203893E+03 0.  0.
          2    1    1    2  501    0 -0.12157945246E+02  0.59503252323E+02 -0.10363562406E+03  0.12011992026E+03  0.00000000000E+00 0. -1.
          1    1    1    2  502    0  0.12020828495E+02 -0.16116010009E+02 -0.41412707136E+01  0.20527450388E+02  0.00000000000E+00 0. -1.
         22    1    3    3    0    0 -0.37031113797E+01 -0.49265393630E+01  0.30674513780E+02  0.31287531376E+02  0.00000000000E+00 0.  1.
         22    1    3    3    0    0  0.38402281305E+01 -0.38460702951E+02 -0.12599137190E+03  0.13178694478E+03  0.00000000000E+00 0.  1.
</event>
<event>
 7    1  0.6358809E-006  0.8139775E+02  0.7818608E-02  0.1372822E+00
          2   -1    0    0  502    0  0.00000000000E+00  0.00000000000E+00  0.36475850025E+04  0.36475850025E+04  0.00000000000E+00 0. -1.
          1   -1    0    0  501    0 -0.00000000000E+00 -0.00000000000E+00 -0.11209618713E+03  0.11209618713E+03  0.00000000000E+00 0. -1.
         25    2    1    2    0    0 -0.89700329283E+01 -0.55493181448E+02  0.10109950422E+04  0.10202420349E+04  0.12499151873E+03 0.  0.
          2    1    1    2  501    0  0.49790955556E+02 -0.21279233281E+02 -0.99886475710E+02  0.11361889391E+03  0.00000000000E+00 0. -1.
          1    1    1    2  502    0 -0.40820922628E+02  0.76772414728E+02  0.26243802489E+04  0.26258202609E+04  0.00000000000E+00 0. -1.
         22    1    3    3    0    0  0.37139382111E+02 -0.89758072328E+01  0.10251420444E+03  0.10940320348E+03  0.00000000000E+00 0.  1.
         22    1    3    3    0    0 -0.46109415040E+02 -0.46517374215E+02  0.90848083776E+03  0.91083883143E+03  0.00000000000E+00 0.  1.
</event>
<event>
 7    1  0.6358809E-006  0.9420432E+02  0.7818608E-02  0.1350847E+00
          2   -1    0    0  502    0  0.00000000000E+00  0.00000000000E+00  0.99261619030E+03  0.99261619030E+03  0.00000000000E+00 0. -1.
          1   -1    0    0  501    0 -0.00000000000E+00 -0.00000000000E+00 -0.21391158609E+03  0.21391158609E+03  0.00000000000E+00 0. -1.
         25    2    1    2    0    0 -0.11425035895E+03  0.63099684676E+02  0.23137640637E+03  0.29358959078E+03  0.12500036666E+03 0.  0.
          2    1    1    2  501    0  0.55763553646E+02  0.73616491587E+01 -0.17552021236E+03  0.18431254092E+03  0.00000000000E+00 0. -1.
          1    1    1    2  502    0  0.58486805303E+02 -0.70461333835E+02  0.72284841021E+03  0.72862564469E+03  0.00000000000E+00 0. -1.
         22    1    3    3    0    0 -0.55330702177E+02  0.97607951452E+02  0.13644386209E+03  0.17665142595E+03  0.00000000000E+00 0.  1.
         22    1    3    3    0    0 -0.58919656773E+02 -0.34508266775E+02  0.94932544280E+02  0.11693816483E+03  0.00000000000E+00 0.  1.
</event>
<event>
 7    1  0.6358809E-006  0.1055082E+03  0.7818608E-02  0.1299495E+00
          2   -1    0    0  502    0  0.00000000000E+00  0.00000000000E+00  0.64294445222E+03  0.64294445222E+03  0.00000000000E+00 0. -1.
          1   -1    0    0  501    0 -0.00000000000E+00 -0.00000000000E+00 -0.30698195560E+03  0.30698195560E+03  0.00000000000E+00 0. -1.
         25    2    1    2    0    0 -0.72321110545E+01 -0.51852398577E+02  0.67538421717E+02  0.15141933181E+03  0.12500160386E+03 0.  0.
          2    1    1    2  501    0  0.82382009639E+02  0.76789676135E+02 -0.24993436779E+03  0.27413616703E+03  0.00000000000E+00 0. -1.
          1    1    1    2  502    0 -0.75149898585E+02 -0.24937277557E+02  0.51835844270E+03  0.52437090898E+03  0.00000000000E+00 0. -1.
         22    1    3    3    0    0  0.16676919637E+02 -0.39563151226E+01  0.91268136133E+02  0.92863581404E+02  0.00000000000E+00 0. -1.
         22    1    3    3    0    0 -0.23909030692E+02 -0.47896083455E+02 -0.23729714416E+02  0.58555750402E+02  0.00000000000E+00 0. -1.
</event>
<event>
 7    1  0.6358809E-006  0.4367534E+02  0.7818608E-02  0.1496557E+00
          2   -1    0    0  502    0  0.00000000000E+00  0.00000000000E+00  0.46561666669E+02  0.46561666669E+02  0.00000000000E+00 0. -1.
          1   -1    0    0  501    0 -0.00000000000E+00 -0.00000000000E+00 -0.96019915225E+03  0.96019915225E+03  0.00000000000E+00 0. -1.
         25    2    1    2    0    0 -0.78359845547E+02  0.22897602330E+02 -0.63232518127E+03  0.64971088001E+03  0.12499810859E+03 0.  0.
          2    1    1    2  501    0  0.35808075462E+02 -0.17091584429E+02 -0.30529405238E+03  0.30786165553E+03  0.00000000000E+00 0. -1.
          1    1    1    2  502    0  0.42551770084E+02 -0.58060179004E+01  0.23981748070E+02  0.49188283377E+02  0.00000000000E+00 0. -1.
         22    1    3    3    0    0 -0.86389379085E+02  0.19738172865E+02 -0.21836474726E+03  0.23566052519E+03  0.00000000000E+00 0. -1.
         22    1    3    3    0    0  0.80295335384E+01  0.31594294649E+01 -0.41396043400E+03  0.41405035482E+03  0.00000000000E+00 0. -1.
</event>
<event>
 7    1  0.6358809E-006  0.5504268E+02  0.7818608E-02  0.1497270E+00
          2   -1    0    0  502    0  0.00000000000E+00  0.00000000000E+00  0.22693727731E+04  0.22693727731E+04  0.00000000000E+00 0. -1.
          1   -1    0    0  501    0 -0.00000000000E+00 -0.00000000000E+00 -0.61803731692E+03  0.61803731692E+03  0.00000000000E+00 0. -1.
         25    2    1    2    0    0 -0.15774817879E+02  0.40439784749E+02 -0.30891767139E+03  0.33606648543E+03  0.12500533535E+03 0.  0.
          2    1    1    2  501    0 -0.10286842496E+02 -0.57826745316E+02 -0.29251711983E+03  0.29835552115E+03  0.00000000000E+00 0. -1.
          1    1    1    2  502    0  0.26061660375E+02  0.17386960567E+02  0.22527702474E+04  0.22529880835E+04  0.00000000000E+00 0. -1.
         22    1    3    3    0    0 -0.25145306356E+01  0.84470819929E+02 -0.17212516360E+03  0.19175169941E+03  0.00000000000E+00 0.  1.
         22    1    3    3    0    0 -0.13260287243E+02 -0.44031035179E+02 -0.13679250779E+03  0.14431478602E+03  0.00000000000E+00 0.  1.
</event>
<event>
 7    1  0.8436571E-006  0.7016596E+02  0.7818608E-02  0.1392743E+00
          2   -1    0    0  502    0  0.00000000000E+00  0.00000000000E+00  0.25304298390E+04  0.25304298390E+04  0.00000000000E+00 0. -1.
          1   -1    0    0  501    0 -0.00000000000E+00 -0.00000000000E+00 -0.88645297182E+03  0.88645297182E+03  0.00000000000E+00 0. -1.
         25    2    1    2    0    0 -0.13187841453E+01  0.18039507231E+02 -0.71654922627E+02  0.14519265587E+03  0.12497726340E+03 0.  0.
          2    1    1    2  501    0 -0.24652976907E+02  0.47403880156E+02 -0.77661406687E+03  0.77844993801E+03  0.00000000000E+00 0. -1.
          1    1    1    2  502    0  0.25971761052E+02 -0.65443387388E+02  0.24922458566E+04  0.24932402169E+04  0.00000000000E+00 0. -1.
         22    1    3    3    0    0 -0.35915987263E+02  0.28562475593E+02 -0.92640134723E+02  0.10338262772E+03  0.00000000000E+00 0. -1.
         22    1    3    3    0    0  0.34597203117E+02 -0.10522968362E+02  0.20985212096E+02  0.41810028144E+02  0.00000000000E+00 0. -1.
</event>
<event>
 7    1  0.6358809E-006  0.1533078E+03  0.7818608E-02  0.1338555E+00
          2   -1    0    0  502    0  0.00000000000E+00  0.00000000000E+00  0.13834260869E+04  0.13834260869E+04  0.00000000000E+00 0. -1.
          1   -1    0    0  501    0 -0.00000000000E+00 -0.00000000000E+00 -0.14779617974E+04  0.14779617974E+04  0.00000000000E+00 0. -1.
         25    2    1    2    0    0  0.13780798480E+03 -0.94490544971E+02  0.24691605090E+02  0.21012745166E+03  0.12499746724E+03 0.  0.
          2    1    1    2  501    0 -0.14220760280E+03  0.56326576201E+02 -0.13807282680E+04  0.13891746598E+04  0.00000000000E+00 0. -1.
          1    1    1    2  502    0  0.43996180051E+01  0.38163968770E+02  0.12615009524E+04  0.12620857728E+04  0.00000000000E+00 0. -1.
         22    1    3    3    0    0  0.23667787263E+02 -0.88404481107E+02 -0.61897614681E+01  0.91726929420E+02  0.00000000000E+00 0.  1.
         22    1    3    3    0    0  0.11414019753E+03 -0.60860638638E+01  0.30881366558E+02  0.11840052224E+03  0.00000000000E+00 0.  1.
</event>
<event>
 7    1  0.6358809E-006  0.6313773E+02  0.7818608E-02  0.1441392E+00
          2   -1    0    0  502    0  0.00000000000E+00  0.00000000000E+00  0.57581495605E+03  0.57581495605E+03  0.00000000000E+00 0. -1.
          1   -1    0    0  501    0 -0.00000000000E+00 -0.00000000000E+00 -0.70370970927E+02  0.70370970927E+02  0.00000000000E+00 0. -1.
         25    2    1    2    0    0 -0.36470460663E+02  0.67359651885E+01  0.11554892933E+03  0.17421394078E+03  0.12499389731E+03 0.  0.
          2    1    1    2  501    0  0.54026948419E+02 -0.43538995478E+02 -0.99116036341E+01  0.70091334481E+02  0.00000000000E+00 0. -1.
          1    1    1    2  502    0 -0.17556487756E+02  0.36803030290E+02  0.39980665942E+03  0.40188065171E+03  0.00000000000E+00 0. -1.
         22    1    3    3    0    0 -0.45035109902E+02 -0.49854171854E+02  0.36017435897E+02  0.76228966042E+02  0.00000000000E+00 0. -1.
         22    1    3    3    0    0  0.85646492390E+01  0.56590137043E+02  0.79531493433E+02  0.97984974740E+02  0.00000000000E+00 0. -1.
</event>
<event>
 7    1  0.6358809E-006  0.8380308E+02  0.7818608E-02  0.1425228E+00
          2   -1    0    0  502    0  0.00000000000E+00  0.00000000000E+00  0.20881576992E+04  0.20881576992E+04  0.00000000000E+00 0. -1.
          1   -1    0    0  501    0 -0.00000000000E+00 -0.00000000000E+00 -0.20724610269E+02  0.20724610269E+02  0.00000000000E+00 0. -1.
         25    2    1    2    0    0 -0.39549574840E+02 -0.51960234798E+02  0.12463013899E+04  0.12542550322E+04  0.12499798578E+03 0.  0.
          2    1    1    2  501    0  0.73439210228E+02  0.44478491626E+02  0.96504898726E+02  0.12916984669E+03  0.00000000000E+00 0. -1.
          1    1    1    2  502    0 -0.33889635388E+02  0.74817431721E+01  0.72462680029E+03  0.72545743057E+03  0.00000000000E+00 0. -1.
         22    1    3    3    0    0  0.27684448360E+02 -0.53961178786E+01  0.75431320404E+02  0.80532172870E+02  0.00000000000E+00 0.  1.
         22    1    3    3    0    0 -0.67234023200E+02 -0.46564116919E+02  0.11708700695E+04  0.11737228594E+04  0.00000000000E+00 0.  1.
</event>
<event>
 7    1  0.6358809E-006  0.4159466E+02  0.7818608E-02  0.1557776E+00
          2   -1    0    0  502    0  0.00000000000E+00  0.00000000000E+00  0.13822812172E+04  0.13822812172E+04  0.00000000000E+00 0. -1.
          1   -1    0    0  501    0 -0.00000000000E+00 -0.00000000000E+00 -0.36616548032E+02  0.36616548032E+02  0.00000000000E+00 0. -1.
         25    2    1    2    0    0 -0.63917338931E+02 -0.20575742847E+01  0.66685232743E+03  0.68147342134E+03  0.12499735026E+03 0.  0.
          2    1    1    2  501    0  0.25824593192E+02 -0.10217034810E+02 -0.22024694758E+02  0.35445515838E+02  0.00000000000E+00 0. -1.
          1    1    1    2  502    0  0.38092745739E+02  0.12274609094E+02  0.70083703646E+03  0.70197882802E+03  0.00000000000E+00 0. -1.
         22    1    3    3    0    0 -0.38040696225E+02  0.61168621216E+02  0.35198470574E+03  0.35927973484E+03  0.00000000000E+00 0.  1.
         22    1    3    3    0    0 -0.25876642706E+02 -0.63226195501E+02  0.31486762168E+03  0.32219368650E+03  0.00000000000E+00 0.  1.
</event>
<event>
 7    1  0.6358809E-006  0.3517797E+02  0.7818608E-02  0.1551641E+00
          2   -1    0    0  502    0  0.00000000000E+00  0.00000000000E+00  0.12146169185E+03  0.12146169185E+03  0.00000000000E+00 0. -1.
          1   -1    0    0  501    0 -0.00000000000E+00 -0.00000000000E+00 -0.82110378263E+03  0.82110378263E+03  0.00000000000E+00 0. -1.
         25    2    1    2    0    0  0.25196198318E+02  0.16666929869E+02 -0.24415043685E+03  0.27594343729E+03  0.12499083890E+03 0.  0.
          2    1    1    2  501    0 -0.31719815436E+02  0.16853729592E+02 -0.55770211070E+03  0.55885761976E+03  0.00000000000E+00 0. -1.
          1    1    1    2  502    0  0.65236171181E+01 -0.33520659460E+02  0.10221045676E+03  0.10776441742E+03  0.00000000000E+00 0. -1.
         22    1    3    3    0    0 -0.36108333340E+02 -0.81575244655E+01 -0.18012805001E+03  0.18389255380E+03  0.00000000000E+00 0. -1.
         22    1    3    3    0    0  0.61304531658E+02  0.24824454334E+02 -0.64022386835E+02  0.92050883487E+02  0.00000000000E+00 0. -1.
</event>
<event>
 7    1  0.6358809E-006  0.2460158E+03  0.7818608E-02  0.1126852E+00
          2   -1    0    0  502    0  0.00000000000E+00  0.00000000000E+00  0.19338913451E+03  0.19338913451E+03  0.00000000000E+00 0. -1.
          1   -1    0    0  501    0 -0.00000000000E+00 -0.00000000000E+00 -0.13065763392E+04  0.13065763392E+04  0.00000000000E+00 0. -1.
         25    2    1    2    0    0  0.53755292193E+02  0.14542503546E+03 -0.25636718042E+02  0.20079678459E+03  0.12499613999E+03 0.  0.
          2    1    1    2  501    0 -0.26053681761E+03 -0.88537945542E+02 -0.10448740233E+04  0.10804999425E+04  0.00000000000E+00 0. -1.
          1    1    1    2  502    0  0.20678152541E+03 -0.56887089921E+02 -0.42676463399E+02  0.21866874669E+03  0.00000000000E+00 0. -1.
         22    1    3    3    0    0  0.90753309688E+02  0.69326245371E+02 -0.89670379282E+01  0.11455435079E+03  0.00000000000E+00 0.  1.
         22    1    3    3    0    0 -0.36998017495E+02  0.76098790092E+02 -0.16669680114E+02  0.86242433796E+02  0.00000000000E+00 0.  1.
</event>
<event>
 7    1  0.1019407E-005  0.1508777E+03  0.7818608E-02  0.1278477E+00
          2   -1    0    0  502    0  0.00000000000E+00  0.00000000000E+00  0.12059210607E+04  0.12059210607E+04  0.00000000000E+00 0. -1.
          1   -1    0    0  501    0 -0.00000000000E+00 -0.00000000000E+00 -0.15075162983E+04  0.15075162983E+04  0.00000000000E+00 0. -1.
         25    2    1    2    0    0 -0.89287987119E+02 -0.23387155192E+01 -0.17962364361E+03  0.23637468634E+03  0.12502209710E+03 0.  0.
          2    1    1    2  501    0 -0.59034030656E+02 -0.32600177460E+02 -0.12937054432E+04  0.12954619107E+04  0.00000000000E+00 0. -1.
          1    1    1    2  502    0  0.14832201777E+03  0.34938892980E+02  0.11717338492E+04  0.11816007620E+04  0.00000000000E+00 0. -1.
         22    1    3    3    0    0 -0.20157731284E+02 -0.32103685610E+02 -0.15126670251E+03  0.15594420813E+03  0.00000000000E+00 0.  1.
         22    1    3    3    0    0 -0.69130255835E+02  0.29764970090E+02 -0.28356941095E+02  0.80430478207E+02  0.00000000000E+00 0.  1.
</event>
<event>
 7    1  0.6358809E-006  0.1527272E+03  0.7818608E-02  0.1318011E+00
          2   -1    0    0  502    0  0.00000000000E+00  0.00000000000E+00  0.21231185559E+04  0.21231185559E+04  0.00000000000E+00 0. -1.
          1   -1    0    0  501    0 -0.00000000000E+00 -0.00000000000E+00 -0.40778434639E+03  0.40778434639E+03  0.00000000000E+00 0. -1.
         25    2    1    2    0    0 -0.87254515162E+02  0.13007129149E+03  0.22817457289E+03  0.30367965984E+03  0.12500323517E+03 0.  0.
          2    1    1    2  501    0  0.44015117020E+02 -0.14641185623E+03 -0.35393759972E+03  0.38554582953E+03  0.00000000000E+00 0. -1.
          1    1    1    2  502    0  0.43239398142E+02  0.16340564731E+02  0.18410972363E+04  0.18416774129E+04  0.00000000000E+00 0. -1.
         22    1    3    3    0    0 -0.10089116927E+03  0.70473021747E+02  0.89635302272E+02  0.15224967076E+03  0.00000000000E+00 0.  1.
         22    1    3    3    0    0  0.13636654112E+02  0.59598269747E+02  0.13853927061E+03  0.15142998909E+03  0.00000000000E+00 0.  1.
</event>
<event>
 7    1  0.6358809E-006  0.1517130E+03  0.7818608E-02  0.1199362E+00
          2   -1    0    0  502    0  0.00000000000E+00  0.00000000000E+00  0.57050779467E+03  0.57050779467E+03  0.00000000000E+00 0. -1.
          1   -1    0    0  501    0 -0.00000000000E+00 -0.00000000000E+00 -0.92950220392E+03  0.92950220392E+03  0.00000000000E+00 0. -1.
         25    2    1    2    0    0  0.75946589714E+02  0.46326481381E+02 -0.69689895729E+02  0.16850945328E+03  0.12499890765E+03 0.  0.
          2    1    1    2  501    0 -0.14880470096E+03  0.84913061413E+02 -0.79021902803E+03  0.80857849297E+03  0.00000000000E+00 0. -1.
          1    1    1    2  502    0  0.72858111248E+02 -0.13123954279E+03  0.50091451451E+03  0.52292205234E+03  0.00000000000E+00 0. -1.
         22    1    3    3    0    0  0.69968722856E+02  0.27807095064E+02 -0.10439924515E+03  0.12871697286E+03  0.00000000000E+00 0.  1.
         22    1    3    3    0    0  0.59778668580E+01  0.18519386317E+02  0.34709349417E+02  0.39792480429E+02  0.00000000000E+00 0.  1.
</event>
<event>
 7    1  0.6358809E-006  0.6105256E+02  0.7818608E-02  0.1461980E+00
          2   -1    0    0  502    0  0.00000000000E+00  0.00000000000E+00  0.15103240286E+04  0.15103240286E+04  0.00000000000E+00 0. -1.
          1   -1    0    0  501    0 -0.00000000000E+00 -0.00000000000E+00 -0.58282534372E+02  0.58282534372E+02  0.00000000000E+00 0. -1.
         25    2    1    2    0    0  0.13956042795E+02  0.87449665858E+02  0.18811320197E+03  0.24259802138E+03  0.12500003214E+03 0.  0.
          2    1    1    2  501    0  0.65315273812E+01 -0.57547788456E+02 -0.35368983090E+01  0.58025153647E+02  0.00000000000E+00 0. -1.
          1    1    1    2  502    0 -0.20487570176E+02 -0.29901877403E+02  0.12674651906E+04  0.12679833879E+04  0.00000000000E+00 0. -1.
         22    1    3    3    0    0 -0.52888275093E+02  0.57594596532E+02  0.78615163394E+02  0.11088124777E+03  0.00000000000E+00 0. -1.
         22    1    3    3    0    0  0.66844317887E+02  0.29855069327E+02  0.10949803858E+03  0.13171677361E+03  0.00000000000E+00 0. -1.
</event>
<event>
 7    1  0.6358809E-006  0.1171313E+03  0.7818608E-02  0.1385884E+00
          2   -1    0    0  502    0  0.00000000000E+00  0.00000000000E+00  0.12707219705E+04  0.12707219705E+04  0.00000000000E+00 0. -1.
          1   -1    0    0  501    0 -0.00000000000E+00 -0.00000000000E+00 -0.27787259915E+03  0.27787259915E+03  0.00000000000E+00 0. -1.
         25    2    1    2    0    0 -0.97307677733E+02 -0.77129213117E+02  0.12728864438E+03  0.21735986301E+03  0.12500084559E+03 0.  0.
          2    1    1    2  501    0 -0.10625595185E+02  0.32110488985E+02 -0.22847570293E+03  0.23096565460E+03  0.00000000000E+00 0. -1.
          1    1    1    2  502    0  0.10793327292E+03  0.45018724132E+02  0.10940364299E+04  0.11002690521E+04  0.00000000000E+00 0. -1.
         22    1    3    3    0    0 -0.86777386129E+02  0.45003774137E+00  0.10447221870E+03  0.13581222978E+03  0.00000000000E+00 0. -1.
         22    1    3    3    0    0 -0.10530291604E+02 -0.77579250859E+02  0.22816425676E+02  0.81547633232E+02  0.00000000000E+00 0. -1.
</event>
<event>
 7    1  0.6358809E-006  0.4923098E+02  0.7818608E-02  0.1501955E+00
          2   -1    0    0  502    0  0.00000000000E+00  0.00000000000E+00  0.59658818263E+03  0.59658818263E+03  0.00000000000E+00 0. -1.
          1   -1    0    0  501    0 -0.00000000000E+00 -0.00000000000E+00 -0.17091687353E+03  0.17091687353E+03  0.00000000000E+00 0. -1.
         25    2    1    2    0    0 -0.27154766926E+02 -0.71875346093E+01  0.85024651843E+02  0.15376643366E+03  0.12500353067E+03 0.  0.
          2    1    1    2  501    0  0.45577070653E+02 -0.21290752004E+02 -0.13128343998E+03  0.14059127677E+03  0.00000000000E+00 0. -1.
          1    1    1    2  502    0 -0.18422303726E+02  0.28478286614E+02  0.47193009725E+03  0.47314734573E+03  0.00000000000E+00 0. -1.
         22    1    3    3    0    0 -0.39709933107E+02 -0.28145598843E+02  0.10910090095E+03  0.11946572776E+03  0.00000000000E+00 0.  1.
         22    1    3    3    0    0  0.12555166181E+02  0.20958064234E+02 -0.24076249106E+02  0.34300705901E+02  0.00000000000E+00 0.  1.
</event>
<event>
 7    1  0.6358809E-006  0.1492519E+03  0.7818608E-02  0.1306648E+00
          2   -1    0    0  502    0  0.00000000000E+00  0.00000000000E+00  0.25804116464E+04  0.25804116464E+04  0.00000000000E+00 0. -1.
          1   -1    0    0  501    0 -0.00000000000E+00 -0.00000000000E+00 -0.32697593087E+02  0.32697593087E+02  0.00000000000E+00 0. -1.
         25    2    1    2    0    0 -0.79213515518E+02 -0.77153532889E+02  0.10347953384E+04  0.10481662573E+04  0.12499464736E+03 0.  0.
          2    1    1    2  501    0  0.12960038510E+03  0.91603307882E+02  0.22164519285E+03  0.27260597453E+03  0.00000000000E+00 0. -1.
          1    1    1    2  502    0 -0.50386869580E+02 -0.14449774993E+02  0.12912735220E+04  0.12923370076E+04  0.00000000000E+00 0. -1.
         22    1    3    3    0    0 -0.48618469497E+02 -0.93569412525E+02  0.44392522536E+03  0.45627688550E+03  0.00000000000E+00 0. -1.
         22    1    3    3    0    0 -0.30595046021E+02  0.16415879635E+02  0.59087011308E+03  0.59188937182E+03  0.00000000000E+00 0. -1.
</event>
<event>
 7    1  0.6358809E-006  0.3454998E+02  0.7818608E-02  0.1557998E+00
          2   -1    0    0  502    0  0.00000000000E+00  0.00000000000E+00  0.41415797732E+03  0.41415797732E+03  0.00000000000E+00 0. -1.
          1   -1    0    0  501    0 -0.00000000000E+00 -0.00000000000E+00 -0.32105543817E+03  0.32105543817E+03  0.00000000000E+00 0. -1.
         25    2    1    2    0    0  0.34466243718E+02  0.19336094926E+02 -0.86579675635E+02  0.15710796835E+03  0.12500026785E+03 0.  0.
          2    1    1    2  501    0 -0.29842100111E+02  0.14973309293E+02 -0.19701332362E+03  0.19982242270E+03  0.00000000000E+00 0. -1.
          1    1    1    2  502    0 -0.46241436068E+01 -0.34309404219E+02  0.37669553841E+03  0.37828302444E+03  0.00000000000E+00 0. -1.
         22    1    3    3    0    0  0.17142209108E+02 -0.49081166315E+02 -0.65148070766E+02  0.83349189225E+02  0.00000000000E+00 0. -1.
         22    1    3    3    0    0  0.17324034610E+02  0.68417261241E+02 -0.21431604869E+02  0.73758779126E+02  0.00000000000E+00 0. -1.
</event>
<event>
 7    1  0.6358809E-006  0.8207552E+02  0.7818608E-02  0.1384746E+00
          2   -1    0    0  502    0  0.00000000000E+00  0.00000000000E+00  0.20587358949E+04  0.20587358949E+04  0.00000000000E+00 0. -1.
          1   -1    0    0  501    0 -0.00000000000E+00 -0.00000000000E+00 -0.11047180682E+03  0.11047180682E+03  0.00000000000E+00 0. -1.
         25    2    1    2    0    0 -0.33955543398E+02  0.33020842922E+02  0.13126787737E+04  0.13194672590E+04  0.12499971938E+03 0.  0.
          2    1    1    2  501    0  0.20786821248E+02 -0.79922837396E+02 -0.90216229153E+02  0.12230584564E+03  0.00000000000E+00 0. -1.
          1    1    1    2  502    0  0.13168722150E+02  0.46901994474E+02  0.72580154357E+03  0.72743459705E+03  0.00000000000E+00 0. -1.
         22    1    3    3    0    0  0.57708930106E+00  0.12065944690E+02  0.11947768124E+04  0.11948378767E+04  0.00000000000E+00 0. -1.
         22    1    3    3    0    0 -0.34532632699E+02  0.20954898232E+02  0.11790196124E+03  0.12462938235E+03  0.00000000000E+00 0. -1.
</event>
<event>
 7    1  0.6358809E-006  0.5505803E+02  0.7818608E-02  0.1531978E+00
          2   -1    0    0  502    0  0.00000000000E+00  0.00000000000E+00  0.45653089912E+03  0.45653089912E+03  0.00000000000E+00 0. -1.
          1   -1    0    0  501    0 -0.00000000000E+00 -0.00000000000E+00 -0.14578790230E+03  0.14578790230E+03  0.00000000000E+00 0. -1.
         25    2    1    2    0    0  0.35940419328E+02  0.62640748924E+02  0.83962382439E+02  0.16700601583E+03  0.12500300193E+03 0.  0.
          2    1    1    2  501    0 -0.13283912181E+02 -0.52578169429E+02 -0.96708110395E+02  0.11087553761E+03  0.00000000000E+00 0. -1.
          1    1    1    2  502    0 -0.22656507147E+02 -0.10062579495E+02  0.32348872478E+03  0.32443724799E+03  0.00000000000E+00 0. -1.
         22    1    3    3    0    0 -0.39262187198E+02  0.34367380481E+02  0.66951383634E+02  0.84883001567E+02  0.00000000000E+00 0. -1.
         22    1    3    3    0    0  0.75202606526E+02  0.28273368444E+02  0.17010998805E+02  0.82123014264E+02  0.00000000000E+00 0. -1.
</event>
<event>
 7    1  0.6358809E-006  0.6762129E+02  0.7818608E-02  0.1424478E+00
          2   -1    0    0  502    0  0.00000000000E+00  0.00000000000E+00  0.33426917039E+04  0.33426917039E+04  0.00000000000E+00 0. -1.
          1   -1    0    0  501    0 -0.00000000000E+00 -0.00000000000E+00 -0.12528540212E+03  0.12528540212E+03  0.00000000000E+00 0. -1.
         25    2    1    2    0    0 -0.12030365402E+02  0.39573250421E+02  0.83673114956E+03  0.84702696800E+03  0.12499958418E+03 0.  0.
          2    1    1    2  501    0 -0.42957242044E+02  0.50891713187E+01 -0.11572475679E+03  0.12354531008E+03  0.00000000000E+00 0. -1.
          1    1    1    2  502    0  0.54987607446E+02 -0.44662421740E+02  0.24963999091E+04  0.24974048280E+04  0.00000000000E+00 0. -1.
         22    1    3    3    0    0  0.49812400711E+01 -0.93374031436E+01  0.20980887396E+01  0.10788967813E+02  0.00000000000E+00 0.  1.
         22    1    3    3    0    0 -0.17011605473E+02  0.48910653565E+02  0.83463306082E+03  0.83623800019E+03  0.00000000000E+00 0.  1.
</event>
<event>
 7    1  0.6358809E-006  0.1224944E+03  0.7818608E-02  0.1406837E+00
          2   -1    0    0  502    0  0.00000000000E+00  0.00000000000E+00  0.63758892970E+03  0.63758892970E+03  0.00000000000E+00 0. -1.
          1   -1    0    0  501    0 -0.00000000000E+00 -0.00000000000E+00 -0.14819685256E+03  0.14819685256E+03  0.00000000000E+00 0. -1.
         25    2    1    2    0    0 -0.83337493733E+02 -0.80147930778E+02  0.34263057386E+02  0.17368980591E+03  0.12500145162E+03 0.  0.
          2    1    1    2  501    0  0.10745370167E+03  0.67198030920E+02 -0.26677258598E+02  0.12951273871E+03  0.00000000000E+00 0. -1.
          1    1    1    2  502    0 -0.24116207941E+02  0.12949899858E+02  0.48180627835E+03  0.48258323764E+03  0.00000000000E+00 0. -1.
         22    1    3    3    0    0 -0.10493902105E+03 -0.96978021462E+02  0.29244410548E+02  0.14584982116E+03  0.00000000000E+00 0. -1.
         22    1    3    3    0    0  0.21601527314E+02  0.16830090684E+02  0.50186468379E+01  0.27839984749E+02  0.00000000000E+00 0. -1.
</event>
<event>
 7    1  0.6358809E-006  0.2231011E+03  0.7818608E-02  0.1255324E+00
          2   -1    0    0  502    0  0.00000000000E+00  0.00000000000E+00  0.14957713802E+03  0.14957713802E+03  0.00000000000E+00 0. -1.
          1   -1    0    0  501    0 -0.00000000000E+00 -0.00000000000E+00 -0.24463324105E+04  0.24463324105E+04  0.00000000000E+00 0. -1.
         25    2    1    2    0    0  0.26179839999E+03  0.48715304893E+02 -0.11158682555E+04  0.11539923225E+04  0.12499893379E+03 0.  0.
          2    1    1    2  501    0 -0.42292643661E+02 -0.38384945515E+02 -0.12177580976E+04  0.12190967378E+04  0.00000000000E+00 0. -1.
          1    1    1    2  502    0 -0.21950575633E+03 -0.10330359378E+02  0.36871080707E+02  0.22282048824E+03  0.00000000000E+00 0. -1.
         22    1    3    3    0    0  0.15928024656E+03  0.71102318344E+02 -0.50747179817E+03  0.53661286097E+03  0.00000000000E+00 0.  1.
         22    1    3    3    0    0  0.10251815343E+03 -0.22387013451E+02 -0.60839645737E+03  0.61737946151E+03  0.00000000000E+00 0.  1.
</event>
<event>
 7    1  0.6358809E-006  0.8062554E+02  0.7818608E-02  0.1418403E+00
          2   -1    0    0  502    0  0.00000000000E+00  0.00000000000E+00  0.16606128325E+03  0.16606128325E+03  0.00000000000E+00 0. -1.
          1   -1    0    0  501    0 -0.00000000000E+00 -0.00000000000E+00 -0.26046385493E+03  0.26046385493E+03  0.00000000000E+00 0. -1.
         25    2    1    2    0    0 -0.97139175473E+02  0.33842796409E+02  0.84154729898E+02  0.18245209401E+03  0.12500157504E+03 0.  0.
          2    1    1    2  501    0  0.36830948555E+02 -0.94026973737E+01 -0.17480764991E+03  0.17889282813E+03  0.00000000000E+00 0. -1.
          1    1    1    2  502    0  0.60308226918E+02 -0.24440099035E+02 -0.37496516629E+01  0.65180216035E+02  0.00000000000E+00 0. -1.
         22    1    3    3    0    0 -0.27369373811E+02 -0.40034494469E+02  0.61537903946E+02  0.78350220116E+02  0.00000000000E+00 0. -1.
         22    1    3    3    0    0 -0.69769801662E+02  0.73877290877E+02  0.22616825953E+02  0.10410187389E+03  0.00000000000E+00 0. -1.
</event>
<event>
 7    1  0.6358809E-006  0.1136463E+03  0.7818608E-02  0.1322844E+00
          2   -1    0    0  502    0  0.00000000000E+00  0.00000000000E+00  0.80821669061E+03  0.80821669061E+03  0.00000000000E+00 0. -1.
          1   -1    0    0  501    0 -0.00000000000E+00 -0.00000000000E+00 -0.93595718837E+03  0.93595718837E+03  0.00000000000E+00 0. -1.
         25    2    1    2    0    0 -0.12879231657E+03  0.69693413549E+02  0.11116023074E+03  0.22230944257E+03  0.12498103319E+03 0.  0.
          2    1    1    2  501    0  0.11246817401E+03 -0.12480526148E+02 -0.87535326749E+03  0.88263706958E+03  0.00000000000E+00 0. -1.
          1    1    1    2  502    0  0.16324142566E+02 -0.57212887401E+02  0.63645253899E+03  0.63922736683E+03  0.00000000000E+00 0. -1.
         22    1    3    3    0    0 -0.80907515687E+02 -0.17011959443E+02  0.14551426969E+02  0.83947465034E+02  0.00000000000E+00 0. -1.
         22    1    3    3    0    0 -0.47884800883E+02  0.86705372992E+02  0.96608803772E+02  0.13836197754E+03  0.00000000000E+00 0. -1.
</event>
<event>
 7    1  0.6358809E-006  0.9285140E+02  0.7818608E-02  0.1335578E+00
          2   -1    0    0  502    0  0.00000000000E+00  0.00000000000E+00  0.26951004661E+04  0.26951004661E+04  0.00000000000E+00 0. -1.
          1   -1    0    0  501    0 -0.00000000000E+00 -0.00000000000E+00 -0.10825747418E+03  0.10825747418E+03  0.00000000000E+00 0. -1.
         25    2    1    2    0    0 -0.50374024509E+02 -0.14880516389E+03  0.17166816096E+04  0.17283810500E+04  0.12499914401E+03 0.  0.
          2    1    1    2  501    0  0.27387090003E+02  0.87904052638E+02 -0.80372511209E+02  0.12221667532E+03  0.00000000000E+00 0. -1.
          1    1    1    2  502    0  0.22986934506E+02  0.60901111252E+02  0.95053389350E+03  0.95276021496E+03  0.00000000000E+00 0. -1.
         22    1    3    3    0    0 -0.10234480238E+01 -0.12318353659E+03  0.74553827995E+03  0.75564711209E+03  0.00000000000E+00 0. -1.
         22    1    3    3    0    0 -0.49350576485E+02 -0.25621627304E+02  0.97114332966E+03  0.97273393789E+03  0.00000000000E+00 0. -1.
</event>
<event>
 7    1  0.6358809E-006  0.1103099E+03  0.7818608E-02  0.1343768E+00
          2   -1    0    0  502    0  0.00000000000E+00  0.00000000000E+00  0.30366170432E+04  0.30366170432E+04  0.00000000000E+00 0. -1.
          1   -1    0    0  501    0 -0.00000000000E+00 -0.00000000000E+00 -0.33716507684E+03  0.33716507684E+03  0.00000000000E+00 0. -1.
         25    2    1    2    0    0 -0.67824423806E+02  0.97017175384E+02  0.73480231258E+03  0.75469945528E+03  0.12499737773E+03 0.  0.
          2    1    1    2  501    0  0.49594099313E+02  0.12054581395E+02 -0.32388304524E+03  0.32787972584E+03  0.00000000000E+00 0. -1.
          1    1    1    2  502    0  0.18230324492E+02 -0.10907175678E+03  0.22885326990E+04  0.22912029389E+04  0.00000000000E+00 0. -1.
         22    1    3    3    0    0 -0.11962463867E+02  0.11638705184E+01  0.43275043508E+03  0.43291730642E+03  0.00000000000E+00 0.  1.
         22    1    3    3    0    0 -0.55861959939E+02  0.95853304865E+02  0.30205187750E+03  0.32178214886E+03  0.00000000000E+00 0.  1.
</event>
<event>
 7    1  0.6358809E-006  0.1135233E+03  0.7818608E-02  0.1308465E+00
          2   -1    0    0  502    0  0.00000000000E+00  0.00000000000E+00  0.39586700734E+03  0.39586700734E+03  0.00000000000E+00 0. -1.
          1   -1    0    0  501    0 -0.00000000000E+00 -0.00000000000E+00 -0.22010681195E+04  0.22010681195E+04  0.00000000000E+00 0. -1.
         25    2    1    2    0    0  0.13720473631E+03 -0.67243149297E+02 -0.44519943335E+03  0.48700563313E+03  0.12500068180E+03 0.  0.
          2    1    1    2  501    0 -0.64878362895E+02 -0.19633373184E+02 -0.17257651892E+04  0.17270958745E+04  0.00000000000E+00 0. -1.
          1    1    1    2  502    0 -0.72326373417E+02  0.86876522481E+02  0.36576351042E+03  0.38283361922E+03  0.00000000000E+00 0. -1.
         22    1    3    3    0    0  0.79573033056E+02 -0.79798580104E+02 -0.15958242289E+03  0.19536179430E+03  0.00000000000E+00 0.  1.
         22    1    3    3    0    0  0.57631703256E+02  0.12555430807E+02 -0.28561701046E+03  0.29164383883E+03  0.00000000000E+00 0.  1.
</event>
<event>
 7    1  0.6358809E-006  0.1013411E+03  0.7818608E-02  0.1416552E+00
          2   -1    0    0  502    0  0.00000000000E+00  0.00000000000E+00  0.13655105885E+04  0.13655105885E+04  0.00000000000E+00 0. -1.
          1   -1    0    0  501    0 -0.00000000000E+00 -0.00000000000E+00 -0.33323677882E+03  0.33323677882E+03  0.00000000000E+00 0. -1.
         25    2    1    2    0    0 -0.25400392208E+02  0.12896915831E+03 -0.89707370574E+02  0.20236338154E+03  0.12500120853E+03 0.  0.
          2    1    1    2  501    0  0.31235832773E+01 -0.30517747600E+02 -0.18398384570E+03  0.18652384611E+03  0.00000000000E+00 0. -1.
          1    1    1    2  502    0  0.22276808931E+02 -0.98451410709E+02  0.13059650259E+04  0.13098601397E+04  0.00000000000E+00 0. -1.
         22    1    3    3    0    0 -0.67422139777E+02  0.11298728844E+03 -0.86139500256E+02  0.15726374594E+03  0.00000000000E+00 0. -1.
         22    1    3    3    0    0  0.42021747569E+02  0.15981869867E+02 -0.35678703182E+01  0.45099635606E+02  0.00000000000E+00 0. -1.
</event>
<event>
 7    1  0.6358809E-006  0.7162507E+02  0.7818608E-02  0.1393401E+00
          2   -1    0    0  502    0  0.00000000000E+00  0.00000000000E+00  0.11365050389E+03  0.11365050389E+03  0.00000000000E+00 0. -1.
          1   -1    0    0  501    0 -0.00000000000E+00 -0.00000000000E+00 -0.71295808120E+03  0.71295808120E+03  0.00000000000E+00 0. -1.
         25    2    1    2    0    0  0.42812460985E+02  0.56523211724E+01 -0.11337224734E+03  0.17420275091E+03  0.12501390486E+03 0.  0.
          2    1    1    2  501    0  0.20964740398E+02 -0.47661095821E+02 -0.55016137497E+03  0.55261979598E+03  0.00000000000E+00 0. -1.
          1    1    1    2  502    0 -0.63777201383E+02  0.42008774649E+02  0.64226044997E+02  0.99786038200E+02  0.00000000000E+00 0. -1.
         22    1    3    3    0    0 -0.17811317280E+02  0.30779012077E+02  0.77950562751E+01  0.36405404956E+02  0.00000000000E+00 0.  1.
         22    1    3    3    0    0  0.60623778265E+02 -0.25126690905E+02 -0.12116730361E+03  0.13779734595E+03  0.00000000000E+00 0.  1.
</event>
<event>
 7    1  0.6358809E-006  0.6127211E+02  0.7818608E-02  0.1497437E+00
          2   -1    0    0  502    0  0.00000000000E+00  0.00000000000E+00  0.68036221299E+02  0.68036221299E+02  0.00000000000E+00 0. -1.
          1   -1    0    0  501    0 -0.00000000000E+00 -0.00000000000E+00 -0.11674275151E+04  0.11674275151E+04  0.00000000000E+00 0. -1.
         25    2    1    2    0    0  0.82490021528E+02 -0.47408396284E+01 -0.15945516059E+03  0.21882174027E+03  0.12501970471E+03 0.  0.
          2    1    1    2  501    0 -0.24331350640E+02  0.14080235707E+02 -0.95534309823E+03  0.95575661284E+03  0.00000000000E+00 0. -1.
          1    1    1    2  502    0 -0.58158670888E+02 -0.93393960787E+01  0.15406965067E+02  0.60885383231E+02  0.00000000000E+00 0. -1.
         22    1    3    3    0    0  0.31446754959E+02 -0.49239716097E+02 -0.13452033237E+03  0.14666004180E+03  0.00000000000E+00 0.  1.
         22    1    3    3    0    0  0.51043266569E+02  0.44498876468E+02 -0.24934828220E+02  0.72161698479E+02  0.00000000000E+00 0.  1.
</event>
<event>
 7    1  0.6358809E-006  0.9851030E+02  0.7818608E-02  0.1288789E+00
          2   -1    0    0  502    0  0.00000000000E+00  0.00000000000E+00  0.16873922732E+04  0.16873922732E+04  0.00000000000E+00 0. -1.
          1   -1    0    0  501    0 -0.00000000000E+00 -0.00000000000E+00 -0.77664816530E+03  0.77664816530E+03  0.00000000000E+00 0. -1.
         25    2    1    2    0    0 -0.56105939581E+02 -0.79801424570E+01  0.44760313666E+02  0.14435948965E+03  0.12499846976E+03 0.  0.
          2    1    1    2  501    0  0.28741118661E+02 -0.89168300584E+02 -0.72222117245E+03  0.72827224283E+03  0.00000000000E+00 0. -1.
          1    1    1    2  502    0  0.27364820920E+02  0.97148443041E+02  0.15882049667E+04  0.15914087060E+04  0.00000000000E+00 0. -1.
         22    1    3    3    0    0  0.37869776825E+02 -0.27075502464E+00  0.31261426138E+02  0.49106721223E+02  0.00000000000E+00 0.  1.
         22    1    3    3    0    0 -0.93975716406E+02 -0.77093874324E+01  0.13498887528E+02  0.95252768427E+02  0.00000000000E+00 0.  1.
</event>
<event>
 7    1  0.6358809E-006  0.3724612E+02  0.7818608E-02  0.1531260E+00
          2   -1    0    0  502    0  0.00000000000E+00  0.00000000000E+00  0.15603798268E+03  0.15603798268E+03  0.00000000000E+00 0. -1.
          1   -1    0    0  501    0 -0.00000000000E+00 -0.00000000000E+00 -0.49259474342E+03  0.49259474342E+03  0.00000000000E+00 0. -1.
         25    2    1    2    0    0  0.18390990894E+02  0.47665887754E+01 -0.10800559001E+03  0.16629890851E+03  0.12501668122E+03 0.  0.
          2    1    1    2  501    0 -0.19586603148E+02  0.32460341031E+02 -0.35166835169E+03  0.35370600552E+03  0.00000000000E+00 0. -1.
          1    1    1    2  502    0  0.11956122537E+01 -0.37226929806E+02  0.12311718095E+03  0.12862781207E+03  0.00000000000E+00 0. -1.
         22    1    3    3    0    0  0.24667279362E+01 -0.27831564110E+02  0.19277983155E+02  0.33945858982E+02  0.00000000000E+00 0.  1.
         22    1    3    3    0    0  0.15924262958E+02  0.32598152885E+02 -0.12728357316E+03  0.13235304953E+03  0.00000000000E+00 0.  1.
</event>
<event>
 7    1  0.6358809E-006  0.2086795E+03  0.7818608E-02  0.1304454E+00
          2   -1    0    0  502    0  0.00000000000E+00  0.00000000000E+00  0.77018231225E+03  0.77018231225E+03  0.00000000000E+00 0. -1.
          1   -1    0    0  501    0 -0.00000000000E+00 -0.00000000000E+00 -0.14995533495E+04  0.14995533495E+04  0.00000000000E+00 0. -1.
         25    2    1    2    0    0 -0.19455538486E+03  0.13656191255E+03 -0.11070533244E+04  0.11391651506E+04  0.12501689280E+03 0.  0.
          2    1    1    2  501    0  0.38232645821E+02  0.11432541344E+01 -0.36102718140E+03  0.36304774886E+03  0.00000000000E+00 0. -1.
          1    1    1    2  502    0  0.15632273904E+03 -0.13770516669E+03  0.73870946858E+03  0.76752276230E+03  0.00000000000E+00 0. -1.
         22    1    3    3    0    0 -0.52412776841E+02  0.62649182174E+02 -0.17108482520E+03  0.18958385115E+03  0.00000000000E+00 0. -1.
         22    1    3    3    0    0 -0.14214260801E+03  0.73912730377E+02 -0.93596849921E+03  0.94958129944E+03  0.00000000000E+00 0. -1.
</event>
<event>
 7    1  0.6358809E-006  0.8135803E+02  0.7818608E-02  0.1329279E+00
          2   -1    0    0  502    0  0.00000000000E+00  0.00000000000E+00  0.53852483837E+03  0.53852483837E+03  0.00000000000E+00 0. -1.
          1   -1    0    0  501    0 -0.00000000000E+00 -0.00000000000E+00 -0.32188147742E+03  0.32188147742E+03  0.00000000000E+00 0. -1.
         25    2    1    2    0    0 -0.57654038966E+02  0.15541447212E+02  0.18997831569E+02  0.13982724003E+03  0.12500085863E+03 0.  0.
          2    1    1    2  501    0  0.47904919645E+02  0.65759008367E+02 -0.25134427849E+03  0.26418378988E+03  0.00000000000E+00 0. -1.
          1    1    1    2  502    0  0.97491193214E+01 -0.81300455580E+02  0.44898980786E+03  0.45639528588E+03  0.00000000000E+00 0. -1.
         22    1    3    3    0    0 -0.52584855915E+01  0.65705078810E+02  0.67017777601E+01  0.66254983793E+02  0.00000000000E+00 0.  1.
         22    1    3    3    0    0 -0.52395553375E+02 -0.50163631598E+02  0.12296053809E+02  0.73572256237E+02  0.00000000000E+00 0.  1.
</event>
<event>
 7    1  0.6358809E-006  0.5052503E+02  0.7818608E-02  0.1475566E+00
          2   -1    0    0  502    0  0.00000000000E+00  0.00000000000E+00  0.17922195923E+04  0.17922195923E+04  0.00000000000E+00 0. -1.
          1   -1    0    0  501    0 -0.00000000000E+00 -0.00000000000E+00 -0.39256421050E+02  0.39256421050E+02  0.00000000000E+00 0. -1.
         25    2    1    2    0    0  0.40337027054E+02  0.33032022284E+02  0.88108030826E+03  0.89142838325E+03  0.12499545035E+03 0.  0.
          2    1    1    2  501    0  0.11691765654E+02 -0.37972408970E+02 -0.21473952267E+02  0.45163390629E+02  0.00000000000E+00 0. -1.
          1    1    1    2  502    0 -0.52028792708E+02  0.49403866865E+01  0.89335681525E+03  0.89488423947E+03  0.00000000000E+00 0. -1.
         22    1    3    3    0    0 -0.33721595087E+02  0.44521186339E+02  0.26607084797E+03  0.27186941378E+03  0.00000000000E+00 0. -1.
         22    1    3    3    0    0  0.74058622141E+02 -0.11489164056E+02  0.61500946028E+03  0.61955896946E+03  0.00000000000E+00 0. -1.
</event>
<event>
 7    1  0.6358809E-006  0.6890915E+02  0.7818608E-02  0.1410224E+00
          2   -1    0    0  502    0  0.00000000000E+00  0.00000000000E+00  0.19354344949E+03  0.19354344949E+03  0.00000000000E+00 0. -1.
          1   -1    0    0  501    0 -0.00000000000E+00 -0.00000000000E+00 -0.28258650425E+03  0.28258650425E+03  0.00000000000E+00 0. -1.
         25    2    1    2    0    0  0.84239443593E+02 -0.76215089574E+02  0.73092252308E+02  0.18404449703E+03  0.12499950322E+03 0.  0.
          2    1    1    2  501    0 -0.44711431735E+02  0.50079219812E+02 -0.21254741166E+03  0.22289782993E+03  0.00000000000E+00 0. -1.
          1    1    1    2  502    0 -0.39528011858E+02  0.26135869761E+02  0.50412104586E+02  0.69187626773E+02  0.00000000000E+00 0. -1.
         22    1    3    3    0    0  0.71250577724E+02  0.17858650749E+02  0.38832395848E+02  0.83087491236E+02  0.00000000000E+00 0. -1.
         22    1    3    3    0    0  0.12988865869E+02 -0.94073740322E+02  0.34259856459E+02  0.10095700580E+03  0.00000000000E+00 0. -1.
</event>
<event>
 7    1  0.6358809E-006  0.5919620E+02  0.7818608E-02  0.1448261E+00
          2   -1    0    0  502    0  0.00000000000E+00  0.00000000000E+00  0.29719919021E+02  0.29719919021E+02  0.00000000000E+00 0. -1.
          1   -1    0    0  501    0 -0.00000000000E+00 -0.00000000000E+00 -0.84427346436E+03  0.84427346436E+03  0.00000000000E+00 0. -1.
         25    2    1    2    0    0 -0.10580675573E+02  0.91490346529E+02 -0.56698195829E+03  0.58785708359E+03  0.12499990201E+03 0.  0.
          2    1    1    2  501    0  0.55874548601E+01 -0.50463294847E+02 -0.23847171724E+03  0.24381657799E+03  0.00000000000E+00 0. -1.
          1    1    1    2  502    0  0.49932207126E+01 -0.41027051681E+02 -0.90998698123E+01  0.42319721801E+02  0.00000000000E+00 0. -1.
         22    1    3    3    0    0 -0.19349202288E+02  0.11925034003E+03 -0.38346243893E+03  0.40204287993E+03  0.00000000000E+00 0.  1.
         22    1    3    3    0    0  0.87685267155E+01 -0.27759993501E+02 -0.18351951935E+03  0.18581420366E+03  0.00000000000E+00 0.  1.
</event>
<event>
 7    1  0.6358809E-006  0.5045009E+02  0.7818608E-02  0.1512722E+00
          2   -1    0    0  502    0  0.00000000000E+00  0.00000000000E+00  0.82491206187E+02  0.82491206187E+02  0.00000000000E+00 0. -1.
          1   -1    0    0  501    0 -0.00000000000E+00 -0.00000000000E+00 -0.77934067606E+03  0.77934067606E+03  0.00000000000E+00 0. -1.
         25    2    1    2    0    0  0.20889076573E+02 -0.14202820100E+02 -0.14220002395E+03  0.19100773237E+03  0.12500013358E+03 0.  0.
          2    1    1    2  501    0  0.30497251318E+02  0.40133439517E+01 -0.60045107171E+03  0.60123845419E+03  0.00000000000E+00 0. -1.
          1    1    1    2  502    0 -0.51386327891E+02  0.10189476148E+02  0.45801625798E+02  0.69585695685E+02  0.00000000000E+00 0. -1.
         22    1    3    3    0    0  0.19359565466E+02  0.32558511022E+02 -0.13904813384E+03  0.14411534596E+03  0.00000000000E+00 0. -1.
         22    1    3    3    0    0  0.15295111063E+01 -0.46761331122E+02 -0.31518901109E+01  0.46892386417E+02  0.00000000000E+00 0. -1.
</event>
<event>
 7    1  0.6358809E-006  0.7605537E+02  0.7818608E-02  0.1511981E+00
          2   -1    0    0  502    0  0.00000000000E+00  0.00000000000E+00  0.19990237880E+03  0.19990237880E+03  0.00000000000E+00 0. -1.
          1   -1    0    0  501    0 -0.00000000000E+00 -0.00000000000E+00 -0.18444076667E+04  0.18444076667E+04  0.00000000000E+00 0. -1.
         25    2    1    2    0    0 -0.50801892125E+02  0.29934120847E+02  0.12341026783E+02  0.13876022035E+03  0.12500085590E+03 0.  0.
          2    1    1    2  501    0  0.58453181270E+02 -0.48959931601E+02 -0.17795306583E+04  0.17811634437E+04  0.00000000000E+00 0. -1.
          1    1    1    2  502    0 -0.76512891458E+01  0.19025810753E+02  0.12268434366E+03  0.12438638141E+03  0.00000000000E+00 0. -1.
         22    1    3    3    0    0  0.35156389349E+02 -0.70785160878E+01  0.25842517185E+02  0.44203085826E+02  0.00000000000E+00 0. -1.
         22    1    3    3    0    0 -0.85958281474E+02  0.37012636935E+02 -0.13501490401E+02  0.94557134527E+02  0.00000000000E+00 0. -1.
</event>
<event>
 7    1  0.6358809E-006  0.7500883E+02  0.7818608E-02  0.1459431E+00
          2   -1    0    0  502    0  0.00000000000E+00  0.00000000000E+00  0.23151393476E+04  0.23151393476E+04  0.00000000000E+00 0. -1.
          1   -1    0    0  501    0 -0.00000000000E+00 -0.00000000000E+00 -0.26544154799E+03  0.26544154799E+03  0.00000000000E+00 0. -1.
         25    2    1    2    0    0  0.55504113049E+02 -0.10098710495E+02  0.16851160855E+03  0.21726438431E+03  0.12499983983E+03 0.  0.
          2    1    1    2  501    0 -0.74534361618E+02 -0.13162488377E+02 -0.23501488231E+03  0.24690203942E+03  0.00000000000E+00 0. -1.
          1    1    1    2  502    0  0.19030248569E+02  0.23261198872E+02  0.21162010734E+04  0.21164144719E+04  0.00000000000E+00 0. -1.
         22    1    3    3    0    0  0.36283414811E+02 -0.61862793490E+02  0.52815882518E+02  0.89067439926E+02  0.00000000000E+00 0. -1.
         22    1    3    3    0    0  0.19220698238E+02  0.51764082995E+02  0.11569572603E+03  0.12819694439E+03  0.00000000000E+00 0. -1.
</event>
<event>
 7    1  0.6358809E-006  0.5529598E+02  0.7818608E-02  0.1470589E+00
          2   -1    0    0  502    0  0.00000000000E+00  0.00000000000E+00  0.20794608113E+04  0.20794608113E+04  0.00000000000E+00 0. -1.
          1   -1    0    0  501    0 -0.00000000000E+00 -0.00000000000E+00 -0.12665638621E+02  0.12665638621E+02  0.00000000000E+00 0. -1.
         25    2    1    2    0    0  0.59722279544E+02  0.83721986069E+01  0.12157396410E+04  0.12236364682E+04  0.12500594892E+03 0.  0.
          2    1    1    2  501    0 -0.10477610190E+02 -0.36126689041E+02  0.37989743104E+02  0.53461561495E+02  0.00000000000E+00 0. -1.
          1    1    1    2  502    0 -0.49244669354E+02  0.27754490434E+02  0.81306578855E+03  0.81502842018E+03  0.00000000000E+00 0. -1.
         22    1    3    3    0    0  0.68403234141E+02  0.31935713462E+02  0.37506119685E+03  0.38258305454E+03  0.00000000000E+00 0. -1.
         22    1    3    3    0    0 -0.86809545970E+01 -0.23563514855E+02  0.84067844414E+03  0.84105341367E+03  0.00000000000E+00 0. -1.
</event>
<event>
 7    1  0.6358809E-006  0.7262071E+02  0.7818608E-02  0.1478562E+00
          2   -1    0    0  502    0  0.00000000000E+00  0.00000000000E+00  0.10574402545E+04  0.10574402545E+04  0.00000000000E+00 0. -1.
          1   -1    0    0  501    0 -0.00000000000E+00 -0.00000000000E+00 -0.56042478841E+03  0.56042478841E+03  0.00000000000E+00 0. -1.
         25    2    1    2    0    0 -0.60760593385E+02  0.36025299678E+00  0.13973148580E+03  0.19708335049E+03  0.12499991770E+03 0.  0.
          2    1    1    2  501    0 -0.78283342011E+01  0.25904530780E+02 -0.52988608436E+03  0.53057665792E+03  0.00000000000E+00 0. -1.
          1    1    1    2  502    0  0.68588927586E+02 -0.26264783777E+02  0.88717006461E+03  0.89020503447E+03  0.00000000000E+00 0. -1.
         22    1    3    3    0    0  0.25938317120E+02  0.25892951017E+02  0.83052242145E+01  0.37579488510E+02  0.00000000000E+00 0.  1.
         22    1    3    3    0    0 -0.86698910505E+02 -0.25532698021E+02  0.13142626158E+03  0.15950386198E+03  0.00000000000E+00 0.  1.
</event>
<event>
 7    1  0.6358809E-006  0.5496286E+02  0.7818608E-02  0.1526045E+00
          2   -1    0    0  502    0  0.00000000000E+00  0.00000000000E+00  0.25549969311E+02  0.25549969311E+02  0.00000000000E+00 0. -1.
          1   -1    0    0  501    0 -0.00000000000E+00 -0.00000000000E+00 -0.12643709534E+04  0.12643709534E+04  0.00000000000E+00 0. -1.
         25    2    1    2    0    0 -0.45363249688E+02  0.25941356743E+02 -0.67103917342E+03  0.68458048322E+03  0.12500434923E+03 0.  0.
          2    1    1    2  501    0  0.15391397157E+02  0.20738833363E+02 -0.54460918625E+03  0.54522120288E+03  0.00000000000E+00 0. -1.
          1    1    1    2  502    0  0.29971852530E+02 -0.46680190105E+02 -0.23172624464E+02  0.60119236663E+02  0.00000000000E+00 0. -1.
         22    1    3    3    0    0 -0.23635126276E+02  0.24408034007E+02 -0.37251843103E+02  0.50418956085E+02  0.00000000000E+00 0.  1.
         22    1    3    3    0    0 -0.21728123412E+02  0.15333227359E+01 -0.63378733031E+03  0.63416152713E+03  0.00000000000E+00 0.  1.
</event>
<event>
 7    1  0.6358809E-006  0.7923020E+02  0.7818608E-02  0.1354214E+00
          2   -1    0    0  502    0  0.00000000000E+00  0.00000000000E+00  0.11841808888E+04  0.11841808888E+04  0.00000000000E+00 0. -1.
          1   -1    0    0  501    0 -0.00000000000E+00 -0.00000000000E+00 -0.40759491276E+02  0.40759491276E+02  0.00000000000E+00 0. -1.
         25    2    1    2    0    0  0.99488714535E+02  0.19068423070E+02  0.37772371295E+03  0.41056456115E+03  0.12500578575E+03 0.  0.
          2    1    1    2  501    0 -0.49481225263E+02  0.42135691425E+02  0.25252586130E+02  0.69724466664E+02  0.00000000000E+00 0. -1.
          1    1    1    2  502    0 -0.50007489272E+02 -0.61204114494E+02  0.74044509846E+03  0.74465135227E+03  0.00000000000E+00 0. -1.
         22    1    3    3    0    0  0.11662222664E+03 -0.19343805863E+02  0.26202376779E+03  0.28745674711E+03  0.00000000000E+00 0.  1.
         22    1    3    3    0    0 -0.17133512101E+02  0.38412228933E+02  0.11569994516E+03  0.12310781404E+03  0.00000000000E+00 0.  1.
</event>
<event>
 7    1  0.6358809E-006  0.1025683E+03  0.7818608E-02  0.1290613E+00
          2   -1    0    0  502    0  0.00000000000E+00  0.00000000000E+00  0.24958508858E+04  0.24958508858E+04  0.00000000000E+00 0. -1.
          1   -1    0    0  501    0 -0.00000000000E+00 -0.00000000000E+00 -0.18275613292E+03  0.18275613292E+03  0.00000000000E+00 0. -1.
         25    2    1    2    0    0 -0.32250851970E+02  0.17345335568E+03  0.15425906445E+03  0.26560588687E+03  0.12499777648E+03 0.  0.
          2    1    1    2  501    0 -0.10570439218E+02 -0.96055012991E+02 -0.10772397938E+03  0.14471612018E+03  0.00000000000E+00 0. -1.
          1    1    1    2  502    0  0.42821291187E+02 -0.77398342693E+02  0.22665596679E+04  0.22682850117E+04  0.00000000000E+00 0. -1.
         22    1    3    3    0    0 -0.31251638886E+02  0.33774011075E+02  0.10974544010E+03  0.11900172428E+03  0.00000000000E+00 0.  1.
         22    1    3    3    0    0 -0.99921308406E+00  0.13967934461E+03  0.44513624342E+02  0.14660416259E+03  0.00000000000E+00 0.  1.
</event>
<event>
 7    1  0.6358809E-006  0.1259057E+03  0.7818608E-02  0.1314616E+00
          2   -1    0    0  502    0  0.00000000000E+00  0.00000000000E+00  0.10653071254E+04  0.10653071254E+04  0.00000000000E+00 0. -1.
          1   -1    0    0  501    0 -0.00000000000E+00 -0.00000000000E+00 -0.10844287199E+03  0.10844287199E+03  0.00000000000E+00 0. -1.
         25    2    1    2    0    0 -0.94321776087E+02  0.72725128564E+02  0.46182482330E+02  0.17872677317E+03  0.12499958402E+03 0.  0.
          2    1    1    2  501    0 -0.30602639291E+02 -0.49043145571E+02 -0.15743392930E+02  0.59913321391E+02  0.00000000000E+00 0. -1.
          1    1    1    2  502    0  0.12492441538E+03 -0.23681982992E+02  0.92642516398E+03  0.93510990281E+03  0.00000000000E+00 0. -1.
         22    1    3    3    0    0 -0.15517985983E+02 -0.16929926471E+02 -0.29503828261E+02  0.37388583570E+02  0.00000000000E+00 0. -1.
         22    1    3    3    0    0 -0.78803790105E+02  0.89655055035E+02  0.75686310592E+02  0.14133818960E+03  0.00000000000E+00 0. -1.
</event>
<event>
 7    1  0.6358809E-006  0.5916981E+02  0.7818608E-02  0.1437627E+00
          2   -1    0    0  502    0  0.00000000000E+00  0.00000000000E+00  0.12867014898E+03  0.12867014898E+03  0.00000000000E+00 0. -1.
          1   -1    0    0  501    0 -0.00000000000E+00 -0.00000000000E+00 -0.26387523899E+03  0.26387523899E+03  0.00000000000E+00 0. -1.
         25    2    1    2    0    0  0.18578917120E+02 -0.18627599312E+02 -0.12427853850E+03  0.17821918951E+03  0.12499904304E+03 0.  0.
          2    1    1    2  501    0  0.42847186527E+02  0.12921651166E+02 -0.97929774450E+02  0.10767121800E+03  0.00000000000E+00 0. -1.
          1    1    1    2  502    0 -0.61426103648E+02  0.57059481464E+01  0.87003222939E+02  0.10665498045E+03  0.00000000000E+00 0. -1.
         22    1    3    3    0    0 -0.20365897563E+02  0.52282780434E+01 -0.13044986982E+03  0.13213354310E+03  0.00000000000E+00 0.  1.
         22    1    3    3    0    0  0.38944814683E+02 -0.23855877356E+02  0.61713313215E+01  0.46085646414E+02  0.00000000000E+00 0.  1.
</event>
<event>
 7    1  0.6358809E-006  0.5059642E+02  0.7818608E-02  0.1454237E+00
          2   -1    0    0  502    0  0.00000000000E+00  0.00000000000E+00  0.49014276576E+03  0.49014276576E+03  0.00000000000E+00 0. -1.
          1   -1    0    0  501    0 -0.00000000000E+00 -0.00000000000E+00 -0.65409593854E+03  0.65409593854E+03  0.00000000000E+00 0. -1.
         25    2    1    2    0    0 -0.53770640160E+02 -0.52499579874E+02 -0.33787612445E+03  0.36801218404E+03  0.12500081801E+03 0.  0.
          2    1    1    2  501    0  0.36126198516E+01  0.46134059147E+02 -0.29801579107E+03  0.30158715848E+03  0.00000000000E+00 0. -1.
          1    1    1    2  502    0  0.50158020308E+02  0.63655207270E+01  0.47193874273E+03  0.47463936177E+03  0.00000000000E+00 0. -1.
         22    1    3    3    0    0 -0.55122864193E+02 -0.67031428409E+01 -0.44720381079E+02  0.71297789339E+02  0.00000000000E+00 0.  1.
         22    1    3    3    0    0  0.13522240331E+01 -0.45796437033E+02 -0.29315574337E+03  0.29671439470E+03  0.00000000000E+00 0.  1.
</event>
<event>
 7    1  0.6358809E-006  0.8089441E+02  0.7818608E-02  0.1433659E+00
          2   -1    0    0  502    0  0.00000000000E+00  0.00000000000E+00  0.20967626443E+04  0.20967626443E+04  0.00000000000E+00 0. -1.
          1   -1    0    0  501    0 -0.00000000000E+00 -0.00000000000E+00 -0.15329514803E+03  0.15329514803E+03  0.00000000000E+00 0. -1.
         25    2    1    2    0    0 -0.49558843911E+01  0.77057551551E+02  0.61469199048E+02  0.15927119709E+03  0.12500569886E+03 0.  0.
          2    1    1    2  501    0 -0.28769940526E+02 -0.77121708104E+02 -0.88001663044E+02  0.12049796694E+03  0.00000000000E+00 0. -1.
          1    1    1    2  502    0  0.33725824917E+02  0.64156553434E-01  0.19699999603E+04  0.19702886283E+04  0.00000000000E+00 0. -1.
         22    1    3    3    0    0 -0.39921490892E+02 -0.15668007934E+02  0.38302284340E+02  0.57500233855E+02  0.00000000000E+00 0.  1.
         22    1    3    3    0    0  0.34965606501E+02  0.92725559485E+02  0.23166914708E+02  0.10177096323E+03  0.00000000000E+00 0.  1.
</event>
<event>
 7    1  0.6358809E-006  0.1032426E+03  0.7818608E-02  0.1307115E+00
          2   -1    0    0  502    0  0.00000000000E+00  0.00000000000E+00  0.37846020972E+03  0.37846020972E+03  0.00000000000E+00 0. -1.
          1   -1    0    0  501    0 -0.00000000000E+00 -0.00000000000E+00 -0.46819914768E+03  0.46819914768E+03  0.00000000000E+00 0. -1.
         25    2    1    2    0    0 -0.48222049302E+02  0.19639369241E+02 -0.13253384279E+03  0.18947691412E+03  0.12500084255E+03 0.  0.
          2    1    1    2  501    0  0.12081997797E+03 -0.40208849450E+02 -0.28958554567E+03  0.31634475957E+03  0.00000000000E+00 0. -1.
          1    1    1    2  502    0 -0.72597928666E+02  0.20569480209E+02  0.33238045049E+03  0.34083768370E+03  0.00000000000E+00 0. -1.
         22    1    3    3    0    0  0.28012966774E+02  0.17659213034E+02 -0.10215489342E+03  0.10738806433E+03  0.00000000000E+00 0. -1.
         22    1    3    3    0    0 -0.76235016076E+02  0.19801562069E+01 -0.30378949371E+02  0.82088849789E+02  0.00000000000E+00 0. -1.
</event>
<event>
 7    1  0.6358809E-006  0.4753697E+03  0.7818608E-02  0.1140186E+00
          2   -1    0    0  502    0  0.00000000000E+00  0.00000000000E+00  0.10045236883E+04  0.10045236883E+04  0.00000000000E+00 0. -1.
          1   -1    0    0  501    0 -0.00000000000E+00 -0.00000000000E+00 -0.57812352877E+03  0.57812352877E+03  0.00000000000E+00 0. -1.
         25    2    1    2    0    0  0.24013140286E+03 -0.34185006235E+03  0.12493945388E+03  0.45360621686E+03  0.12499670823E+03 0.  0.
          2    1    1    2  501    0  0.77079159433E+02 -0.54367973801E+02 -0.31598317553E+03  0.32976118724E+03  0.00000000000E+00 0. -1.
          1    1    1    2  502    0 -0.31721056229E+03  0.39621803615E+03  0.61744388119E+03  0.79927981297E+03  0.00000000000E+00 0. -1.
         22    1    3    3    0    0  0.19939087999E+03 -0.24014313835E+03  0.14166353021E+03  0.34277398634E+03  0.00000000000E+00 0. -1.
         22    1    3    3    0    0  0.40740522870E+02 -0.10170692399E+03 -0.16724076330E+02  0.11083223052E+03  0.00000000000E+00 0. -1.
</event>
<event>
 7    1  0.6358809E-006  0.9712013E+02  0.7818608E-02  0.1339761E+00
          2   -1    0    0  502    0  0.00000000000E+00  0.00000000000E+00  0.13098562307E+03  0.13098562307E+03  0.00000000000E+00 0. -1.
          1   -1    0    0  501    0 -0.00000000000E+00 -0.00000000000E+00 -0.48460474750E+03  0.48460474750E+03  0.00000000000E+00 0. -1.
         25    2    1    2    0    0  0.23320215726E+02 -0.10770670974E+03 -0.20677995916E+02  0.16791931618E+03  0.12499899779E+03 0.  0.
          2    1    1    2  501    0  0.34355452522E+02  0.91126867287E+02 -0.36629030486E+03  0.37901581827E+03  0.00000000000E+00 0. -1.
          1    1    1    2  502    0 -0.57675668248E+02  0.16579842450E+02  0.33349176351E+02  0.68655236121E+02  0.00000000000E+00 0. -1.
         22    1    3    3    0    0  0.24255575516E+02  0.13153046910E+01  0.37241578350E+02  0.44463447101E+02  0.00000000000E+00 0. -1.
         22    1    3    3    0    0 -0.93535978957E+00 -0.10902201443E+03 -0.57919574266E+02  0.12345586908E+03  0.00000000000E+00 0. -1.
</event>
<event>
 7    1  0.6358809E-006  0.1552086E+03  0.7818608E-02  0.1304099E+00
          2   -1    0    0  502    0  0.00000000000E+00  0.00000000000E+00  0.11030216199E+04  0.11030216199E+04  0.00000000000E+00 0. -1.
          1   -1    0    0  501    0 -0.00000000000E+00 -0.00000000000E+00 -0.14675335296E+04  0.14675335296E+04  0.00000000000E+00 0. -1.
         25    2    1    2    0    0  0.17421800995E+02 -0.10637237584E+03  0.31031459728E+03  0.35148254484E+03  0.12500491411E+03 0.  0.
          2    1    1    2  501    0 -0.47205559064E+02  0.14850222367E+03 -0.14418851695E+04  0.14502807029E+04  0.00000000000E+00 0. -1.
          1    1    1    2  502    0  0.29783758069E+02 -0.42129847829E+02  0.76705866255E+03  0.76879190170E+03  0.00000000000E+00 0. -1.
         22    1    3    3    0    0  0.56352643436E+02 -0.53587270520E+01  0.11482140647E+03  0.12801676359E+03  0.00000000000E+00 0.  1.
         22    1    3    3    0    0 -0.38930842441E+02 -0.10101364878E+03  0.19549319082E+03  0.22346578125E+03  0.00000000000E+00 0.  1.
</event>
<event>
 7    1  0.6358809E-006  0.1270733E+03  0.7818608E-02  0.1281485E+00
          2   -1    0    0  502    0  0.00000000000E+00  0.00000000000E+00  0.31199879558E+04  0.31199879558E+04  0.00000000000E+00 0. -1.
          1   -1    0    0  501    0 -0.00000000000E+00 -0.00000000000E+00 -0.35006857893E+02  0.35006857893E+02  0.00000000000E+00 0. -1.
         25    2    1    2    0    0  0.85421900120E+02  0.36869741876E+01  0.37460601388E+03  0.40406118785E+03  0.12500113237E+03 0.  0.
          2    1    1    2  501    0 -0.16316534408E+03 -0.69231954679E+01  0.31974173206E+03  0.35903430945E+03  0.00000000000E+00 0. -1.
          1    1    1    2  502    0  0.77743443959E+02  0.32362212803E+01  0.23906333520E+04  0.23918993164E+04  0.00000000000E+00 0. -1.
         22    1    3    3    0    0 -0.29436389411E+02  0.19780008376E+02  0.88219974367E+02  0.95081615627E+02  0.00000000000E+00 0. -1.
         22    1    3    3    0    0  0.11485828953E+03 -0.16093034188E+02  0.28638603952E+03  0.30897957223E+03  0.00000000000E+00 0. -1.
</event>
<event>
 7    1  0.6358809E-006  0.9429039E+02  0.7818608E-02  0.1389820E+00
          2   -1    0    0  502    0  0.00000000000E+00  0.00000000000E+00  0.38106954593E+03  0.38106954593E+03  0.00000000000E+00 0. -1.
          1   -1    0    0  501    0 -0.00000000000E+00 -0.00000000000E+00 -0.26250775757E+04  0.26250775757E+04  0.00000000000E+00 0. -1.
         25    2    1    2    0    0 -0.69973652229E+02  0.53453039904E+01  0.24884366883E+02  0.14549614179E+03  0.12500004512E+03 0.  0.
          2    1    1    2  501    0 -0.18978000156E+02  0.36008962222E+02 -0.25564747355E+04  0.25567987569E+04  0.00000000000E+00 0. -1.
          1    1    1    2  502    0  0.88951652385E+02 -0.41354266212E+02  0.28758233884E+03  0.30385222298E+03  0.00000000000E+00 0. -1.
         22    1    3    3    0    0 -0.60593330445E+02  0.57322654435E+02 -0.71608251385E+01  0.83718073452E+02  0.00000000000E+00 0.  1.
         22    1    3    3    0    0 -0.93803217842E+01 -0.51977350444E+02  0.32045192022E+02  0.61778068339E+02  0.00000000000E+00 0.  1.
</event>
<event>
 7    1  0.6358809E-006  0.7754901E+02  0.7818608E-02  0.1422590E+00
          2   -1    0    0  502    0  0.00000000000E+00  0.00000000000E+00  0.11818786775E+04  0.11818786775E+04  0.00000000000E+00 0. -1.
          1   -1    0    0  501    0 -0.00000000000E+00 -0.00000000000E+00 -0.63442432052E+03  0.63442432052E+03  0.00000000000E+00 0. -1.
         25    2    1    2    0    0  0.53692199894E+02 -0.53907716704E+02 -0.59691188732E+02  0.15803992949E+03  0.12499874821E+03 0.  0.
          2    1    1    2  501    0 -0.74970094242E+02  0.22099734264E+02 -0.52232699297E+03  0.52814240587E+03  0.00000000000E+00 0. -1.
          1    1    1    2  502    0  0.21277894348E+02  0.31807982440E+02  0.11294725387E+04  0.11301206627E+04  0.00000000000E+00 0. -1.
         22    1    3    3    0    0  0.36289214170E+02 -0.61036167574E+02  0.21899770926E+02  0.74309627801E+02  0.00000000000E+00 0.  1.
         22    1    3    3    0    0  0.17402985723E+02  0.71284508709E+01 -0.81590959658E+02  0.83730301694E+02  0.00000000000E+00 0.  1.
</event>
<event>
 7    1  0.6358809E-006  0.1567857E+03  0.7818608E-02  0.1265705E+00
          2   -1    0    0  502    0  0.00000000000E+00  0.00000000000E+00  0.94970849876E+03  0.94970849876E+03  0.00000000000E+00 0. -1.
          1   -1    0    0  501    0 -0.00000000000E+00 -0.00000000000E+00 -0.46088735654E+03  0.46088735654E+03  0.00000000000E+00 0. -1.
         25    2    1    2    0    0  0.19458046990E+03 -0.97350681589E+02  0.19479773794E+03  0.31764176713E+03  0.12494566439E+03 0.  0.
          2    1    1    2  501    0 -0.14802337097E+03  0.40610560697E+02 -0.38266253929E+03  0.41229935116E+03  0.00000000000E+00 0. -1.
          1    1    1    2  502    0 -0.46557098930E+02  0.56740120891E+02  0.67668594357E+03  0.68065473701E+03  0.00000000000E+00 0. -1.
         22    1    3    3    0    0  0.42167705765E+02  0.23247005334E+02  0.75647115722E+02  0.89671761349E+02  0.00000000000E+00 0.  1.
         22    1    3    3    0    0  0.15241276413E+03 -0.12059768692E+03  0.11915062221E+03  0.22797000578E+03  0.00000000000E+00 0.  1.
</event>
<event>
 7    1  0.6358809E-006  0.8342996E+02  0.7818608E-02  0.1350137E+00
          2   -1    0    0  502    0  0.00000000000E+00  0.00000000000E+00  0.26234263982E+04  0.26234263982E+04  0.00000000000E+00 0. -1.
          1   -1    0    0  501    0 -0.00000000000E+00 -0.00000000000E+00 -0.31508558836E+03  0.31508558836E+03  0.00000000000E+00 0. -1.
         25    2    1    2    0    0  0.43917107796E+01 -0.49465419442E+02  0.85222085820E+03  0.86276987889E+03  0.12500143164E+03 0.  0.
          2    1    1    2  501    0 -0.68281624030E+02  0.48525731295E+02 -0.30355817726E+03  0.31490426126E+03  0.00000000000E+00 0. -1.
          1    1    1    2  502    0  0.63889913251E+02  0.93968814738E+00  0.17596781289E+04  0.17608378464E+04  0.00000000000E+00 0. -1.
         22    1    3    3    0    0 -0.43052050914E+02 -0.70069387305E+02  0.56004407988E+03  0.56604997088E+03  0.00000000000E+00 0.  1.
         22    1    3    3    0    0  0.47443761694E+02  0.20603967862E+02  0.29217677832E+03  0.29671990801E+03  0.00000000000E+00 0.  1.
</event>
<event>
 7    1  0.6358809E-006  0.8376135E+02  0.7818608E-02  0.1364319E+00
          2   -1    0    0  502    0  0.00000000000E+00  0.00000000000E+00  0.60979376125E+03  0.60979376125E+03  0.00000000000E+00 0. -1.
          1   -1    0    0  501    0 -0.00000000000E+00 -0.00000000000E+00 -0.47552173758E+03  0.47552173758E+03  0.00000000000E+00 0. -1.
         25    2    1    2    0    0 -0.11252369680E+03 -0.29797561396E+02  0.56787734953E+02  0.17999846042E+03  0.12500048762E+03 0.  0.
          2    1    1    2  501    0  0.81228704082E+02 -0.17201857421E+02 -0.40809998804E+03  0.41646081029E+03  0.00000000000E+00 0. -1.
          1    1    1    2  502    0  0.31294992722E+02  0.46999418817E+02  0.48558427676E+03  0.48885622812E+03  0.00000000000E+00 0. -1.
         22    1    3    3    0    0  0.27149383367E+02  0.30449494515E+01  0.95199382139E+01  0.28930778731E+02  0.00000000000E+00 0.  1.
         22    1    3    3    0    0 -0.13967308017E+03 -0.32842510848E+02  0.47267796739E+02  0.15106768169E+03  0.00000000000E+00 0.  1.
</event>
<event>
 7    1  0.6358809E-006  0.6613458E+02  0.7818608E-02  0.1420361E+00
          2   -1    0    0  502    0  0.00000000000E+00  0.00000000000E+00  0.40563090204E+03  0.40563090204E+03  0.00000000000E+00 0. -1.
          1   -1    0    0  501    0 -0.00000000000E+00 -0.00000000000E+00 -0.91618247946E+03  0.91618247946E+03  0.00000000000E+00 0. -1.
         25    2    1    2    0    0  0.97310629863E+02 -0.20898569671E+02  0.13912808087E+03  0.21187920034E+03  0.12502025336E+03 0.  0.
          2    1    1    2  501    0 -0.54595184224E+02  0.36995925115E+02 -0.87629190711E+03  0.87877007179E+03  0.00000000000E+00 0. -1.
          1    1    1    2  502    0 -0.42715445640E+02 -0.16097355444E+02  0.22661224882E+03  0.23116410937E+03  0.00000000000E+00 0. -1.
         22    1    3    3    0    0  0.10185335352E+03 -0.23867402455E+02  0.39063977212E+02  0.11166804753E+03  0.00000000000E+00 0.  1.
         22    1    3    3    0    0 -0.45427236543E+01  0.29688327834E+01  0.10006410366E+03  0.10021115281E+03  0.00000000000E+00 0.  1.
</event>
<event>
 7    1  0.6358809E-006  0.1304549E+03  0.7818608E-02  0.1322757E+00
          2   -1    0    0  502    0  0.00000000000E+00  0.00000000000E+00  0.20161835916E+04  0.20161835916E+04  0.00000000000E+00 0. -1.
          1   -1    0    0  501    0 -0.00000000000E+00 -0.00000000000E+00 -0.14249390425E+03  0.14249390425E+03  0.00000000000E+00 0. -1.
         25    2    1    2    0    0  0.27216565222E+02 -0.11482584444E+03  0.13689469247E+03  0.21975352271E+03  0.12500295173E+03 0.  0.
          2    1    1    2  501    0 -0.78876497069E+02  0.11015960815E+03 -0.55111711991E+02  0.14626668061E+03  0.00000000000E+00 0. -1.
          1    1    1    2  502    0  0.51659931847E+02  0.46662362882E+01  0.17919067069E+04  0.17926572926E+04  0.00000000000E+00 0. -1.
         22    1    3    3    0    0 -0.12898045253E+02 -0.10855146261E+03  0.14159234851E+03  0.17888033085E+03  0.00000000000E+00 0.  1.
         22    1    3    3    0    0  0.40114610476E+02 -0.62743818282E+01 -0.46976560377E+01  0.40873191864E+02  0.00000000000E+00 0.  1.
</event>
<event>
 7    1  0.6358809E-006  0.7450842E+02  0.7818608E-02  0.1513867E+00
          2   -1    0    0  502    0  0.00000000000E+00  0.00000000000E+00  0.13807574878E+04  0.13807574878E+04  0.00000000000E+00 0. -1.
          1   -1    0    0  501    0 -0.00000000000E+00 -0.00000000000E+00 -0.56090969963E+03  0.56090969963E+03  0.00000000000E+00 0. -1.
         25    2    1    2    0    0 -0.26591197230E+02 -0.56576959890E+02 -0.84255018391E+02  0.16319684535E+03  0.12500503209E+03 0.  0.
          2    1    1    2  501    0  0.12238330732E+02 -0.16654477854E+02 -0.43590076785E+03  0.43639045336E+03  0.00000000000E+00 0. -1.
          1    1    1    2  502    0  0.14352866498E+02  0.73231437744E+02  0.13400035744E+04  0.13420798887E+04  0.00000000000E+00 0. -1.
         22    1    3    3    0    0 -0.17625244241E+02  0.82910180976E+01 -0.94877477584E+02  0.96856212853E+02  0.00000000000E+00 0.  1.
         22    1    3    3    0    0 -0.89659529890E+01 -0.64867977988E+02  0.10622459192E+02  0.66340632500E+02  0.00000000000E+00 0.  1.
</event>
<event>
 7    1  0.6358809E-006  0.9137133E+02  0.7818608E-02  0.1301939E+00
          2   -1    0    0  502    0  0.00000000000E+00  0.00000000000E+00  0.11252907174E+04  0.11252907174E+04  0.00000000000E+00 0. -1.
          1   -1    0    0  501    0 -0.00000000000E+00 -0.00000000000E+00 -0.36224943055E+03  0.36224943055E+03  0.00000000000E+00 0. -1.
         25    2    1    2    0    0  0.12319385802E+03 -0.81655245374E+01  0.42516016319E+03  0.46004721623E+03  0.12505548509E+03 0.  0.
          2    1    1    2  501    0 -0.64587379501E+02 -0.61806647452E+02 -0.33588236168E+03  0.34757524674E+03  0.00000000000E+00 0. -1.
          1    1    1    2  502    0 -0.58606478518E+02  0.69972171989E+02  0.67376348534E+03  0.67991768499E+03  0.00000000000E+00 0. -1.
         22    1    3    3    0    0  0.59412857917E+02  0.57439280302E+02  0.17106712116E+03  0.18998189006E+03  0.00000000000E+00 0. -1.
         22    1    3    3    0    0  0.63781000102E+02 -0.65604804839E+02  0.25409304203E+03  0.27006532617E+03  0.00000000000E+00 0. -1.
</event>
<event>
 7    1  0.6358809E-006  0.6167854E+02  0.7818608E-02  0.1452528E+00
          2   -1    0    0  502    0  0.00000000000E+00  0.00000000000E+00  0.33155660699E+03  0.33155660699E+03  0.00000000000E+00 0. -1.
          1   -1    0    0  501    0 -0.00000000000E+00 -0.00000000000E+00 -0.23711780879E+04  0.23711780879E+04  0.00000000000E+00 0. -1.
         25    2    1    2    0    0 -0.36949415868E+02  0.52609129830E+02 -0.12121736201E+04  0.12202964457E+04  0.12500220110E+03 0.  0.
          2    1    1    2  501    0  0.59447365269E+02 -0.21441399249E+02 -0.11529467905E+04  0.11546774547E+04  0.00000000000E+00 0. -1.
          1    1    1    2  502    0 -0.22497949401E+02 -0.31167730581E+02  0.32549892966E+03  0.32776079443E+03  0.00000000000E+00 0. -1.
         22    1    3    3    0    0 -0.73816063498E+01  0.26356517645E+02 -0.46536594411E+02  0.53988968818E+02  0.00000000000E+00 0.  1.
         22    1    3    3    0    0 -0.29567809519E+02  0.26252612185E+02 -0.11656370257E+04  0.11663074769E+04  0.00000000000E+00 0.  1.
</event>
<event>
 7    1  0.6358809E-006  0.6551728E+02  0.7818608E-02  0.1528448E+00
          2   -1    0    0  502    0  0.00000000000E+00  0.00000000000E+00  0.10922465413E+04  0.10922465413E+04  0.00000000000E+00 0. -1.
          1   -1    0    0  501    0 -0.00000000000E+00 -0.00000000000E+00 -0.31308438287E+03  0.31308438287E+03  0.00000000000E+00 0. -1.
         25    2    1    2    0    0  0.58799268347E+02 -0.31569234649E+02  0.39711015380E+03  0.42163583056E+03  0.12500531518E+03 0.  0.
          2    1    1    2  501    0  0.60099888151E+01  0.20459294477E+02 -0.29885788356E+03  0.29961765179E+03  0.00000000000E+00 0. -1.
          1    1    1    2  502    0 -0.64809257162E+02  0.11109940172E+02  0.68090988819E+03  0.68407744183E+03  0.00000000000E+00 0. -1.
         22    1    3    3    0    0  0.58264202019E+02 -0.71022688492E+02  0.19300626455E+03  0.21375302962E+03  0.00000000000E+00 0. -1.
         22    1    3    3    0    0  0.53506632735E+00  0.39453453843E+02  0.20410388925E+03  0.20788280093E+03  0.00000000000E+00 0. -1.
</event>
<event>
 7    1  0.6358809E-006  0.1613279E+03  0.7818608E-02  0.1348192E+00
          2   -1    0    0  502    0  0.00000000000E+00  0.00000000000E+00  0.32876818301E+03  0.32876818301E+03  0.00000000000E+00 0. -1.
          1   -1    0    0  501    0 -0.00000000000E+00 -0.00000000000E+00 -0.52548313208E+03  0.52548313208E+03  0.00000000000E+00 0. -1.
         25    2    1    2    0    0  0.89962437789E+01  0.13042392269E+03  0.91918025869E+02  0.20288852449E+03  0.12499399137E+03 0.  0.
          2    1    1    2  501    0 -0.10322724042E+02 -0.16399529957E+03 -0.45389342148E+03  0.48272171587E+03  0.00000000000E+00 0. -1.
          1    1    1    2  502    0  0.13264802627E+01  0.33571376881E+02  0.16526044653E+03  0.16864107472E+03  0.00000000000E+00 0. -1.
         22    1    3    3    0    0  0.50373011587E+02  0.40078379604E+02 -0.43706926477E+01  0.64519917562E+02  0.00000000000E+00 0.  1.
         22    1    3    3    0    0 -0.41376767808E+02  0.90345543084E+02  0.96288718517E+02  0.13836860693E+03  0.00000000000E+00 0.  1.
</event>
<event>
 7    1  0.6358809E-006  0.1656650E+03  0.7818608E-02  0.1321412E+00
          2   -1    0    0  502    0  0.00000000000E+00  0.00000000000E+00  0.21293589881E+04  0.21293589881E+04  0.00000000000E+00 0. -1.
          1   -1    0    0  501    0 -0.00000000000E+00 -0.00000000000E+00 -0.12609937554E+03  0.12609937554E+03  0.00000000000E+00 0. -1.
         25    2    1    2    0    0 -0.14003722559E+03  0.40386923683E+02  0.12477413004E+03  0.22898724303E+03  0.12500018315E+03 0.  0.
          2    1    1    2  501    0 -0.26997358865E+02 -0.31304812183E+02 -0.64330160439E+02  0.76467105305E+02  0.00000000000E+00 0. -1.
          1    1    1    2  502    0  0.16703458446E+03 -0.90821114992E+01  0.19428156430E+04  0.19500040153E+04  0.00000000000E+00 0. -1.
         22    1    3    3    0    0 -0.12841351776E+02  0.44423267578E+02  0.83060702237E+02  0.95065279013E+02  0.00000000000E+00 0. -1.
         22    1    3    3    0    0 -0.12719587382E+03 -0.40363438955E+01  0.41713427800E+02  0.13392196402E+03  0.00000000000E+00 0. -1.
</event>
<event>
 7    1  0.6358809E-006  0.1349230E+03  0.7818608E-02  0.1246551E+00
          2   -1    0    0  502    0  0.00000000000E+00  0.00000000000E+00  0.30438410425E+03  0.30438410425E+03  0.00000000000E+00 0. -1.
          1   -1    0    0  501    0 -0.00000000000E+00 -0.00000000000E+00 -0.22467401412E+04  0.22467401412E+04  0.00000000000E+00 0. -1.
         25    2    1    2    0    0  0.16736691336E+03  0.61261601549E+02 -0.19964194332E+03  0.29537962895E+03  0.12501020819E+03 0.  0.
          2    1    1    2  501    0 -0.76689144384E+02 -0.11027751671E+03 -0.19865138143E+04  0.19910498461E+04  0.00000000000E+00 0. -1.
          1    1    1    2  502    0 -0.90677768979E+02  0.49015915161E+02  0.24379972059E+03  0.26469477041E+03  0.00000000000E+00 0. -1.
         22    1    3    3    0    0  0.25840856469E+01 -0.28529904543E+02 -0.15986912737E+02  0.32805705764E+02  0.00000000000E+00 0.  1.
         22    1    3    3    0    0  0.16478282772E+03  0.89791506092E+02 -0.18365503058E+03  0.26257392318E+03  0.00000000000E+00 0.  1.
</event>
<event>
 7    1  0.6358809E-006  0.7318743E+02  0.7818608E-02  0.1409279E+00
          2   -1    0    0  502    0  0.00000000000E+00  0.00000000000E+00  0.28581503071E+03  0.28581503071E+03  0.00000000000E+00 0. -1.
          1   -1    0    0  501    0 -0.00000000000E+00 -0.00000000000E+00 -0.25019713922E+03  0.25019713922E+03  0.00000000000E+00 0. -1.
         25    2    1    2    0    0  0.13989550899E+02  0.29858872394E+02 -0.91386791980E+02  0.15831706226E+03  0.12500194662E+03 0.  0.
          2    1    1    2  501    0 -0.49016883463E+01  0.44679688483E+02 -0.11544333627E+03  0.12388488609E+03  0.00000000000E+00 0. -1.
          1    1    1    2  502    0 -0.90878625527E+01 -0.74538560877E+02  0.24244801974E+03  0.25381022158E+03  0.00000000000E+00 0. -1.
         22    1    3    3    0    0  0.28584879978E+02  0.62457671096E+02 -0.10024307355E+03  0.12151843415E+03  0.00000000000E+00 0.  1.
         22    1    3    3    0    0 -0.14595329079E+02 -0.32598798702E+02  0.88562815746E+01  0.36798628114E+02  0.00000000000E+00 0.  1.
</event>
<event>
 7    1  0.6358809E-006  0.6941313E+02  0.7818608E-02  0.1374282E+00
          2   -1    0    0  502    0  0.00000000000E+00  0.00000000000E+00  0.27777357027E+04  0.27777357027E+04  0.00000000000E+00 0. -1.
          1   -1    0    0  501    0 -0.00000000000E+00 -0.00000000000E+00 -0.14477030660E+03  0.14477030660E+03  0.00000000000E+00 0. -1.
         25    2    1    2    0    0 -0.40112893084E+02 -0.44179392887E+02  0.12920213486E+04  0.12994256575E+04  0.12500804439E+03 0.  0.
          2    1    1    2  501    0 -0.37177091785E+02  0.50535965054E+02 -0.13302263732E+03  0.14707495353E+03  0.00000000000E+00 0. -1.
          1    1    1    2  502    0  0.77289984869E+02 -0.63565721670E+01  0.14739666847E+04  0.14760053982E+04  0.00000000000E+00 0. -1.
         22    1    3    3    0    0 -0.82782933475E+02 -0.10052765108E+02  0.83308142094E+03  0.83724472294E+03  0.00000000000E+00 0. -1.
         22    1    3    3    0    0  0.42670040391E+02 -0.34126627779E+02  0.45893992768E+03  0.46218093458E+03  0.00000000000E+00 0. -1.
</event>
<event>
 7    1  0.6358809E-006  0.6406387E+02  0.7818608E-02  0.1442332E+00
          2   -1    0    0  502    0  0.00000000000E+00  0.00000000000E+00  0.14862692183E+04  0.14862692183E+04  0.00000000000E+00 0. -1.
          1   -1    0    0  501    0 -0.00000000000E+00 -0.00000000000E+00 -0.44603875584E+02  0.44603875584E+02  0.00000000000E+00 0. -1.
         25    2    1    2    0    0 -0.16502244939E+02 -0.27517808418E+02  0.41619636323E+03  0.43574874929E+03  0.12501202294E+03 0.  0.
          2    1    1    2  501    0  0.55123699467E+02  0.37562318532E+02 -0.21414832987E+01  0.66739313505E+02  0.00000000000E+00 0. -1.
          1    1    1    2  502    0 -0.38621454528E+02 -0.10044510114E+02  0.10276104628E+04  0.10283850311E+04  0.00000000000E+00 0. -1.
         22    1    3    3    0    0 -0.59699098540E+02 -0.32496009033E+02  0.13432255081E+03  0.15054076068E+03  0.00000000000E+00 0. -1.
         22    1    3    3    0    0  0.43196853601E+02  0.49782006151E+01  0.28187381242E+03  0.28520798862E+03  0.00000000000E+00 0. -1.
</event>
<event>
 7    1  0.6358809E-006  0.1107427E+03  0.7818608E-02  0.1337440E+00
          2   -1    0    0  502    0  0.00000000000E+00  0.00000000000E+00  0.49287668373E+03  0.49287668373E+03  0.00000000000E+00 0. -1.
          1   -1    0    0  501    0 -0.00000000000E+00 -0.00000000000E+00 -0.97349964540E+03  0.97349964540E+03  0.00000000000E+00 0. -1.
         25    2    1    2    0    0 -0.50523006308E+02  0.11618296554E+03 -0.35798521403E+03  0.39978799782E+03  0.12500389631E+03 0.  0.
          2    1    1    2  501    0  0.53412751908E+02 -0.55517841734E+01 -0.58688287018E+03  0.58933458043E+03  0.00000000000E+00 0. -1.
          1    1    1    2  502    0 -0.28897455998E+01 -0.11063118137E+03  0.46424512254E+03  0.47725375088E+03  0.00000000000E+00 0. -1.
         22    1    3    3    0    0  0.92677800579E+01 -0.38799563107E+01 -0.16193849946E+03  0.16224987955E+03  0.00000000000E+00 0.  1.
         22    1    3    3    0    0 -0.59790786366E+02  0.12006292185E+03 -0.19604671457E+03  0.23753811827E+03  0.00000000000E+00 0.  1.
</event>
<event>
 7    1  0.6358809E-006  0.1108348E+03  0.7818608E-02  0.1311770E+00
          2   -1    0    0  502    0  0.00000000000E+00  0.00000000000E+00  0.13254770744E+04  0.13254770744E+04  0.00000000000E+00 0. -1.
          1   -1    0    0  501    0 -0.00000000000E+00 -0.00000000000E+00 -0.23159176996E+03  0.23159176996E+03  0.00000000000E+00 0. -1.
         25    2    1    2    0    0 -0.44435164853E+02  0.90133502790E+02  0.77477535397E+02  0.17811828964E+03  0.12499929764E+03 0.  0.
          2    1    1    2  501    0  0.10126456615E+03 -0.53938213085E+02 -0.16205735910E+03  0.19856089954E+03  0.00000000000E+00 0. -1.
          1    1    1    2  502    0 -0.56829401300E+02 -0.36195289704E+02  0.11784651281E+04  0.11803896552E+04  0.00000000000E+00 0. -1.
         22    1    3    3    0    0  0.31707310187E+02  0.65073638586E+02  0.94858758896E+01  0.73006258632E+02  0.00000000000E+00 0. -1.
         22    1    3    3    0    0 -0.76142475039E+02  0.25059864204E+02  0.67991659507E+02  0.10511203100E+03  0.00000000000E+00 0. -1.
</event>
<event>
 7    1  0.6358809E-006  0.1631490E+03  0.7818608E-02  0.1275028E+00
          2   -1    0    0  502    0  0.00000000000E+00  0.00000000000E+00  0.10876473377E+04  0.10876473377E+04  0.00000000000E+00 0. -1.
          1   -1    0    0  501    0 -0.00000000000E+00 -0.00000000000E+00 -0.11868081082E+04  0.11868081082E+04  0.00000000000E+00 0. -1.
         25    2    1    2    0    0 -0.37422670043E+02 -0.11850684504E+03 -0.14301278426E+03  0.22698364317E+03  0.12499835699E+03 0.  0.
          2    1    1    2  501    0  0.98306704146E+02  0.13966758334E+03 -0.99352270858E+03  0.10080965303E+04  0.00000000000E+00 0. -1.
          1    1    1    2  502    0 -0.60884034102E+02 -0.21160738305E+02  0.10373747223E+04  0.10393752724E+04  0.00000000000E+00 0. -1.
         22    1    3    3    0    0 -0.18359374313E+02 -0.55330259966E+02  0.11093525091E+02  0.59342822582E+02  0.00000000000E+00 0.  1.
         22    1    3    3    0    0 -0.19063295730E+02 -0.63176585070E+02 -0.15410630935E+03  0.16764082058E+03  0.00000000000E+00 0.  1.
</event>
<event>
 7    1  0.8255461E-006  0.5434753E+02  0.7818608E-02  0.1424842E+00
          2   -1    0    0  502    0  0.00000000000E+00  0.00000000000E+00  0.15093022816E+04  0.15093022816E+04  0.00000000000E+00 0. -1.
          1   -1    0    0  501    0 -0.00000000000E+00 -0.00000000000E+00 -0.58187278176E+03  0.58187278176E+03  0.00000000000E+00 0. -1.
         25    2    1    2    0    0 -0.55636992724E+02 -0.12140876881E+02 -0.55735959668E+01  0.13746818728E+03  0.12499424663E+03 0.  0.
          2    1    1    2  501    0  0.17229857915E+02  0.50832863294E+02 -0.50842394908E+03  0.51124921515E+03  0.00000000000E+00 0. -1.
          1    1    1    2  502    0  0.38407134809E+02 -0.38691986414E+02  0.14414270449E+04  0.14424576609E+04  0.00000000000E+00 0. -1.
         22    1    3    3    0    0 -0.57191949626E+02 -0.56154544408E+02  0.24879130386E+02  0.83923912495E+02  0.00000000000E+00 0.  1.
         22    1    3    3    0    0  0.15549569023E+01  0.44013667527E+02 -0.30452726352E+02  0.53544274787E+02  0.00000000000E+00 0.  1.
</event>
<event>
 7    1  0.6358809E-006  0.5293824E+02  0.7818608E-02  0.1546284E+00
          2   -1    0    0  502    0  0.00000000000E+00  0.00000000000E+00  0.14268945814E+04  0.14268945814E+04  0.00000000000E+00 0. -1.
          1   -1    0    0  501    0 -0.00000000000E+00 -0.00000000000E+00 -0.11362623254E+03  0.11362623254E+03  0.00000000000E+00 0. -1.
         25    2    1    2    0    0  0.66634096829E+02  0.81241691768E+01  0.67342235275E+02  0.15705202027E+03  0.12499702171E+03 0.  0.
          2    1    1    2  501    0 -0.51069590858E+02  0.94669350212E+01 -0.58843675468E+02  0.78487604828E+02  0.00000000000E+00 0. -1.
          1    1    1    2  502    0 -0.15564505971E+02 -0.17591104198E+02  0.13047697890E+04  0.13049811888E+04  0.00000000000E+00 0. -1.
         22    1    3    3    0    0  0.98673857655E+02  0.62825894133E+01  0.74949291948E+02  0.12407013129E+03  0.00000000000E+00 0.  1.
         22    1    3    3    0    0 -0.32039760826E+02  0.18415797635E+01 -0.76070566734E+01  0.32981888986E+02  0.00000000000E+00 0.  1.
</event>
<event>
 7    1  0.6358809E-006  0.6571201E+02  0.7818608E-02  0.1419508E+00
          2   -1    0    0  502    0  0.00000000000E+00  0.00000000000E+00  0.65996698725E+02  0.65996698725E+02  0.00000000000E+00 0. -1.
          1   -1    0    0  501    0 -0.00000000000E+00 -0.00000000000E+00 -0.12793676275E+04  0.12793676275E+04  0.00000000000E+00 0. -1.
         25    2    1    2    0    0 -0.31592147539E+02  0.18234720641E+02 -0.81870523228E+03  0.82899558279E+03  0.12499940044E+03 0.  0.
          2    1    1    2  501    0 -0.33593338172E+02 -0.31780556133E+02 -0.43570905550E+03  0.43815624743E+03  0.00000000000E+00 0. -1.
          1    1    1    2  502    0  0.65185485711E+02  0.13545835492E+02  0.41043359027E+02  0.78212495976E+02  0.00000000000E+00 0. -1.
         22    1    3    3    0    0 -0.26551346957E+01  0.69963923949E+02 -0.39370622598E+03  0.39988322391E+03  0.00000000000E+00 0. -1.
         22    1    3    3    0    0 -0.28937012844E+02 -0.51729203309E+02 -0.42499900630E+03  0.42911235888E+03  0.00000000000E+00 0. -1.
</event>
<event>
 7    1  0.6358809E-006  0.1484353E+03  0.7818608E-02  0.1316031E+00
          2   -1    0    0  502    0  0.00000000000E+00  0.00000000000E+00  0.12464832008E+03  0.12464832008E+03  0.00000000000E+00 0. -1.
          1   -1    0    0  501    0 -0.00000000000E+00 -0.00000000000E+00 -0.26972528728E+04  0.26972528728E+04  0.00000000000E+00 0. -1.
         25    2    1    2    0    0  0.18056723295E+03  0.57585516376E+01 -0.11744951666E+04  0.11948642199E+04  0.12499568387E+03 0.  0.
          2    1    1    2  501    0 -0.13641567424E+03 -0.25619960750E+02 -0.15041116344E+04  0.15105023758E+04  0.00000000000E+00 0. -1.
          1    1    1    2  502    0 -0.44151558704E+02  0.19861409113E+02  0.10600224828E+03  0.11653459722E+03  0.00000000000E+00 0. -1.
         22    1    3    3    0    0  0.19539054644E+03 -0.12814780348E+02 -0.10587538146E+04  0.10767085605E+04  0.00000000000E+00 0.  1.
         22    1    3    3    0    0 -0.14823313497E+02  0.18573331985E+02 -0.11574135198E+03  0.11815565937E+03  0.00000000000E+00 0.  1.
</event>
<event>
 7    1  0.6358809E-006  0.2666734E+02  0.7818608E-02  0.1674390E+00
          2   -1    0    0  502    0  0.00000000000E+00  0.00000000000E+00  0.25234142018E+03  0.25234142018E+03  0.00000000000E+00 0. -1.
          1   -1    0    0  501    0 -0.00000000000E+00 -0.00000000000E+00 -0.86218632409E+03  0.86218632409E+03  0.00000000000E+00 0. -1.
         25    2    1    2    0    0  0.54820192009E+01  0.65678374911E+01 -0.15142850462E+03  0.19654109777E+03  0.12499848831E+03 0.  0.
          2    1    1    2  501    0 -0.26814547056E+02 -0.22442785243E+01 -0.68742226058E+03  0.68794870525E+03  0.00000000000E+00 0. -1.
          1    1    1    2  502    0  0.21332527855E+02 -0.43235589668E+01  0.22900586129E+03  0.23003794124E+03  0.00000000000E+00 0. -1.
         22    1    3    3    0    0  0.40188825638E+02 -0.43425816706E+02 -0.10291354969E+03  0.11871032799E+03  0.00000000000E+00 0. -1.
         22    1    3    3    0    0 -0.34706806437E+02  0.49993654197E+02 -0.48514954930E+02  0.77830769782E+02  0.00000000000E+00 0. -1.
</event>
<event>
 7    1  0.6358809E-006  0.1850651E+03  0.7818608E-02  0.1230265E+00
          2   -1    0    0  502    0  0.00000000000E+00  0.00000000000E+00  0.87468174889E+03  0.87468174889E+03  0.00000000000E+00 0. -1.
          1   -1    0    0  501    0 -0.00000000000E+00 -0.00000000000E+00 -0.27433857233E+04  0.27433857233E+04  0.00000000000E+00 0. -1.
         25    2    1    2    0    0  0.19624417705E+03  0.14211054978E+02 -0.52197154646E+02  0.23887807471E+03  0.12499784205E+03 0.  0.
          2    1    1    2  501    0 -0.17126832619E+03  0.70904191016E+02 -0.25920099778E+04  0.25986296328E+04  0.00000000000E+00 0. -1.
          1    1    1    2  502    0 -0.24975850856E+02 -0.85115245993E+02  0.77550315796E+03  0.78055976468E+03  0.00000000000E+00 0. -1.
         22    1    3    3    0    0  0.79247352146E+02 -0.53769970081E+02 -0.37191271944E+02  0.10273530656E+03  0.00000000000E+00 0.  1.
         22    1    3    3    0    0  0.11699682490E+03  0.67981025058E+02 -0.15005882702E+02  0.13614276816E+03  0.00000000000E+00 0.  1.
</event>
<event>
 7    1  0.6358809E-006  0.5840002E+02  0.7818608E-02  0.1546430E+00
          2   -1    0    0  502    0  0.00000000000E+00  0.00000000000E+00  0.11951178027E+04  0.11951178027E+04  0.00000000000E+00 0. -1.
          1   -1    0    0  501    0 -0.00000000000E+00 -0.00000000000E+00 -0.21663936079E+02  0.21663936079E+02  0.00000000000E+00 0. -1.
         25    2    1    2    0    0  0.14197967406E+02 -0.65850132888E+02  0.38153974202E+03  0.40710663702E+03  0.12500166753E+03 0.  0.
          2    1    1    2  501    0  0.14494069177E+02  0.15569100616E+02  0.66597070236E+01  0.22289608183E+02  0.00000000000E+00 0. -1.
          1    1    1    2  502    0 -0.28692036583E+02  0.50281032272E+02  0.78525441761E+03  0.78738549361E+03  0.00000000000E+00 0. -1.
         22    1    3    3    0    0 -0.14094330367E+01 -0.68575301501E+02  0.38485552446E+03  0.39091985519E+03  0.00000000000E+00 0.  1.
         22    1    3    3    0    0  0.15607400443E+02  0.27251686136E+01 -0.33157824435E+01  0.16186781822E+02  0.00000000000E+00 0.  1.
</event>
<event>
 7    1  0.6358809E-006  0.5567703E+02  0.7818608E-02  0.1418820E+00
          2   -1    0    0  502    0  0.00000000000E+00  0.00000000000E+00  0.51071251900E+02  0.51071251900E+02  0.00000000000E+00 0. -1.
          1   -1    0    0  501    0 -0.00000000000E+00 -0.00000000000E+00 -0.77669226627E+03  0.77669226627E+03  0.00000000000E+00 0. -1.
         25    2    1    2    0    0 -0.52875879004E+02  0.67287735868E+01 -0.41082501699E+03  0.43271621505E+03  0.12499997283E+03 0.  0.
          2    1    1    2  501    0  0.19614738883E+02 -0.52107515346E+02 -0.33166810932E+03  0.33630888463E+03  0.00000000000E+00 0. -1.
          1    1    1    2  502    0  0.33261140121E+02  0.45378741759E+02  0.16872111942E+02  0.58738418494E+02  0.00000000000E+00 0. -1.
         22    1    3    3    0    0  0.36820603446E+02 -0.75136964364E+01 -0.19454657943E+03  0.19814283746E+03  0.00000000000E+00 0. -1.
         22    1    3    3    0    0 -0.89696482450E+02  0.14242470023E+02 -0.21627843757E+03  0.23457337759E+03  0.00000000000E+00 0. -1.
</event>
<event>
 7    1  0.6358809E-006  0.4233551E+02  0.7818608E-02  0.1513743E+00
          2   -1    0    0  502    0  0.00000000000E+00  0.00000000000E+00  0.24729150614E+02  0.24729150614E+02  0.00000000000E+00 0. -1.
          1   -1    0    0  501    0 -0.00000000000E+00 -0.00000000000E+00 -0.97100213293E+03  0.97100213293E+03  0.00000000000E+00 0. -1.
         25    2    1    2    0    0  0.21360033024E+02 -0.86042390928E+00 -0.17273244973E+03  0.21428492685E+03  0.12499815736E+03 0.  0.
          2    1    1    2  501    0  0.41616112095E+02  0.77714221271E+01 -0.43283781086E+03  0.43490328385E+03  0.00000000000E+00 0. -1.
          1    1    1    2  502    0 -0.62976145119E+02 -0.69109982178E+01 -0.34070272172E+03  0.34654307284E+03  0.00000000000E+00 0. -1.
         22    1    3    3    0    0 -0.33103096144E+02  0.33925530713E+02 -0.12575109420E+03  0.13438785028E+03  0.00000000000E+00 0. -1.
         22    1    3    3    0    0  0.54463129168E+02 -0.34785954622E+02 -0.46981355529E+02  0.79897076573E+02  0.00000000000E+00 0. -1.
</event>
<event>
 7    1  0.6358809E-006  0.7225055E+02  0.7818608E-02  0.1412351E+00
          2   -1    0    0  502    0  0.00000000000E+00  0.00000000000E+00  0.50880652253E+03  0.50880652253E+03  0.00000000000E+00 0. -1.
          1   -1    0    0  501    0 -0.00000000000E+00 -0.00000000000E+00 -0.93510549768E+03  0.93510549768E+03  0.00000000000E+00 0. -1.
         25    2    1    2    0    0  0.38897153710E+01 -0.42588167555E+02 -0.55857424328E+03  0.57398403506E+03  0.12499442127E+03 0.  0.
          2    1    1    2  501    0 -0.39439759884E+02 -0.20508294668E+02 -0.36485353757E+03  0.36755161363E+03  0.00000000000E+00 0. -1.
          1    1    1    2  502    0  0.35550044513E+02  0.63096462223E+02  0.49712880569E+03  0.50237637151E+03  0.00000000000E+00 0. -1.
         22    1    3    3    0    0  0.24840843319E+02  0.36948376713E+02 -0.12537280233E+03  0.13304356280E+03  0.00000000000E+00 0.  1.
         22    1    3    3    0    0 -0.20951127948E+02 -0.79536544268E+02 -0.43320144095E+03  0.44094047226E+03  0.00000000000E+00 0.  1.
</event>
<event>
 7    1  0.6358809E-006  0.7631021E+02  0.7818608E-02  0.1503500E+00
          2   -1    0    0  502    0  0.00000000000E+00  0.00000000000E+00  0.24885195166E+04  0.24885195166E+04  0.00000000000E+00 0. -1.
          1   -1    0    0  501    0 -0.00000000000E+00 -0.00000000000E+00 -0.79528389884E+03  0.79528389884E+03  0.00000000000E+00 0. -1.
         25    2    1    2    0    0 -0.20313673119E+01 -0.97139502314E+02  0.18012113124E+03  0.23980836819E+03  0.12499688866E+03 0.  0.
          2    1    1    2  501    0  0.39276421470E+01  0.21292177856E+02 -0.76465541650E+03  0.76496188741E+03  0.00000000000E+00 0. -1.
          1    1    1    2  502    0 -0.18962748351E+01  0.75847324458E+02  0.22777699030E+04  0.22790331598E+04  0.00000000000E+00 0. -1.
         22    1    3    3    0    0  0.48085029485E+02 -0.96725863803E+02  0.11763161499E+03  0.15970366193E+03  0.00000000000E+00 0.  1.
         22    1    3    3    0    0 -0.50116396797E+02 -0.41363851121E+00  0.62489516253E+02  0.80104706267E+02  0.00000000000E+00 0.  1.
</event>
<event>
 7    1  0.6358809E-006  0.1662697E+03  0.7818608E-02  0.1299915E+00
          2   -1    0    0  502    0  0.00000000000E+00  0.00000000000E+00  0.82224689151E+03  0.82224689151E+03  0.00000000000E+00 0. -1.
          1   -1    0    0  501    0 -0.00000000000E+00 -0.00000000000E+00 -0.16974681302E+03  0.16974681302E+03  0.00000000000E+00 0. -1.
         25    2    1    2    0    0  0.11084775205E+03 -0.17466077640E+03  0.17134236431E+03  0.29627116753E+03  0.12499915182E+03 0.  0.
          2    1    1    2  501    0 -0.14294882469E+02  0.47964846368E+02 -0.89884192138E+02  0.10287924061E+03  0.00000000000E+00 0. -1.
          1    1    1    2  502    0 -0.96552869578E+02  0.12669593003E+03  0.57104190631E+03  0.59284329639E+03  0.00000000000E+00 0. -1.
         22    1    3    3    0    0  0.66839857106E+02 -0.13214627556E+03  0.43187242556E+02  0.15425739063E+03  0.00000000000E+00 0. -1.
         22    1    3    3    0    0  0.44007894941E+02 -0.42514500836E+02  0.12815512176E+03  0.14201377690E+03  0.00000000000E+00 0. -1.
</event>
<event>
 7    1  0.6358809E-006  0.1929926E+03  0.7818608E-02  0.1280390E+00
          2   -1    0    0  502    0  0.00000000000E+00  0.00000000000E+00  0.23270380482E+04  0.23270380482E+04  0.00000000000E+00 0. -1.
          1   -1    0    0  501    0 -0.00000000000E+00 -0.00000000000E+00 -0.42333667862E+02  0.42333667862E+02  0.00000000000E+00 0. -1.
         25    2    1    2    0    0 -0.19747529992E+03 -0.13444145370E+02  0.10466127777E+04  0.10724789000E+04  0.12504177504E+03 0.  0.
          2    1    1    2  501    0  0.18251917474E+03  0.63005703507E+02  0.29619010318E+03  0.35356971738E+03  0.00000000000E+00 0. -1.
          1    1    1    2  502    0  0.14956125183E+02 -0.49561558136E+02  0.94190149951E+03  0.94332309868E+03  0.00000000000E+00 0. -1.
         22    1    3    3    0    0  0.16275623056E+02 -0.33887325307E+01  0.13852966696E+03  0.13952364690E+03  0.00000000000E+00 0. -1.
         22    1    3    3    0    0 -0.21375092298E+03 -0.10055412840E+02  0.90808311071E+03  0.93295525314E+03  0.00000000000E+00 0. -1.
</event>
<event>
 7    1  0.6358809E-006  0.8713790E+02  0.7818608E-02  0.1380405E+00
          2   -1    0    0  502    0  0.00000000000E+00  0.00000000000E+00  0.56835602996E+03  0.56835602996E+03  0.00000000000E+00 0. -1.
          1   -1    0    0  501    0 -0.00000000000E+00 -0.00000000000E+00 -0.21795125222E+04  0.21795125222E+04  0.00000000000E+00 0. -1.
         25    2    1    2    0    0  0.12887498325E+03 -0.10530701491E+02 -0.19641671326E+03  0.26631607457E+03  0.12500027738E+03 0.  0.
          2    1    1    2  501    0 -0.42910188358E+02  0.20446679271E+02 -0.19443441093E+04  0.19449250284E+04  0.00000000000E+00 0. -1.
          1    1    1    2  502    0 -0.85964794894E+02 -0.99159777806E+01  0.52960433027E+03  0.53662744918E+03  0.00000000000E+00 0. -1.
         22    1    3    3    0    0  0.41945339327E+02 -0.86234093344E+01  0.85510011755E+01  0.43668000881E+02  0.00000000000E+00 0.  1.
         22    1    3    3    0    0  0.86929643924E+02 -0.19072921564E+01 -0.20496771444E+03  0.22264807369E+03  0.00000000000E+00 0.  1.
</event>
<event>
 7    1  0.6358809E-006  0.4643871E+02  0.7818608E-02  0.1505245E+00
          2   -1    0    0  502    0  0.00000000000E+00  0.00000000000E+00  0.10274811715E+04  0.10274811715E+04  0.00000000000E+00 0. -1.
          1   -1    0    0  501    0 -0.00000000000E+00 -0.00000000000E+00 -0.26412856197E+03  0.26412856197E+03  0.00000000000E+00 0. -1.
         25    2    1    2    0    0 -0.19869572466E+02  0.28414180067E+02 -0.12605699796E+03  0.18087681693E+03  0.12499556244E+03 0.  0.
          2    1    1    2  501    0  0.30892375863E+02  0.16782941691E+02 -0.10731303387E+03  0.11292516662E+03  0.00000000000E+00 0. -1.
          1    1    1    2  502    0 -0.11022803397E+02 -0.45197121758E+02  0.99672264132E+03  0.99780774988E+03  0.00000000000E+00 0. -1.
         22    1    3    3    0    0  0.11775792458E+02 -0.34786972968E+02 -0.42693292773E+00  0.36728531798E+02  0.00000000000E+00 0.  1.
         22    1    3    3    0    0 -0.31645364924E+02  0.63201153035E+02 -0.12563006503E+03  0.14414828513E+03  0.00000000000E+00 0.  1.
</event>
<event>
 7    1  0.6358809E-006  0.5797193E+02  0.7818608E-02  0.1422886E+00
          2   -1    0    0  502    0  0.00000000000E+00  0.00000000000E+00  0.23409565340E+04  0.23409565340E+04  0.00000000000E+00 0. -1.
          1   -1    0    0  501    0 -0.00000000000E+00 -0.00000000000E+00 -0.10654053242E+03  0.10654053242E+03  0.00000000000E+00 0. -1.
         25    2    1    2    0    0 -0.51865306124E+02  0.79785803085E+02  0.24239391629E+02  0.15895946432E+03  0.12499911535E+03 0.  0.
          2    1    1    2  501    0  0.16889454130E+01 -0.51048316077E+02 -0.21999560270E+02  0.55612622335E+02  0.00000000000E+00 0. -1.
          1    1    1    2  502    0  0.50176360711E+02 -0.28737487008E+02  0.22321761702E+04  0.22329249797E+04  0.00000000000E+00 0. -1.
         22    1    3    3    0    0 -0.59578658656E+02  0.59177954276E+02  0.69258691927E+02  0.10885041684E+03  0.00000000000E+00 0. -1.
         22    1    3    3    0    0  0.77133525319E+01  0.20607848809E+02 -0.45019300297E+02  0.50109047477E+02  0.00000000000E+00 0. -1.
</event>
<event>
 7    1  0.6358809E-006  0.1451640E+03  0.7818608E-02  0.1282420E+00
          2   -1    0    0  502    0  0.00000000000E+00  0.00000000000E+00  0.23692020024E+04  0.23692020024E+04  0.00000000000E+00 0. -1.
          1   -1    0    0  501    0 -0.00000000000E+00 -0.00000000000E+00 -0.98002543364E+03  0.98002543364E+03  0.00000000000E+00 0. -1.
         25    2    1    2    0    0 -0.18244726546E+03 -0.99078442996E+02  0.31230546037E+03  0.39530075467E+03  0.12499777408E+03 0.  0.
          2    1    1    2  501    0  0.53211225755E+02  0.41551105738E+02 -0.93482664170E+03  0.93726131840E+03  0.00000000000E+00 0. -1.
          1    1    1    2  502    0  0.12923603971E+03  0.57527337259E+02  0.20116977501E+04  0.20166653630E+04  0.00000000000E+00 0. -1.
         22    1    3    3    0    0 -0.19381911628E+03 -0.82608176194E+02  0.31046095144E+03  0.37520122998E+03  0.00000000000E+00 0. -1.
         22    1    3    3    0    0  0.11371850817E+02 -0.16470266802E+02  0.18445089266E+01  0.20099524689E+02  0.00000000000E+00 0. -1.
</event>
<event>
 7    1  0.6358809E-006  0.4094561E+02  0.7818608E-02  0.1521172E+00
          2   -1    0    0  502    0  0.00000000000E+00  0.00000000000E+00  0.12814005795E+04  0.12814005795E+04  0.00000000000E+00 0. -1.
          1   -1    0    0  501    0 -0.00000000000E+00 -0.00000000000E+00 -0.86216674171E+03  0.86216674171E+03  0.00000000000E+00 0. -1.
         25    2    1    2    0    0 -0.31600042607E+02 -0.22636303254E+02  0.26546206949E+03  0.29598220110E+03  0.12499755242E+03 0.  0.
          2    1    1    2  501    0  0.39059359943E+02 -0.12388024883E+02 -0.84609030475E+03  0.84708199163E+03  0.00000000000E+00 0. -1.
          1    1    1    2  502    0 -0.74593173359E+01  0.35024328137E+02  0.99986207308E+03  0.10005031285E+04  0.00000000000E+00 0. -1.
         22    1    3    3    0    0 -0.76257142397E+02 -0.35416226562E+02  0.18145994908E+03  0.19999293485E+03  0.00000000000E+00 0. -1.
         22    1    3    3    0    0  0.44657099790E+02  0.12779923308E+02  0.84002120411E+02  0.95989266249E+02  0.00000000000E+00 0. -1.
</event>
<event>
 7    1  0.6358809E-006  0.6427277E+02  0.7818608E-02  0.1406280E+00
          2   -1    0    0  502    0  0.00000000000E+00  0.00000000000E+00  0.20568801417E+03  0.20568801417E+03  0.00000000000E+00 0. -1.
          1   -1    0    0  501    0 -0.00000000000E+00 -0.00000000000E+00 -0.15554759751E+03  0.15554759751E+03  0.00000000000E+00 0. -1.
         25    2    1    2    0    0 -0.28165310675E+02 -0.24597831177E+02  0.10774648137E+02  0.13091882579E+03  0.12500123151E+03 0.  0.
          2    1    1    2  501    0  0.49306074745E+01  0.71562417830E+02 -0.75451977190E+02  0.10410807556E+03  0.00000000000E+00 0. -1.
          1    1    1    2  502    0  0.23234703201E+02 -0.46964586653E+02  0.11481774571E+03  0.12620871033E+03  0.00000000000E+00 0. -1.
         22    1    3    3    0    0 -0.61453138536E+02 -0.53492865141E+02  0.23934830148E+02  0.84916729512E+02  0.00000000000E+00 0. -1.
         22    1    3    3    0    0  0.33287827860E+02  0.28895033963E+02 -0.13160182011E+02  0.46002096278E+02  0.00000000000E+00 0. -1.
</event>
<event>
 7    1  0.6358809E-006  0.1149668E+03  0.7818608E-02  0.1329166E+00
          2   -1    0    0  502    0  0.00000000000E+00  0.00000000000E+00  0.44073980260E+03  0.44073980260E+03  0.00000000000E+00 0. -1.
          1   -1    0    0  501    0 -0.00000000000E+00 -0.00000000000E+00 -0.57905480717E+03  0.57905480717E+03  0.00000000000E+00 0. -1.
         25    2    1    2    0    0  0.57923452106E+02  0.13774109421E+03  0.16304034929E+03  0.25403830030E+03  0.12500226872E+03 0.  0.
          2    1    1    2  501    0 -0.45725907229E+02 -0.31652021963E+02 -0.51971559996E+03  0.52268251733E+03  0.00000000000E+00 0. -1.
          1    1    1    2  502    0 -0.12197544877E+02 -0.10608907224E+03  0.21836024610E+03  0.24307379214E+03  0.00000000000E+00 0. -1.
         22    1    3    3    0    0  0.58587923073E+02  0.17762479345E+02  0.14173878970E+02  0.62840665556E+02  0.00000000000E+00 0.  1.
         22    1    3    3    0    0 -0.66447096753E+00  0.11997861486E+03  0.14886647032E+03  0.19119763474E+03  0.00000000000E+00 0.  1.
</event>
<event>
 7    1  0.6358809E-006  0.1318882E+03  0.7818608E-02  0.1436189E+00
          2   -1    0    0  502    0  0.00000000000E+00  0.00000000000E+00  0.56674261846E+03  0.56674261846E+03  0.00000000000E+00 0. -1.
          1   -1    0    0  501    0 -0.00000000000E+00 -0.00000000000E+00 -0.21379995345E+03  0.21379995345E+03  0.00000000000E+00 0. -1.
         25    2    1    2    0    0 -0.47680552052E+02 -0.14002731929E+03  0.11153414106E+03  0.22348649091E+03  0.12500104723E+03 0.  0.
          2    1    1    2  501    0  0.12502909336E+02  0.15987412280E+02 -0.14669728545E+03  0.14809461047E+03  0.00000000000E+00 0. -1.
          1    1    1    2  502    0  0.35177642716E+02  0.12403990701E+03  0.38810580940E+03  0.40896147052E+03  0.00000000000E+00 0. -1.
         22    1    3    3    0    0 -0.18040852085E+02 -0.15657849753E+03  0.78351165691E+02  0.17601478176E+03  0.00000000000E+00 0.  1.
         22    1    3    3    0    0 -0.29639699968E+02  0.16551178245E+02  0.33182975371E+02  0.47471709153E+02  0.00000000000E+00 0.  1.
</event>
<event>
 7    1  0.6358809E-006  0.1241352E+03  0.7818608E-02  0.1395974E+00
          2   -1    0    0  502    0  0.00000000000E+00  0.00000000000E+00  0.31561597698E+03  0.31561597698E+03  0.00000000000E+00 0. -1.
          1   -1    0    0  501    0 -0.00000000000E+00 -0.00000000000E+00 -0.42396257724E+03  0.42396257724E+03  0.00000000000E+00 0. -1.
         25    2    1    2    0    0  0.58301634785E+02 -0.83318006318E+02  0.77165032918E+02  0.17866184398E+03  0.12499856557E+03 0.  0.
          2    1    1    2  501    0 -0.56557501762E+02  0.11269868240E+03 -0.36130517165E+03  0.38267632679E+03  0.00000000000E+00 0. -1.
          1    1    1    2  502    0 -0.17441330232E+01 -0.29380676077E+02  0.17579353847E+03  0.17824038346E+03  0.00000000000E+00 0. -1.
         22    1    3    3    0    0 -0.50063018789E+01 -0.23966221153E+02 -0.31310457469E+02  0.39746541507E+02  0.00000000000E+00 0.  1.
         22    1    3    3    0    0  0.63307936664E+02 -0.59351785165E+02  0.10847549039E+03  0.13891530247E+03  0.00000000000E+00 0.  1.
</event>
<event>
 7    1  0.6358809E-006  0.8020269E+02  0.7818608E-02  0.1381356E+00
          2   -1    0    0  502    0  0.00000000000E+00  0.00000000000E+00  0.82747566984E+02  0.82747566984E+02  0.00000000000E+00 0. -1.
          1   -1    0    0  501    0 -0.00000000000E+00 -0.00000000000E+00 -0.16873645866E+04  0.16873645866E+04  0.00000000000E+00 0. -1.
         25    2    1    2    0    0  0.62730708733E+02 -0.12108396083E+02 -0.12528266628E+04  0.12606673863E+04  0.12500342761E+03 0.  0.
          2    1    1    2  501    0  0.82288961444E+01  0.50579187290E+02 -0.40792244061E+03  0.41112855224E+03  0.00000000000E+00 0. -1.
          1    1    1    2  502    0 -0.70959604878E+02 -0.38470791208E+02  0.56132083787E+02  0.98316214994E+02  0.00000000000E+00 0. -1.
         22    1    3    3    0    0  0.54016526288E+02  0.50039054629E+02 -0.82244400331E+03  0.82573351070E+03  0.00000000000E+00 0. -1.
         22    1    3    3    0    0  0.87141824450E+01 -0.62147450711E+02 -0.43038265945E+03  0.43493387561E+03  0.00000000000E+00 0. -1.
</event>
<event>
 7    1  0.6358809E-006  0.1007733E+03  0.7818608E-02  0.1350950E+00
          2   -1    0    0  502    0  0.00000000000E+00  0.00000000000E+00  0.18460782278E+04  0.18460782278E+04  0.00000000000E+00 0. -1.
          1   -1    0    0  501    0 -0.00000000000E+00 -0.00000000000E+00 -0.27481412061E+03  0.27481412061E+03  0.00000000000E+00 0. -1.
         25    2    1    2    0    0 -0.42828918577E+01  0.13015131813E+03  0.10997514836E+04  0.11144676673E+04  0.12500858794E+03 0.  0.
          2    1    1    2  501    0 -0.34352233007E+02 -0.94553258924E+02 -0.25701673834E+03  0.27600362040E+03  0.00000000000E+00 0. -1.
          1    1    1    2  502    0  0.38635124864E+02 -0.35598059209E+02  0.72852936201E+03  0.73042106076E+03  0.00000000000E+00 0. -1.
         22    1    3    3    0    0  0.14030197693E+02  0.10486520393E+03  0.39196005080E+03  0.40598797872E+03  0.00000000000E+00 0.  1.
         22    1    3    3    0    0 -0.18313089550E+02  0.25286114201E+02  0.70779143277E+03  0.70847968858E+03  0.00000000000E+00 0.  1.
</event>
<event>
 7    1  0.6358809E-006  0.3639300E+02  0.7818608E-02  0.1566319E+00
          2   -1    0    0  502    0  0.00000000000E+00  0.00000000000E+00  0.20097160730E+03  0.20097160730E+03  0.00000000000E+00 0. -1.
          1   -1    0    0  501    0 -0.00000000000E+00 -0.00000000000E+00 -0.39033245850E+03  0.39033245850E+03  0.00000000000E+00 0. -1.
         25    2    1    2    0    0  0.24698861433E+02 -0.27046777380E+02 -0.14192954145E+03  0.19264108054E+03  0.12500011701E+03 0.  0.
          2    1    1    2  501    0  0.11826543798E+02  0.27649997304E+02 -0.22011388910E+03  0.22215875780E+03  0.00000000000E+00 0. -1.
          1    1    1    2  502    0 -0.36525405231E+02 -0.60321992422E+00  0.17268257935E+03  0.17650422747E+03  0.00000000000E+00 0. -1.
         22    1    3    3    0    0  0.49819447724E+02 -0.48244233878E+02 -0.14387244617E+03  0.15971463378E+03  0.00000000000E+00 0.  1.
         22    1    3    3    0    0 -0.25120586291E+02  0.21197456498E+02  0.19429047260E+01  0.32926446762E+02  0.00000000000E+00 0.  1.
</event>
<event>
 7    1  0.6358809E-006  0.5441289E+02  0.7818608E-02  0.1519820E+00
          2   -1    0    0  502    0  0.00000000000E+00  0.00000000000E+00  0.71392122544E+03  0.71392122544E+03  0.00000000000E+00 0. -1.
          1   -1    0    0  501    0 -0.00000000000E+00 -0.00000000000E+00 -0.13518589720E+03  0.13518589720E+03  0.00000000000E+00 0. -1.
         25    2    1    2    0    0 -0.46730105758E+02 -0.37351254766E+02  0.34336576001E+03  0.37027661908E+03  0.12500364183E+03 0.  0.
          2    1    1    2  501    0 -0.65972455392E+01  0.26379112422E+02 -0.11810133423E+03  0.12119119757E+03  0.00000000000E+00 0. -1.
          1    1    1    2  502    0  0.53327351298E+02  0.10972142344E+02  0.35347090246E+03  0.35763930599E+03  0.00000000000E+00 0. -1.
         22    1    3    3    0    0  0.38693523567E+02  0.29793985545E+01  0.58898071200E+02  0.70534022804E+02  0.00000000000E+00 0.  1.
         22    1    3    3    0    0 -0.85423629325E+02 -0.40330653320E+02  0.28446768881E+03  0.29974259627E+03  0.00000000000E+00 0.  1.
</event>
<event>
 7    1  0.6358809E-006  0.1867850E+03  0.7818608E-02  0.1298475E+00
          2   -1    0    0  502    0  0.00000000000E+00  0.00000000000E+00  0.17981661211E+04  0.17981661211E+04  0.00000000000E+00 0. -1.
          1   -1    0    0  501    0 -0.00000000000E+00 -0.00000000000E+00 -0.45146915069E+03  0.45146915069E+03  0.00000000000E+00 0. -1.
         25    2    1    2    0    0  0.20524586475E+03 -0.41280832111E+02  0.93042072268E+03  0.96184094180E+03  0.12500121617E+03 0.  0.
          2    1    1    2  501    0 -0.41125644966E+02 -0.18630401080E+02 -0.42559599886E+03  0.42798407069E+03  0.00000000000E+00 0. -1.
          1    1    1    2  502    0 -0.16412021979E+03  0.59911233192E+02  0.84187224659E+03  0.85981025929E+03  0.00000000000E+00 0. -1.
         22    1    3    3    0    0  0.12167491123E+03 -0.84912331046E+02  0.52174477181E+03  0.54243201869E+03  0.00000000000E+00 0.  1.
         22    1    3    3    0    0  0.83570953521E+02  0.43631498935E+02  0.40867595087E+03  0.41940892312E+03  0.00000000000E+00 0.  1.
</event>
<event>
 7    1  0.6358809E-006  0.1056689E+03  0.7818608E-02  0.1365281E+00
          2   -1    0    0  502    0  0.00000000000E+00  0.00000000000E+00  0.16652066050E+04  0.16652066050E+04  0.00000000000E+00 0. -1.
          1   -1    0    0  501    0 -0.00000000000E+00 -0.00000000000E+00 -0.73851690124E+02  0.73851690124E+02  0.00000000000E+00 0. -1.
         25    2    1    2    0    0  0.11748159974E+03 -0.42300003319E+02  0.23802175772E+03  0.29643476199E+03  0.12501197707E+03 0.  0.
          2    1    1    2  501    0 -0.79381762851E+02  0.65100244159E+02  0.15232015670E+02  0.10378593529E+03  0.00000000000E+00 0. -1.
          1    1    1    2  502    0 -0.38099836887E+02 -0.22800240841E+02  0.13381011415E+04  0.13388375978E+04  0.00000000000E+00 0. -1.
         22    1    3    3    0    0  0.19286686971E+02 -0.69929004386E+02  0.12208880771E+03  0.14201309418E+03  0.00000000000E+00 0.  1.
         22    1    3    3    0    0  0.98194912767E+02  0.27629001067E+02  0.11593295001E+03  0.15442166782E+03  0.00000000000E+00 0.  1.
</event>
<event>
 7    1  0.6358809E-006  0.1026242E+03  0.7818608E-02  0.1365185E+00
          2   -1    0    0  502    0  0.00000000000E+00  0.00000000000E+00  0.77493573161E+03  0.77493573161E+03  0.00000000000E+00 0. -1.
          1   -1    0    0  501    0 -0.00000000000E+00 -0.00000000000E+00 -0.23146854375E+04  0.23146854375E+04  0.00000000000E+00 0. -1.
         25    2    1    2    0    0 -0.85323692321E+02  0.29090847267E+02 -0.14568828067E+02  0.15480516804E+03  0.12500391767E+03 0.  0.
          2    1    1    2  501    0 -0.17414550415E+02 -0.42311123456E+02 -0.22259561491E+04  0.22264263463E+04  0.00000000000E+00 0. -1.
          1    1    1    2  502    0  0.10273824274E+03  0.13220276189E+02  0.70077527126E+03  0.70838965480E+03  0.00000000000E+00 0. -1.
         22    1    3    3    0    0 -0.11391860606E+03  0.42905098961E+02 -0.58398719931E+01  0.12187042475E+03  0.00000000000E+00 0.  1.
         22    1    3    3    0    0  0.28594913737E+02 -0.13814251694E+02 -0.87289560738E+01  0.32934743290E+02  0.00000000000E+00 0.  1.
</event>
<event>
 7    1  0.6358809E-006  0.1697065E+03  0.7818608E-02  0.1301865E+00
          2   -1    0    0  502    0  0.00000000000E+00  0.00000000000E+00  0.27345320478E+04  0.27345320478E+04  0.00000000000E+00 0. -1.
          1   -1    0    0  501    0 -0.00000000000E+00 -0.00000000000E+00 -0.73110827980E+03  0.73110827980E+03  0.00000000000E+00 0. -1.
         25    2    1    2    0    0  0.22573782357E+02  0.17141663648E+03  0.95829929422E+02  0.23388478282E+03  0.12500190939E+03 0.  0.
          2    1    1    2  501    0  0.25468749729E+02 -0.16799788714E+03 -0.65094849862E+03  0.67275990899E+03  0.00000000000E+00 0. -1.
          1    1    1    2  502    0 -0.48042532086E+02 -0.34187493402E+01  0.25585423372E+04  0.25589956357E+04  0.00000000000E+00 0. -1.
         22    1    3    3    0    0  0.13544222524E+02  0.18388894002E+03  0.58404816506E+02  0.19341590115E+03  0.00000000000E+00 0. -1.
         22    1    3    3    0    0  0.90295598326E+01 -0.12472303550E+02  0.37425112916E+02  0.40468881667E+02  0.00000000000E+00 0. -1.
</event>
<event>
 7    1  0.6358809E-006  0.8186979E+02  0.7818608E-02  0.1452467E+00
          2   -1    0    0  502    0  0.00000000000E+00  0.00000000000E+00  0.28635219696E+04  0.28635219696E+04  0.00000000000E+00 0. -1.
          1   -1    0    0  501    0 -0.00000000000E+00 -0.00000000000E+00 -0.22608192192E+03  0.22608192192E+03  0.00000000000E+00 0. -1.
         25    2    1    2    0    0  0.57080069886E+02 -0.21867792565E+02 -0.78190355362E+01  0.13936426217E+03  0.12499970209E+03 0.  0.
          2    1    1    2  501    0  0.24702869164E+02  0.15137988840E+02 -0.15050667340E+03  0.15326985740E+03  0.00000000000E+00 0. -1.
          1    1    1    2  502    0 -0.81782939050E+02  0.67298037258E+01  0.27957657566E+04  0.27969697720E+04  0.00000000000E+00 0. -1.
         22    1    3    3    0    0  0.29785472838E+02  0.47590542543E+02 -0.27017608001E+02  0.62305579797E+02  0.00000000000E+00 0. -1.
         22    1    3    3    0    0  0.27294597047E+02 -0.69458335108E+02  0.19198572465E+02  0.77058682371E+02  0.00000000000E+00 0. -1.
</event>
<event>
 7    1  0.6358809E-006  0.4000199E+02  0.7818608E-02  0.1524768E+00
          2   -1    0    0  502    0  0.00000000000E+00  0.00000000000E+00  0.18852469204E+04  0.18852469204E+04  0.00000000000E+00 0. -1.
          1   -1    0    0  501    0 -0.00000000000E+00 -0.00000000000E+00 -0.13348574786E+02  0.13348574786E+02  0.00000000000E+00 0. -1.
         25    2    1    2    0    0 -0.11510296961E+02 -0.14972348382E+01  0.85649655497E+03  0.86564857876E+03  0.12500553823E+03 0.  0.
          2    1    1    2  501    0  0.22123823160E+02  0.35674410804E+02  0.43733032875E+02  0.60619347588E+02  0.00000000000E+00 0. -1.
          1    1    1    2  502    0 -0.10613526200E+02 -0.34177175966E+02  0.97166875778E+03  0.97232756884E+03  0.00000000000E+00 0. -1.
         22    1    3    3    0    0  0.28432531914E+02  0.20683603467E+02  0.73508017519E+03  0.73592056928E+03  0.00000000000E+00 0.  1.
         22    1    3    3    0    0 -0.39942828875E+02 -0.22180838306E+02  0.12141637977E+03  0.12972800948E+03  0.00000000000E+00 0.  1.
</event>
<event>
 7    1  0.6358809E-006  0.4164589E+03  0.7818608E-02  0.1085046E+00
          2   -1    0    0  502    0  0.00000000000E+00  0.00000000000E+00  0.27368829420E+04  0.27368829420E+04  0.00000000000E+00 0. -1.
          1   -1    0    0  501    0 -0.00000000000E+00 -0.00000000000E+00 -0.39529870637E+03  0.39529870637E+03  0.00000000000E+00 0. -1.
         25    2    1    2    0    0  0.51916458222E+03 -0.71660090626E+02  0.13366400577E+02  0.53895313029E+03  0.12499913586E+03 0.  0.
          2    1    1    2  501    0 -0.31029417353E+03  0.12926870208E+03  0.94704342390E+02  0.34923027350E+03  0.00000000000E+00 0. -1.
          1    1    1    2  502    0 -0.20887040869E+03 -0.57608611454E+02  0.22335134927E+04  0.22439982446E+04  0.00000000000E+00 0. -1.
         22    1    3    3    0    0  0.16446553120E+03  0.21052509524E+01  0.56935342476E+02  0.17405452093E+03  0.00000000000E+00 0. -1.
         22    1    3    3    0    0  0.35469905102E+03 -0.73765341579E+02 -0.43568941900E+02  0.36489860936E+03  0.00000000000E+00 0. -1.
</event>
<event>
 7    1  0.6358809E-006  0.2007378E+03  0.7818608E-02  0.1314974E+00
          2   -1    0    0  502    0  0.00000000000E+00  0.00000000000E+00  0.14869491889E+03  0.14869491889E+03  0.00000000000E+00 0. -1.
          1   -1    0    0  501    0 -0.00000000000E+00 -0.00000000000E+00 -0.10486369402E+04  0.10486369402E+04  0.00000000000E+00 0. -1.
         25    2    1    2    0    0  0.58777529192E+02 -0.20525167338E+03 -0.18891727537E+02  0.24812781789E+03  0.12500987671E+03 0.  0.
          2    1    1    2  501    0 -0.28043953730E+01  0.36032066445E+02 -0.67824519834E+03  0.67920742304E+03  0.00000000000E+00 0. -1.
          1    1    1    2  502    0 -0.55973133819E+02  0.16921960694E+03 -0.20280509538E+03  0.26999661812E+03  0.00000000000E+00 0. -1.
         22    1    3    3    0    0  0.37354837547E+02 -0.21780452687E+03 -0.83193850696E+01  0.22114114945E+03  0.00000000000E+00 0.  1.
         22    1    3    3    0    0  0.21422691646E+02  0.12552853487E+02 -0.10572342467E+02  0.26986668435E+02  0.00000000000E+00 0.  1.
</event>
<event>
 7    1  0.6358809E-006  0.6019988E+02  0.7818608E-02  0.1480381E+00
          2   -1    0    0  502    0  0.00000000000E+00  0.00000000000E+00  0.45413211020E+02  0.45413211020E+02  0.00000000000E+00 0. -1.
          1   -1    0    0  501    0 -0.00000000000E+00 -0.00000000000E+00 -0.12016805176E+04  0.12016805176E+04  0.00000000000E+00 0. -1.
         25    2    1    2    0    0  0.26467762725E+02  0.81608813664E+02 -0.16204688685E+03  0.22193605019E+03  0.12504349605E+03 0.  0.
          2    1    1    2  501    0 -0.30747873882E+01 -0.59440944215E+02 -0.99098144796E+03  0.99276729920E+03  0.00000000000E+00 0. -1.
          1    1    1    2  502    0 -0.23392975337E+02 -0.22167869449E+02 -0.32389718148E+01  0.32390379273E+02  0.00000000000E+00 0. -1.
         22    1    3    3    0    0 -0.37657039726E+02  0.61652068915E+02 -0.39861722369E+02  0.82510527527E+02  0.00000000000E+00 0. -1.
         22    1    3    3    0    0  0.64124802451E+02  0.19956744749E+02 -0.12218516448E+03  0.13942552266E+03  0.00000000000E+00 0. -1.
</event>
<event>
 7    1  0.6358809E-006  0.1182816E+03  0.7818608E-02  0.1250655E+00
          2   -1    0    0  502    0  0.00000000000E+00  0.00000000000E+00  0.38911043128E+03  0.38911043128E+03  0.00000000000E+00 0. -1.
          1   -1    0    0  501    0 -0.00000000000E+00 -0.00000000000E+00 -0.47321386631E+03  0.47321386631E+03  0.00000000000E+00 0. -1.
         25    2    1    2    0    0  0.41701874062E+02  0.38033001232E+02  0.89759175220E+02  0.16391306560E+03  0.12500091222E+03 0.  0.
          2    1    1    2  501    0  0.55265980719E+02 -0.10576612187E+03 -0.41392895774E+03  0.43078763122E+03  0.00000000000E+00 0. -1.
          1    1    1    2  502    0 -0.96967854781E+02  0.67733120640E+02  0.24006634749E+03  0.26762360077E+03  0.00000000000E+00 0. -1.
         22    1    3    3    0    0  0.67321542687E+02  0.25762912292E+02  0.24775917023E+01  0.72125281422E+02  0.00000000000E+00 0.  1.
         22    1    3    3    0    0 -0.25619668626E+02  0.12270088940E+02  0.87281583517E+02  0.91787784178E+02  0.00000000000E+00 0.  1.
</event>
<event>
 7    1  0.6358809E-006  0.1332442E+03  0.7818608E-02  0.1304082E+00
          2   -1    0    0  502    0  0.00000000000E+00  0.00000000000E+00  0.18658204511E+04  0.18658204511E+04  0.00000000000E+00 0. -1.
          1   -1    0    0  501    0 -0.00000000000E+00 -0.00000000000E+00 -0.62161101266E+03  0.62161101266E+03  0.00000000000E+00 0. -1.
         25    2    1    2    0    0  0.77410665001E+02 -0.13923796837E+02  0.15653772449E+03  0.21521057079E+03  0.12500098968E+03 0.  0.
          2    1    1    2  501    0  0.59948644333E+02 -0.43860796421E+01 -0.58788183841E+03  0.59094681113E+03  0.00000000000E+00 0. -1.
          1    1    1    2  502    0 -0.13735930933E+03  0.18309876479E+02  0.16755535523E+04  0.16812740818E+04  0.00000000000E+00 0. -1.
         22    1    3    3    0    0  0.96087688879E+02  0.12213451904E+02  0.61125177168E+02  0.11453514590E+03  0.00000000000E+00 0.  1.
         22    1    3    3    0    0 -0.18677023878E+02 -0.26137248741E+02  0.95412547319E+02  0.10067542490E+03  0.00000000000E+00 0.  1.
</event>
<event>
 7    1  0.6358809E-006  0.3465374E+02  0.7818608E-02  0.1571024E+00
          2   -1    0    0  502    0  0.00000000000E+00  0.00000000000E+00  0.14479162865E+03  0.14479162865E+03  0.00000000000E+00 0. -1.
          1   -1    0    0  501    0 -0.00000000000E+00 -0.00000000000E+00 -0.59107723015E+03  0.59107723015E+03  0.00000000000E+00 0. -1.
         25    2    1    2    0    0 -0.33434318430E+02 -0.54145886905E+02 -0.74800861229E+02  0.15896712918E+03  0.12500299437E+03 0.  0.
          2    1    1    2  501    0  0.20651824188E+02  0.22667990879E+02 -0.47087127196E+03  0.47186872158E+03  0.00000000000E+00 0. -1.
          1    1    1    2  502    0  0.12782494242E+02  0.31477896026E+02  0.99386531688E+02  0.10503300804E+03  0.00000000000E+00 0. -1.
         22    1    3    3    0    0  0.47095892743E+02 -0.10759707187E+02 -0.19643191915E+02  0.52150257915E+02  0.00000000000E+00 0.  1.
         22    1    3    3    0    0 -0.80530211173E+02 -0.43386179718E+02 -0.55157669314E+02  0.10681687126E+03  0.00000000000E+00 0.  1.
</event>
<event>
 7    1  0.6358809E-006  0.1079466E+03  0.7818608E-02  0.1299039E+00
          2   -1    0    0  502    0  0.00000000000E+00  0.00000000000E+00  0.18881696937E+04  0.18881696937E+04  0.00000000000E+00 0. -1.
          1   -1    0    0  501    0 -0.00000000000E+00 -0.00000000000E+00 -0.38436315743E+02  0.38436315743E+02  0.00000000000E+00 0. -1.
         25    2    1    2    0    0 -0.46472955132E+02 -0.84647892653E+01  0.19080959562E+03  0.23294703310E+03  0.12499852093E+03 0.  0.
          2    1    1    2  501    0 -0.60995680912E+02  0.48161199337E+02  0.83485286009E+02  0.11406036644E+03  0.00000000000E+00 0. -1.
          1    1    1    2  502    0  0.10746863604E+03 -0.39696410071E+02  0.15754384964E+04  0.15795986100E+04  0.00000000000E+00 0. -1.
         22    1    3    3    0    0  0.18209152946E+02 -0.49670310633E+02  0.50991973666E+02  0.73477169160E+02  0.00000000000E+00 0.  1.
         22    1    3    3    0    0 -0.64682108078E+02  0.41205521368E+02  0.13981762196E+03  0.15946986394E+03  0.00000000000E+00 0.  1.
</event>
<event>
 7    1  0.6358809E-006  0.7320843E+02  0.7818608E-02  0.1389730E+00
          2   -1    0    0  502    0  0.00000000000E+00  0.00000000000E+00  0.89136818525E+03  0.89136818525E+03  0.00000000000E+00 0. -1.
          1   -1    0    0  501    0 -0.00000000000E+00 -0.00000000000E+00 -0.86050508960E+02  0.86050508960E+02  0.00000000000E+00 0. -1.
         25    2    1    2    0    0 -0.11459471750E+03 -0.42185829588E+02  0.26080681731E+03  0.31394131775E+03  0.12500944578E+03 0.  0.
          2    1    1    2  501    0  0.65011973369E+02  0.25040351836E+02 -0.37491608554E+02  0.79115084614E+02  0.00000000000E+00 0. -1.
          1    1    1    2  502    0  0.49582744131E+02  0.17145477752E+02  0.58200246753E+03  0.58436229185E+03  0.00000000000E+00 0. -1.
         22    1    3    3    0    0 -0.32862521121E+02 -0.77777423681E+02  0.14506606877E+03  0.16784944813E+03  0.00000000000E+00 0.  1.
         22    1    3    3    0    0 -0.81732196380E+02  0.35591594092E+02  0.11574074854E+03  0.14609186961E+03  0.00000000000E+00 0.  1.
</event>
<event>
 7    1  0.6358809E-006  0.2321442E+03  0.7818608E-02  0.1159474E+00
          2   -1    0    0  502    0  0.00000000000E+00  0.00000000000E+00  0.66078203863E+03  0.66078203863E+03  0.00000000000E+00 0. -1.
          1   -1    0    0  501    0 -0.00000000000E+00 -0.00000000000E+00 -0.25922034074E+04  0.25922034074E+04  0.00000000000E+00 0. -1.
         25    2    1    2    0    0  0.15325588385E+03  0.63876743094E+02 -0.69326268780E+02  0.21908478460E+03  0.12499762821E+03 0.  0.
          2    1    1    2  501    0 -0.26278978994E+02  0.15141858621E+03 -0.24187901357E+04  0.24236674470E+04  0.00000000000E+00 0. -1.
          1    1    1    2  502    0 -0.12697690486E+03 -0.21529532931E+03  0.55669503573E+03  0.61023321443E+03  0.00000000000E+00 0. -1.
         22    1    3    3    0    0  0.11272696588E+03 -0.16419847164E+02 -0.59738700253E+02  0.12863006074E+03  0.00000000000E+00 0.  1.
         22    1    3    3    0    0  0.40528917972E+02  0.80296590257E+02 -0.95875685276E+01  0.90454723864E+02  0.00000000000E+00 0.  1.
</event>
<event>
 7    1  0.6358809E-006  0.8405479E+02  0.7818608E-02  0.1407003E+00
          2   -1    0    0  502    0  0.00000000000E+00  0.00000000000E+00  0.10015296138E+04  0.10015296138E+04  0.00000000000E+00 0. -1.
          1   -1    0    0  501    0 -0.00000000000E+00 -0.00000000000E+00 -0.62940583605E+02  0.62940583605E+02  0.00000000000E+00 0. -1.
         25    2    1    2    0    0  0.26086226639E+02 -0.46775851372E+02  0.44716970153E+03  0.46739115931E+03  0.12500112936E+03 0.  0.
          2    1    1    2  501    0 -0.64265134329E+02  0.58158796061E+02 -0.15965450477E+02  0.88132562986E+02  0.00000000000E+00 0. -1.
          1    1    1    2  502    0  0.38178907689E+02 -0.11382944689E+02  0.50738477910E+03  0.50894647507E+03  0.00000000000E+00 0. -1.
         22    1    3    3    0    0 -0.30274436494E+02 -0.30415873209E+02  0.49923496182E+02  0.65833291875E+02  0.00000000000E+00 0.  1.
         22    1    3    3    0    0  0.56360663133E+02 -0.16359978163E+02  0.39724620535E+03  0.40155786744E+03  0.00000000000E+00 0.  1.
</event>
<event>
 7    1  0.6358809E-006  0.7676848E+02  0.7818608E-02  0.1420551E+00
          2   -1    0    0  502    0  0.00000000000E+00  0.00000000000E+00  0.63430722714E+03  0.63430722714E+03  0.00000000000E+00 0. -1.
          1   -1    0    0  501    0 -0.00000000000E+00 -0.00000000000E+00 -0.14901469600E+03  0.14901469600E+03  0.00000000000E+00 0. -1.
         25    2    1    2    0    0 -0.10283428737E+03 -0.24057829242E+02 -0.25086859818E+02  0.16555271511E+03  0.12499872455E+03 0.  0.
          2    1    1    2  501    0  0.63567013014E+02  0.24162444862E+02 -0.31163340879E+02  0.74804697045E+02  0.00000000000E+00 0. -1.
          1    1    1    2  502    0  0.39267274357E+02 -0.10461561977E+00  0.54154273184E+03  0.54296451099E+03  0.00000000000E+00 0. -1.
         22    1    3    3    0    0 -0.14848512698E+02 -0.64739768468E+02 -0.54147467589E+01  0.66641094177E+02  0.00000000000E+00 0.  1.
         22    1    3    3    0    0 -0.87985774673E+02  0.40681939226E+02 -0.19672113059E+02  0.98911620936E+02  0.00000000000E+00 0.  1.
</event>
<event>
 7    1  0.6358809E-006  0.7955950E+02  0.7818608E-02  0.1447284E+00
          2   -1    0    0  502    0  0.00000000000E+00  0.00000000000E+00  0.41552213428E+04  0.41552213428E+04  0.00000000000E+00 0. -1.
          1   -1    0    0  501    0 -0.00000000000E+00 -0.00000000000E+00 -0.12076782565E+02  0.12076782565E+02  0.00000000000E+00 0. -1.
         25    2    1    2    0    0 -0.98601368910E+02  0.81629559849E+01  0.12625626402E+04  0.12725870899E+04  0.12499846854E+03 0.  0.
          2    1    1    2  501    0  0.25280079991E+02  0.17897560958E+02  0.30176981430E+02  0.43244136490E+02  0.00000000000E+00 0. -1.
          1    1    1    2  502    0  0.73321288919E+02 -0.26060516943E+02  0.28504049386E+04  0.28514668989E+04  0.00000000000E+00 0. -1.
         22    1    3    3    0    0 -0.14473032339E+02 -0.52602285210E+02  0.50802975099E+03  0.51095077744E+03  0.00000000000E+00 0. -1.
         22    1    3    3    0    0 -0.84128336572E+02  0.60765241195E+02  0.75453288925E+03  0.76163631249E+03  0.00000000000E+00 0. -1.
</event>
<event>
 7    1  0.6358809E-006  0.1458229E+03  0.7818608E-02  0.1307019E+00
          2   -1    0    0  502    0  0.00000000000E+00  0.00000000000E+00  0.11712038519E+03  0.11712038519E+03  0.00000000000E+00 0. -1.
          1   -1    0    0  501    0 -0.00000000000E+00 -0.00000000000E+00 -0.18228245900E+04  0.18228245900E+04  0.00000000000E+00 0. -1.
         25    2    1    2    0    0 -0.89627918164E+01  0.16654850868E+03 -0.43079909531E+03  0.47857249577E+03  0.12500014321E+03 0.  0.
          2    1    1    2  501    0  0.45994125596E+02 -0.27268045395E+02 -0.13115723734E+04  0.13126618363E+04  0.00000000000E+00 0. -1.
          1    1    1    2  502    0 -0.37031333780E+02 -0.13928046329E+03  0.36667263872E+02  0.14871064311E+03  0.00000000000E+00 0. -1.
         22    1    3    3    0    0  0.13483093257E+02  0.16637002719E+03 -0.27896430639E+03  0.32508747129E+03  0.00000000000E+00 0. -1.
         22    1    3    3    0    0 -0.22445885073E+02  0.17848149544E+00 -0.15183478892E+03  0.15348502448E+03  0.00000000000E+00 0. -1.
</event>
<event>
 7    1  0.6358809E-006  0.9517141E+02  0.7818608E-02  0.1309116E+00
          2   -1    0    0  502    0  0.00000000000E+00  0.00000000000E+00  0.32363667361E+04  0.32363667361E+04  0.00000000000E+00 0. -1.
          1   -1    0    0  501    0 -0.00000000000E+00 -0.00000000000E+00 -0.20548337472E+02  0.20548337472E+02  0.00000000000E+00 0. -1.
         25    2    1    2    0    0 -0.24647357348E+02 -0.22604745446E+01  0.12098709795E+04  0.12165617892E+04  0.12498879138E+03 0.  0.
          2    1    1    2  501    0  0.10497747832E+03 -0.50125912696E+00  0.15236343877E+03  0.18502740254E+03  0.00000000000E+00 0. -1.
          1    1    1    2  502    0 -0.80330120977E+02  0.27617336716E+01  0.18535839804E+04  0.18553258818E+04  0.00000000000E+00 0. -1.
         22    1    3    3    0    0 -0.53972696648E+02 -0.29851259161E+01  0.11329251427E+04  0.11342139754E+04  0.00000000000E+00 0. -1.
         22    1    3    3    0    0  0.29325339300E+02  0.72465137153E+00  0.76945836838E+02  0.82347813884E+02  0.00000000000E+00 0. -1.
</event>
<event>
 7    1  0.6358809E-006  0.4740592E+02  0.7818608E-02  0.1475486E+00
          2   -1    0    0  502    0  0.00000000000E+00  0.00000000000E+00  0.13990303919E+04  0.13990303919E+04  0.00000000000E+00 0. -1.
          1   -1    0    0  501    0 -0.00000000000E+00 -0.00000000000E+00 -0.76335125465E+02  0.76335125465E+02  0.00000000000E+00 0. -1.
         25    2    1    2    0    0 -0.14715924235E+02 -0.11833089048E+01  0.60982295435E+03  0.62267752215E+03  0.12500120916E+03 0.  0.
          2    1    1    2  501    0  0.21040245590E+02  0.43078386933E+02 -0.61040131001E+02  0.77616602269E+02  0.00000000000E+00 0. -1.
          1    1    1    2  502    0 -0.63243213542E+01 -0.41895078028E+02  0.77391244310E+03  0.77507139296E+03  0.00000000000E+00 0. -1.
         22    1    3    3    0    0 -0.36998513985E+02 -0.18114575127E+01  0.59444106435E+03  0.59559411548E+03  0.00000000000E+00 0. -1.
         22    1    3    3    0    0  0.22282589749E+02  0.62814860788E+00  0.15381890004E+02  0.27083406667E+02  0.00000000000E+00 0. -1.
</event>
<event>
 7    1  0.6358809E-006  0.5974459E+02  0.7818608E-02  0.1523612E+00
          2   -1    0    0  502    0  0.00000000000E+00  0.00000000000E+00  0.20073931243E+04  0.20073931243E+04  0.00000000000E+00 0. -1.
          1   -1    0    0  501    0 -0.00000000000E+00 -0.00000000000E+00 -0.15210851771E+03  0.15210851771E+03  0.00000000000E+00 0. -1.
         25    2    1    2    0    0  0.53983978641E+02 -0.13528266175E+02  0.53629486375E+03  0.55347531239E+03  0.12500182644E+03 0.  0.
          2    1    1    2  501    0  0.55445653204E+01  0.23500983180E+02 -0.14187506344E+03  0.14391515571E+03  0.00000000000E+00 0. -1.
          1    1    1    2  502    0 -0.59528543961E+02 -0.99727170046E+01  0.14608648063E+04  0.14621111739E+04  0.00000000000E+00 0. -1.
         22    1    3    3    0    0  0.63398769669E+02  0.16053461047E+01  0.11124899667E+03  0.12805592681E+03  0.00000000000E+00 0. -1.
         22    1    3    3    0    0 -0.94147910277E+01 -0.15133612280E+02  0.42504586708E+03  0.42541938558E+03  0.00000000000E+00 0. -1.
</event>
<event>
 7    1  0.6358809E-006  0.4405836E+02  0.7818608E-02  0.1525106E+00
          2   -1    0    0  502    0  0.00000000000E+00  0.00000000000E+00  0.28910131977E+03  0.28910131977E+03  0.00000000000E+00 0. -1.
          1   -1    0    0  501    0 -0.00000000000E+00 -0.00000000000E+00 -0.69052926002E+03  0.69052926002E+03  0.00000000000E+00 0. -1.
         25    2    1    2    0    0  0.96043153904E+01 -0.12449122108E+02 -0.32962478448E+02  0.13022616313E+03  0.12500042025E+03 0.  0.
          2    1    1    2  501    0  0.32198057666E+02 -0.37830680799E+01 -0.60640755558E+03  0.60727353803E+03  0.00000000000E+00 0. -1.
          1    1    1    2  502    0 -0.41802373057E+02  0.16232190188E+02  0.23794209378E+03  0.24213087863E+03  0.00000000000E+00 0. -1.
         22    1    3    3    0    0 -0.32793222412E+02  0.29863169906E+02  0.21481622637E+02  0.49281481960E+02  0.00000000000E+00 0. -1.
         22    1    3    3    0    0  0.42397537802E+02 -0.42312292015E+02 -0.54444101085E+02  0.80944681173E+02  0.00000000000E+00 0. -1.
</event>
<event>
 7    1  0.6358809E-006  0.2675974E+02  0.7818608E-02  0.1643061E+00
          2   -1    0    0  502    0  0.00000000000E+00  0.00000000000E+00  0.28185597263E+02  0.28185597263E+02  0.00000000000E+00 0. -1.
          1   -1    0    0  501    0 -0.00000000000E+00 -0.00000000000E+00 -0.35814437647E+03  0.35814437647E+03  0.00000000000E+00 0. -1.
         25    2    1    2    0    0 -0.20385456522E+02  0.51205931008E+01 -0.22022452998E+03  0.25409911328E+03  0.12500291377E+03 0.  0.
          2    1    1    2  501    0  0.19734194680E+02  0.20710768674E+02 -0.10097167357E+03  0.10494595391E+03  0.00000000000E+00 0. -1.
          1    1    1    2  502    0  0.65126184164E+00 -0.25831361775E+02 -0.87625756533E+01  0.27284906546E+02  0.00000000000E+00 0. -1.
         22    1    3    3    0    0 -0.34577836665E+02  0.53894348110E+02 -0.67017954150E+02  0.92691066047E+02  0.00000000000E+00 0.  1.
         22    1    3    3    0    0  0.14192380143E+02 -0.48773755009E+02 -0.15320657583E+03  0.16140804723E+03  0.00000000000E+00 0.  1.
</event>
<event>
 7    1  0.6358809E-006  0.6447138E+02  0.7818608E-02  0.1455368E+00
          2   -1    0    0  502    0  0.00000000000E+00  0.00000000000E+00  0.51294122756E+03  0.51294122756E+03  0.00000000000E+00 0. -1.
          1   -1    0    0  501    0 -0.00000000000E+00 -0.00000000000E+00 -0.15174612327E+03  0.15174612327E+03  0.00000000000E+00 0. -1.
         25    2    1    2    0    0 -0.46368512437E+01  0.72396224088E+02  0.83710334648E+02  0.16701783526E+03  0.12499929406E+03 0.  0.
          2    1    1    2  501    0 -0.28361801032E+02 -0.57963132520E+02 -0.99704305782E+02  0.11876474679E+03  0.00000000000E+00 0. -1.
          1    1    1    2  502    0  0.32998652276E+02 -0.14433091568E+02  0.37718907542E+03  0.37890476878E+03  0.00000000000E+00 0. -1.
         22    1    3    3    0    0  0.44483079347E+02  0.76697708064E+02  0.28813891425E+02  0.93228338554E+02  0.00000000000E+00 0. -1.
         22    1    3    3    0    0 -0.49119930591E+02 -0.43014839759E+01  0.54896443223E+02  0.73789496706E+02  0.00000000000E+00 0. -1.
</event>
<event>
 7    1  0.6358809E-006  0.2327747E+03  0.7818608E-02  0.1207888E+00
          2   -1    0    0  502    0  0.00000000000E+00  0.00000000000E+00  0.32537299777E+04  0.32537299777E+04  0.00000000000E+00 0. -1.
          1   -1    0    0  501    0 -0.00000000000E+00 -0.00000000000E+00 -0.17387828114E+03  0.17387828114E+03  0.00000000000E+00 0. -1.
         25    2    1    2    0    0  0.21732614586E+02 -0.25660338047E+03  0.13719756479E+02  0.28658595104E+03  0.12500269681E+03 0.  0.
          2    1    1    2  501    0  0.39299586079E+02  0.19150671622E+03  0.22328440028E+03  0.29677466744E+03  0.00000000000E+00 0. -1.
          1    1    1    2  502    0 -0.61032200665E+02  0.65096664252E+02  0.28428475398E+04  0.28442476404E+04  0.00000000000E+00 0. -1.
         22    1    3    3    0    0 -0.36865389031E+02 -0.19999538458E+03  0.22653349102E+02  0.20462254272E+03  0.00000000000E+00 0. -1.
         22    1    3    3    0    0  0.58598003617E+02 -0.56607995888E+02 -0.89335926229E+01  0.81963408321E+02  0.00000000000E+00 0. -1.
</event>
<event>
 7    1  0.6358809E-006  0.1085888E+03  0.7818608E-02  0.1277134E+00
          2   -1    0    0  502    0  0.00000000000E+00  0.00000000000E+00  0.10651633949E+04  0.10651633949E+04  0.00000000000E+00 0. -1.
          1   -1    0    0  501    0 -0.00000000000E+00 -0.00000000000E+00 -0.20510098359E+04  0.20510098359E+04  0.00000000000E+00 0. -1.
         25    2    1    2    0    0 -0.61083692800E+02 -0.74703210002E+02  0.28501107673E+03  0.32583445575E+03  0.12499996634E+03 0.  0.
          2    1    1    2  501    0  0.10858422193E+03 -0.74644051700E+01 -0.20261677233E+04  0.20290889319E+04  0.00000000000E+00 0. -1.
          1    1    1    2  502    0 -0.47500529131E+02  0.82167615172E+02  0.75531020547E+03  0.76124984318E+03  0.00000000000E+00 0. -1.
         22    1    3    3    0    0 -0.91721447972E+02 -0.85392230696E+02  0.23191506536E+03  0.26360814597E+03  0.00000000000E+00 0. -1.
         22    1    3    3    0    0  0.30637755171E+02  0.10689020693E+02  0.53096011377E+02  0.62226309785E+02  0.00000000000E+00 0. -1.
</event>
<event>
 7    1  0.6358809E-006  0.8974325E+02  0.7818608E-02  0.1475925E+00
          2   -1    0    0  502    0  0.00000000000E+00  0.00000000000E+00  0.24584366629E+04  0.24584366629E+04  0.00000000000E+00 0. -1.
          1   -1    0    0  501    0 -0.00000000000E+00 -0.00000000000E+00 -0.12808999596E+04  0.12808999596E+04  0.00000000000E+00 0. -1.
         25    2    1    2    0    0  0.96810920594E+02 -0.56375124037E+02  0.13981691771E+04  0.14082083502E+04  0.12499280313E+03 0.  0.
          2    1    1    2  501    0 -0.77622933505E+02  0.44989278678E+02 -0.12741848963E+04  0.12773396201E+04  0.00000000000E+00 0. -1.
          1    1    1    2  502    0 -0.19187987089E+02  0.11385845359E+02  0.10535524226E+04  0.10537886521E+04  0.00000000000E+00 0. -1.
         22    1    3    3    0    0  0.10034955772E+01  0.82283374781E+01  0.39034499928E+01  0.91623939488E+01  0.00000000000E+00 0.  1.
         22    1    3    3    0    0  0.95807425017E+02 -0.64603461515E+02  0.13942657271E+04  0.13990459562E+04  0.00000000000E+00 0.  1.
</event>
<event>
 7    1  0.6358809E-006  0.4292553E+02  0.7818608E-02  0.1553319E+00
          2   -1    0    0  502    0  0.00000000000E+00  0.00000000000E+00  0.13520397659E+04  0.13520397659E+04  0.00000000000E+00 0. -1.
          1   -1    0    0  501    0 -0.00000000000E+00 -0.00000000000E+00 -0.54604164342E+03  0.54604164342E+03  0.00000000000E+00 0. -1.
         25    2    1    2    0    0  0.90577384284E+01  0.16146043404E+02 -0.25878984016E+03  0.28799142187E+03  0.12499656139E+03 0.  0.
          2    1    1    2  501    0 -0.22336330552E+02 -0.40441107155E+02 -0.27054940504E+03  0.27446561785E+03  0.00000000000E+00 0. -1.
          1    1    1    2  502    0  0.13278592124E+02  0.24295063751E+02  0.13353373676E+04  0.13356243696E+04  0.00000000000E+00 0. -1.
         22    1    3    3    0    0 -0.14039278920E+02 -0.32695133349E+02 -0.15563328054E+02  0.38836713010E+02  0.00000000000E+00 0. -1.
         22    1    3    3    0    0  0.23097017349E+02  0.48841176752E+02 -0.24322651210E+03  0.24915470886E+03  0.00000000000E+00 0. -1.
</event>
<event>
 7    1  0.6358809E-006  0.2810736E+02  0.7818608E-02  0.1623261E+00
          2   -1    0    0  502    0  0.00000000000E+00  0.00000000000E+00  0.15461539245E+04  0.15461539245E+04  0.00000000000E+00 0. -1.
          1   -1    0    0  501    0 -0.00000000000E+00 -0.00000000000E+00 -0.81872670775E+03  0.81872670775E+03  0.00000000000E+00 0. -1.
         25    2    1    2    0    0  0.73067805618E+01  0.23002711707E+02 -0.23925967204E+03  0.27102481629E+03  0.12500698618E+03 0.  0.
          2    1    1    2  501    0 -0.28071436172E+02 -0.48561353985E+01 -0.56310010581E+03  0.56382028763E+03  0.00000000000E+00 0. -1.
          1    1    1    2  502    0  0.20764655610E+02 -0.18146576309E+02  0.15297869946E+04  0.15300355283E+04  0.00000000000E+00 0. -1.
         22    1    3    3    0    0 -0.15979679770E+02  0.55955870897E+02 -0.47650032391E+02  0.75212600276E+02  0.00000000000E+00 0. -1.
         22    1    3    3    0    0  0.23286460332E+02 -0.32953159190E+02 -0.19160963964E+03  0.19581221601E+03  0.00000000000E+00 0. -1.
</event>
<event>
 7    1  0.6358809E-006  0.7331658E+02  0.7818608E-02  0.1435224E+00
          2   -1    0    0  502    0  0.00000000000E+00  0.00000000000E+00  0.53589871252E+03  0.53589871252E+03  0.00000000000E+00 0. -1.
          1   -1    0    0  501    0 -0.00000000000E+00 -0.00000000000E+00 -0.44657216978E+03  0.44657216978E+03  0.00000000000E+00 0. -1.
         25    2    1    2    0    0  0.45366761778E+02 -0.23752446150E+02  0.16695627398E+03  0.21476340559E+03  0.12500640458E+03 0.  0.
          2    1    1    2  501    0  0.42608001322E+01 -0.36528054111E+02 -0.41743245959E+03  0.41904929480E+03  0.00000000000E+00 0. -1.
          1    1    1    2  502    0 -0.49627561910E+02  0.60280500260E+02  0.33980272835E+03  0.34865818190E+03  0.00000000000E+00 0. -1.
         22    1    3    3    0    0  0.70403729507E+02  0.10782794155E+02  0.15481505366E+03  0.17041318793E+03  0.00000000000E+00 0. -1.
         22    1    3    3    0    0 -0.25036967730E+02 -0.34535240305E+02  0.12141220317E+02  0.44350217663E+02  0.00000000000E+00 0. -1.
</event>
<event>
 7    1  0.6358809E-006  0.1388771E+03  0.7818608E-02  0.1251518E+00
          2   -1    0    0  502    0  0.00000000000E+00  0.00000000000E+00  0.27253342499E+04  0.27253342499E+04  0.00000000000E+00 0. -1.
          1   -1    0    0  501    0 -0.00000000000E+00 -0.00000000000E+00 -0.47072270501E+02  0.47072270501E+02  0.00000000000E+00 0. -1.
         25    2    1    2    0    0 -0.48442773064E+02  0.49991527777E+02  0.25607695054E+03  0.29333690570E+03  0.12500112213E+03 0.  0.
          2    1    1    2  501    0  0.12924547204E+02  0.94407031893E+02  0.60855431832E+02  0.11306243927E+03  0.00000000000E+00 0. -1.
          1    1    1    2  502    0  0.35518225860E+02 -0.14439855967E+03  0.23613295971E+04  0.23660071755E+04  0.00000000000E+00 0. -1.
         22    1    3    3    0    0 -0.53115238507E+02  0.79262785772E+02  0.24276671832E+03  0.26084381782E+03  0.00000000000E+00 0.  1.
         22    1    3    3    0    0  0.46724654428E+01 -0.29271257995E+02  0.13310232218E+02  0.32493087875E+02  0.00000000000E+00 0.  1.
</event>
<event>
 7    1  0.6358809E-006  0.1077728E+03  0.7818608E-02  0.1303697E+00
          2   -1    0    0  502    0  0.00000000000E+00  0.00000000000E+00  0.19462916894E+04  0.19462916894E+04  0.00000000000E+00 0. -1.
          1   -1    0    0  501    0 -0.00000000000E+00 -0.00000000000E+00 -0.59045555574E+02  0.59045555574E+02  0.00000000000E+00 0. -1.
         25    2    1    2    0    0  0.25604230984E+02  0.14457344636E+03  0.86009535903E+03  0.88144679678E+03  0.12500948326E+03 0.  0.
          2    1    1    2  501    0  0.37298791278E+02 -0.64580288270E+02 -0.15595154517E+02  0.76190696993E+02  0.00000000000E+00 0. -1.
          1    1    1    2  502    0 -0.62903022262E+02 -0.79993158091E+02  0.10427459293E+04  0.10476997512E+04  0.00000000000E+00 0. -1.
         22    1    3    3    0    0  0.35626729859E+02  0.16401145596E+03  0.80194925621E+03  0.81932388657E+03  0.00000000000E+00 0.  1.
         22    1    3    3    0    0 -0.10022498875E+02 -0.19438009599E+02  0.58146102816E+02  0.62122910215E+02  0.00000000000E+00 0.  1.
</event>
<event>
 7    1  0.6358809E-006  0.6333260E+02  0.7818608E-02  0.1402908E+00
          2   -1    0    0  502    0  0.00000000000E+00  0.00000000000E+00  0.17989828463E+04  0.17989828463E+04  0.00000000000E+00 0. -1.
          1   -1    0    0  501    0 -0.00000000000E+00 -0.00000000000E+00 -0.54505384800E+03  0.54505384800E+03  0.00000000000E+00 0. -1.
         25    2    1    2    0    0  0.46294372671E+02  0.22192553404E+02  0.26066362831E+03  0.29360644993E+03  0.12499416766E+03 0.  0.
          2    1    1    2  501    0 -0.55102324354E+02  0.31696791875E+02 -0.52617901805E+03  0.53000501111E+03  0.00000000000E+00 0. -1.
          1    1    1    2  502    0  0.88079516837E+01 -0.53889345279E+02  0.15194443881E+04  0.15204252333E+04  0.00000000000E+00 0. -1.
         22    1    3    3    0    0 -0.32763292844E+00 -0.41473620422E+02  0.34098566812E+02  0.53692464955E+02  0.00000000000E+00 0. -1.
         22    1    3    3    0    0  0.46622005599E+02  0.63666173826E+02  0.22656506150E+03  0.23991398498E+03  0.00000000000E+00 0. -1.
</event>
<event>
 7    1  0.6358809E-006  0.6243601E+02  0.7818608E-02  0.1420531E+00
          2   -1    0    0  502    0  0.00000000000E+00  0.00000000000E+00  0.97683073423E+03  0.97683073423E+03  0.00000000000E+00 0. -1.
          1   -1    0    0  501    0 -0.00000000000E+00 -0.00000000000E+00 -0.38945315093E+02  0.38945315093E+02  0.00000000000E+00 0. -1.
         25    2    1    2    0    0 -0.36132127492E+01 -0.31699792730E+02  0.35034023279E+03  0.37333908182E+03  0.12500343650E+03 0.  0.
          2    1    1    2  501    0  0.40288747399E+02 -0.26620039717E+02 -0.25286355057E+01  0.48354975742E+02  0.00000000000E+00 0. -1.
          1    1    1    2  502    0 -0.36675534650E+02  0.58319832447E+02  0.59007382185E+03  0.59408199176E+03  0.00000000000E+00 0. -1.
         22    1    3    3    0    0  0.37331563889E+02 -0.25959420800E+02  0.31694893071E+03  0.32019394414E+03  0.00000000000E+00 0.  1.
         22    1    3    3    0    0 -0.40944776639E+02 -0.57403719299E+01  0.33391302086E+02  0.53145137679E+02  0.00000000000E+00 0.  1.
</event>
<event>
 7    1  0.6358809E-006  0.5054072E+02  0.7818608E-02  0.1505125E+00
          2   -1    0    0  502    0  0.00000000000E+00  0.00000000000E+00  0.41244238060E+03  0.41244238060E+03  0.00000000000E+00 0. -1.
          1   -1    0    0  501    0 -0.00000000000E+00 -0.00000000000E+00 -0.47359374881E+03  0.47359374881E+03  0.00000000000E+00 0. -1.
         25    2    1    2    0    0  0.27283972142E+01  0.40209082752E+02  0.19527041132E+03  0.23533019825E+03  0.12500221673E+03 0.  0.
          2    1    1    2  501    0 -0.31960797343E+02  0.48713934280E+01 -0.44931143006E+03  0.45047306714E+03  0.00000000000E+00 0. -1.
          1    1    1    2  502    0  0.29232400129E+02 -0.45080476181E+02  0.19288965052E+03  0.20023286401E+03  0.00000000000E+00 0. -1.
         22    1    3    3    0    0 -0.45500671373E+02  0.59886482802E+02  0.14279755158E+03  0.16139344056E+03  0.00000000000E+00 0. -1.
         22    1    3    3    0    0  0.48229068587E+02 -0.19677400050E+02  0.52472859734E+02  0.73936757693E+02  0.00000000000E+00 0. -1.
</event>
<event>
 7    1  0.6358809E-006  0.1423534E+03  0.7818608E-02  0.1284693E+00
          2   -1    0    0  502    0  0.00000000000E+00  0.00000000000E+00  0.34348707723E+04  0.34348707723E+04  0.00000000000E+00 0. -1.
          1   -1    0    0  501    0 -0.00000000000E+00 -0.00000000000E+00 -0.21304426278E+04  0.21304426278E+04  0.00000000000E+00 0. -1.
         25    2    1    2    0    0 -0.20473233948E+03  0.15058251237E+02 -0.13845353912E+03  0.27737280428E+03  0.12499683317E+03 0.  0.
          2    1    1    2  501    0  0.63081085162E+02 -0.23683950573E+02 -0.19204422817E+04  0.19216239773E+04  0.00000000000E+00 0. -1.
          1    1    1    2  502    0  0.14165125431E+03  0.86256993361E+01  0.33633239653E+04  0.33663166185E+04  0.00000000000E+00 0. -1.
         22    1    3    3    0    0 -0.36335000279E+02  0.48879189071E+02 -0.69178525395E+02  0.92168735183E+02  0.00000000000E+00 0. -1.
         22    1    3    3    0    0 -0.16839733920E+03 -0.33820937834E+02 -0.69275013725E+02  0.18520406910E+03  0.00000000000E+00 0. -1.
</event>
<event>
 7    1  0.6358809E-006  0.9319245E+02  0.7818608E-02  0.1379663E+00
          2   -1    0    0  502    0  0.00000000000E+00  0.00000000000E+00  0.21562805156E+03  0.21562805156E+03  0.00000000000E+00 0. -1.
          1   -1    0    0  501    0 -0.00000000000E+00 -0.00000000000E+00 -0.12675866286E+04  0.12675866286E+04  0.00000000000E+00 0. -1.
         25    2    1    2    0    0 -0.12422934061E+03  0.43614064684E+02 -0.41936309471E+03  0.45697407484E+03  0.12499913665E+03 0.  0.
          2    1    1    2  501    0  0.79874892505E+02 -0.37953734719E+02 -0.82448307382E+03  0.82921217035E+03  0.00000000000E+00 0. -1.
          1    1    1    2  502    0  0.44354448107E+02 -0.56603299646E+01  0.19188759152E+03  0.19702843496E+03  0.00000000000E+00 0. -1.
         22    1    3    3    0    0 -0.69315809650E+02  0.53469890832E+02 -0.37670534459E+03  0.38674361964E+03  0.00000000000E+00 0.  1.
         22    1    3    3    0    0 -0.54913530963E+02 -0.98558261481E+01 -0.42657750127E+02  0.70230455201E+02  0.00000000000E+00 0.  1.
</event>
<event>
 7    1  0.6358809E-006  0.7349478E+02  0.7818608E-02  0.1370984E+00
          2   -1    0    0  502    0  0.00000000000E+00  0.00000000000E+00  0.20627651029E+03  0.20627651029E+03  0.00000000000E+00 0. -1.
          1   -1    0    0  501    0 -0.00000000000E+00 -0.00000000000E+00 -0.49566751669E+03  0.49566751669E+03  0.00000000000E+00 0. -1.
         25    2    1    2    0    0 -0.64959687505E+02  0.43892676398E+02 -0.94430536682E+01  0.14785280804E+03  0.12499981416E+03 0.  0.
          2    1    1    2  501    0  0.11746041933E+02 -0.73482032852E+02 -0.40671153576E+03  0.41346324138E+03  0.00000000000E+00 0. -1.
          1    1    1    2  502    0  0.53213645572E+02  0.29589356454E+02  0.12676358303E+03  0.14062797756E+03  0.00000000000E+00 0. -1.
         22    1    3    3    0    0 -0.11670914974E+02 -0.43119576112E+02  0.43883769182E+01  0.44886144326E+02  0.00000000000E+00 0.  1.
         22    1    3    3    0    0 -0.53288772530E+02  0.87012252511E+02 -0.13831430586E+02  0.10296666372E+03  0.00000000000E+00 0.  1.
</event>
<event>
 7    1  0.6358809E-006  0.2509408E+03  0.7818608E-02  0.1190051E+00
          2   -1    0    0  502    0  0.00000000000E+00  0.00000000000E+00  0.14312931087E+04  0.14312931087E+04  0.00000000000E+00 0. -1.
          1   -1    0    0  501    0 -0.00000000000E+00 -0.00000000000E+00 -0.71122059016E+03  0.71122059016E+03  0.00000000000E+00 0. -1.
         25    2    1    2    0    0 -0.29297933440E+03  0.98114840801E+02 -0.20118097809E+03  0.38930954582E+03  0.12499889658E+03 0.  0.
          2    1    1    2  501    0  0.23224414944E+03 -0.18043849060E+02 -0.38127531418E+03  0.44680397339E+03  0.00000000000E+00 0. -1.
          1    1    1    2  502    0  0.60735184961E+02 -0.80070991741E+02  0.13025288108E+04  0.13064001797E+04  0.00000000000E+00 0. -1.
         22    1    3    3    0    0 -0.16557527091E+03  0.87675590574E+01 -0.52073485349E+02  0.17379208355E+03  0.00000000000E+00 0.  1.
         22    1    3    3    0    0 -0.12740406350E+03  0.89347281744E+02 -0.14910749274E+03  0.21551746227E+03  0.00000000000E+00 0.  1.
</event>
<event>
 7    1  0.6358809E-006  0.3418172E+03  0.7818608E-02  0.1183087E+00
          2   -1    0    0  502    0  0.00000000000E+00  0.00000000000E+00  0.96502603647E+03  0.96502603647E+03  0.00000000000E+00 0. -1.
          1   -1    0    0  501    0 -0.00000000000E+00 -0.00000000000E+00 -0.60294534230E+03  0.60294534230E+03  0.00000000000E+00 0. -1.
         25    2    1    2    0    0 -0.20320982826E+03 -0.19504394783E+03  0.14985250691E+03  0.34266462967E+03  0.12500759461E+03 0.  0.
          2    1    1    2  501    0  0.27633835870E+03  0.22677720500E+03 -0.44074145194E+03  0.56748904541E+03  0.00000000000E+00 0. -1.
          1    1    1    2  502    0 -0.73128530445E+02 -0.31733257165E+02  0.65296963920E+03  0.65781770369E+03  0.00000000000E+00 0. -1.
         22    1    3    3    0    0 -0.83357571347E+02 -0.37843975346E+02  0.10622545054E+03  0.14023015908E+03  0.00000000000E+00 0. -1.
         22    1    3    3    0    0 -0.11985225691E+03 -0.15719997249E+03  0.43627056363E+02  0.20243447059E+03  0.00000000000E+00 0. -1.
</event>
<event>
 7    1  0.6358809E-006  0.7778611E+02  0.7818608E-02  0.1393355E+00
          2   -1    0    0  502    0  0.00000000000E+00  0.00000000000E+00  0.23257381095E+03  0.23257381095E+03  0.00000000000E+00 0. -1.
          1   -1    0    0  501    0 -0.00000000000E+00 -0.00000000000E+00 -0.39904007370E+04  0.39904007370E+04  0.00000000000E+00 0. -1.
         25    2    1    2    0    0 -0.57885733162E+02 -0.18345308395E+02 -0.56767831754E+03  0.58444209631E+03  0.12500633299E+03 0.  0.
          2    1    1    2  501    0 -0.15412234399E+02  0.45417985657E+02 -0.34073582674E+04  0.34076958041E+04  0.00000000000E+00 0. -1.
          1    1    1    2  502    0  0.73297967562E+02 -0.27072677262E+02  0.21720965896E+03  0.23083664755E+03  0.00000000000E+00 0. -1.
         22    1    3    3    0    0 -0.12954155846E+02 -0.51314881482E+02 -0.97200428962E+02  0.11067497732E+03  0.00000000000E+00 0. -1.
         22    1    3    3    0    0 -0.44931577316E+02  0.32969573087E+02 -0.47047788858E+03  0.47376711899E+03  0.00000000000E+00 0. -1.
</event>
<event>
 7    1  0.6358809E-006  0.1222932E+03  0.7818608E-02  0.1273963E+00
          2   -1    0    0  502    0  0.00000000000E+00  0.00000000000E+00  0.29703084298E+03  0.29703084298E+03  0.00000000000E+00 0. -1.
          1   -1    0    0  501    0 -0.00000000000E+00 -0.00000000000E+00 -0.12923601013E+04  0.12923601013E+04  0.00000000000E+00 0. -1.
         25    2    1    2    0    0  0.17898132216E+03  0.21541573665E+02 -0.20763465337E+03  0.30205241267E+03  0.12500063054E+03 0.  0.
          2    1    1    2  501    0 -0.64774310725E+02 -0.57891381862E+02 -0.10211905732E+04  0.10248791686E+04  0.00000000000E+00 0. -1.
          1    1    1    2  502    0 -0.11420701144E+03  0.36349808196E+02  0.23349596829E+03  0.26245936299E+03  0.00000000000E+00 0. -1.
         22    1    3    3    0    0  0.17115916659E+03  0.14827940151E+02 -0.22425258294E+03  0.28249698949E+03  0.00000000000E+00 0. -1.
         22    1    3    3    0    0  0.78221555753E+01  0.67136335141E+01  0.16617929561E+02  0.19555423179E+02  0.00000000000E+00 0. -1.
</event>
<event>
 7    1  0.6358809E-006  0.4904614E+02  0.7818608E-02  0.1568244E+00
          2   -1    0    0  502    0  0.00000000000E+00  0.00000000000E+00  0.47963067464E+03  0.47963067464E+03  0.00000000000E+00 0. -1.
          1   -1    0    0  501    0 -0.00000000000E+00 -0.00000000000E+00 -0.25240992394E+03  0.25240992394E+03  0.00000000000E+00 0. -1.
         25    2    1    2    0    0 -0.18146380912E+02  0.52836937169E+02 -0.10880592274E+03  0.17488415039E+03  0.12499881665E+03 0.  0.
          2    1    1    2  501    0  0.21691431137E+02 -0.39418318016E+01 -0.10810356988E+03  0.11032877251E+03  0.00000000000E+00 0. -1.
          1    1    1    2  502    0 -0.35450502253E+01 -0.48895105367E+02  0.44413024333E+03  0.44682767567E+03  0.00000000000E+00 0. -1.
         22    1    3    3    0    0  0.91235679744E+01 -0.31503345167E+02  0.21515051364E+01  0.32868362047E+02  0.00000000000E+00 0.  1.
         22    1    3    3    0    0 -0.27269948886E+02  0.84340282335E+02 -0.11095742788E+03  0.14201578834E+03  0.00000000000E+00 0.  1.
</event>
<event>
 7    1  0.6358809E-006  0.9594594E+02  0.7818608E-02  0.1375274E+00
          2   -1    0    0  502    0  0.00000000000E+00  0.00000000000E+00  0.13755939276E+04  0.13755939276E+04  0.00000000000E+00 0. -1.
          1   -1    0    0  501    0 -0.00000000000E+00 -0.00000000000E+00 -0.95178688227E+03  0.95178688227E+03  0.00000000000E+00 0. -1.
         25    2    1    2    0    0 -0.52122160205E+02  0.74436182791E+02  0.35201997605E+03  0.38444875107E+03  0.12500125507E+03 0.  0.
          2    1    1    2  501    0  0.38894027316E+02  0.22671979639E+02 -0.93264453952E+03  0.93373047563E+03  0.00000000000E+00 0. -1.
          1    1    1    2  502    0  0.13228132889E+02 -0.97108162430E+02  0.10044316088E+04  0.10092015832E+04  0.00000000000E+00 0. -1.
         22    1    3    3    0    0 -0.33466440138E+02  0.39339129035E+02  0.29481435702E+02  0.59470368586E+02  0.00000000000E+00 0. -1.
         22    1    3    3    0    0 -0.18655720066E+02  0.35097053757E+02  0.32253854035E+03  0.32497838248E+03  0.00000000000E+00 0. -1.
</event>
<event>
 7    1  0.6358809E-006  0.1679226E+03  0.7818608E-02  0.1309024E+00
          2   -1    0    0  502    0  0.00000000000E+00  0.00000000000E+00  0.16451822327E+04  0.16451822327E+04  0.00000000000E+00 0. -1.
          1   -1    0    0  501    0 -0.00000000000E+00 -0.00000000000E+00 -0.14848517447E+04  0.14848517447E+04  0.00000000000E+00 0. -1.
         25    2    1    2    0    0 -0.13378777970E+03 -0.90330154009E+02 -0.40532947334E+03  0.45384506461E+03  0.12499861597E+03 0.  0.
          2    1    1    2  501    0  0.25246852563E+02 -0.37964219498E+02 -0.10504130202E+04  0.10514020157E+04  0.00000000000E+00 0. -1.
          1    1    1    2  502    0  0.10854092714E+03  0.12829437351E+03  0.16160729816E+04  0.16247868971E+04  0.00000000000E+00 0. -1.
         22    1    3    3    0    0 -0.13619178598E+03 -0.10597060036E+03 -0.29017556710E+03  0.33760899048E+03  0.00000000000E+00 0. -1.
         22    1    3    3    0    0  0.24040062764E+01  0.15640446351E+02 -0.11515390624E+03  0.11623607413E+03  0.00000000000E+00 0. -1.
</event>
<event>
 7    1  0.6358809E-006  0.8419642E+02  0.7818608E-02  0.1332125E+00
          2   -1    0    0  502    0  0.00000000000E+00  0.00000000000E+00  0.38598196624E+03  0.38598196624E+03  0.00000000000E+00 0. -1.
          1   -1    0    0  501    0 -0.00000000000E+00 -0.00000000000E+00 -0.26959756551E+03  0.26959756551E+03  0.00000000000E+00 0. -1.
         25    2    1    2    0    0  0.55518050704E+02 -0.77468004717E+02  0.92487634999E+02  0.18238065811E+03  0.12500078446E+03 0.  0.
          2    1    1    2  501    0 -0.84793852940E+02  0.95195158831E+01 -0.21064153643E+03  0.22726740978E+03  0.00000000000E+00 0. -1.
          1    1    1    2  502    0  0.29275802236E+02  0.67948488834E+02  0.23453830217E+03  0.24593146386E+03  0.00000000000E+00 0. -1.
         22    1    3    3    0    0  0.41425064456E+02  0.28468030694E+02  0.27309194936E+02  0.57203643807E+02  0.00000000000E+00 0. -1.
         22    1    3    3    0    0  0.14092986248E+02 -0.10593603541E+03  0.65178440063E+02  0.12517701430E+03  0.00000000000E+00 0. -1.
</event>
<event>
 7    1  0.6358809E-006  0.1017267E+03  0.7818608E-02  0.1293277E+00
          2   -1    0    0  502    0  0.00000000000E+00  0.00000000000E+00  0.20937218126E+04  0.20937218126E+04  0.00000000000E+00 0. -1.
          1   -1    0    0  501    0 -0.00000000000E+00 -0.00000000000E+00 -0.39879632428E+03  0.39879632428E+03  0.00000000000E+00 0. -1.
         25    2    1    2    0    0 -0.58018889407E+02  0.88146730870E+01  0.24041221604E+03  0.27724973378E+03  0.12500196505E+03 0.  0.
          2    1    1    2  501    0 -0.17459592162E+02 -0.85225537898E+02 -0.37380672024E+03  0.38379642230E+03  0.00000000000E+00 0. -1.
          1    1    1    2  502    0  0.75478481569E+02  0.76410864811E+02  0.18283199926E+04  0.18314719808E+04  0.00000000000E+00 0. -1.
         22    1    3    3    0    0  0.16090923746E+02 -0.40872120704E+02  0.47465955225E+02  0.64671979893E+02  0.00000000000E+00 0.  1.
         22    1    3    3    0    0 -0.74109813153E+02  0.49686793791E+02  0.19294626082E+03  0.21257775388E+03  0.00000000000E+00 0.  1.
</event>
<event>
 7    1  0.6358809E-006  0.6621127E+02  0.7818608E-02  0.1489002E+00
          2   -1    0    0  502    0  0.00000000000E+00  0.00000000000E+00  0.77851166326E+02  0.77851166326E+02  0.00000000000E+00 0. -1.
          1   -1    0    0  501    0 -0.00000000000E+00 -0.00000000000E+00 -0.42859831298E+03  0.42859831298E+03  0.00000000000E+00 0. -1.
         25    2    1    2    0    0  0.82853016599E+02 -0.96954389794E+01 -0.28060663385E+03  0.31831317480E+03  0.12499828156E+03 0.  0.
          2    1    1    2  501    0 -0.18424598577E+02  0.20525494150E+02 -0.10878717855E+03  0.11222928298E+03  0.00000000000E+00 0. -1.
          1    1    1    2  502    0 -0.64428418021E+02 -0.10830055171E+02  0.38646665743E+02  0.75907021525E+02  0.00000000000E+00 0. -1.
         22    1    3    3    0    0  0.39913795123E+02 -0.62063988292E+02 -0.19915445704E+03  0.21238537484E+03  0.00000000000E+00 0. -1.
         22    1    3    3    0    0  0.42939221476E+02  0.52368549313E+02 -0.81452176806E+02  0.10592779996E+03  0.00000000000E+00 0. -1.
</event>
<event>
 7    1  0.6358809E-006  0.9994964E+02  0.7818608E-02  0.1311152E+00
          2   -1    0    0  502    0  0.00000000000E+00  0.00000000000E+00  0.85054810124E+03  0.85054810124E+03  0.00000000000E+00 0. -1.
          1   -1    0    0  501    0 -0.00000000000E+00 -0.00000000000E+00 -0.19864610444E+04  0.19864610444E+04  0.00000000000E+00 0. -1.
         25    2    1    2    0    0 -0.59420880592E+02 -0.11186559656E+03  0.36216853833E+03  0.40353158411E+03  0.12500774565E+03 0.  0.
          2    1    1    2  501    0 -0.14582006528E+02  0.98873015802E+02 -0.19614814699E+04  0.19640259838E+04  0.00000000000E+00 0. -1.
          1    1    1    2  502    0  0.74002887120E+02  0.12992580761E+02  0.46339998850E+03  0.46945157769E+03  0.00000000000E+00 0. -1.
         22    1    3    3    0    0 -0.14203653169E+02 -0.46108602576E+02  0.29588032921E+03  0.29978811886E+03  0.00000000000E+00 0.  1.
         22    1    3    3    0    0 -0.45217227423E+02 -0.65756993986E+02  0.66288209117E+02  0.10374346525E+03  0.00000000000E+00 0.  1.
</event>
<event>
 7    1  0.6358809E-006  0.1650434E+03  0.7818608E-02  0.1288657E+00
          2   -1    0    0  502    0  0.00000000000E+00  0.00000000000E+00  0.12359295158E+04  0.12359295158E+04  0.00000000000E+00 0. -1.
          1   -1    0    0  501    0 -0.00000000000E+00 -0.00000000000E+00 -0.26562646421E+03  0.26562646421E+03  0.00000000000E+00 0. -1.
         25    2    1    2    0    0  0.12555563190E+03 -0.74560178840E+02  0.25967114624E+03  0.32307549613E+03  0.12500094015E+03 0.  0.
          2    1    1    2  501    0 -0.13014201857E+02 -0.54454595386E+02 -0.22267256723E+03  0.22960345077E+03  0.00000000000E+00 0. -1.
          1    1    1    2  502    0 -0.11254143005E+03  0.12901477423E+03  0.93330447261E+03  0.94887703315E+03  0.00000000000E+00 0. -1.
         22    1    3    3    0    0  0.13538217752E+03 -0.27675140992E+02  0.22460999380E+03  0.26371176829E+03  0.00000000000E+00 0. -1.
         22    1    3    3    0    0 -0.98265456194E+01 -0.46885037847E+02  0.35061152443E+02  0.59363727843E+02  0.00000000000E+00 0. -1.
</event>
<event>
 7    1  0.6358809E-006  0.7582370E+02  0.7818608E-02  0.1402768E+00
          2   -1    0    0  502    0  0.00000000000E+00  0.00000000000E+00  0.30899424324E+04  0.30899424324E+04  0.00000000000E+00 0. -1.
          1   -1    0    0  501    0 -0.00000000000E+00 -0.00000000000E+00 -0.75534445297E+03  0.75534445297E+03  0.00000000000E+00 0. -1.
         25    2    1    2    0    0  0.10334088738E+03 -0.25462412413E+02  0.30158380493E+03  0.34337449218E+03  0.12500230811E+03 0.  0.
          2    1    1    2  501    0 -0.61600626032E+02  0.43970350028E+02 -0.73231037489E+03  0.73621091678E+03  0.00000000000E+00 0. -1.
          1    1    1    2  502    0 -0.41740261349E+02 -0.18507937615E+02  0.27653245494E+04  0.27657014765E+04  0.00000000000E+00 0. -1.
         22    1    3    3    0    0  0.87725463978E+02 -0.57096176800E+02  0.28647400329E+03  0.30499686063E+03  0.00000000000E+00 0. -1.
         22    1    3    3    0    0  0.15615423403E+02  0.31633764387E+02  0.15109801638E+02  0.38377631543E+02  0.00000000000E+00 0. -1.
</event>
<event>
 7    1  0.6358809E-006  0.6598053E+02  0.7818608E-02  0.1476880E+00
          2   -1    0    0  502    0  0.00000000000E+00  0.00000000000E+00  0.26663650036E+04  0.26663650036E+04  0.00000000000E+00 0. -1.
          1   -1    0    0  501    0 -0.00000000000E+00 -0.00000000000E+00 -0.15915240100E+03  0.15915240100E+03  0.00000000000E+00 0. -1.
         25    2    1    2    0    0  0.49898826550E+02  0.32067622400E+02 -0.19593524445E+02  0.13973353137E+03  0.12499331298E+03 0.  0.
          2    1    1    2  501    0  0.15838041731E+02 -0.25645841305E+02 -0.76197322648E+02  0.81942569650E+02  0.00000000000E+00 0. -1.
          1    1    1    2  502    0 -0.65736868281E+02 -0.64217810950E+01  0.26030034497E+04  0.26038413036E+04  0.00000000000E+00 0. -1.
         22    1    3    3    0    0  0.69774392858E+02  0.17216041182E+02 -0.59123862936E+02  0.93061749076E+02  0.00000000000E+00 0. -1.
         22    1    3    3    0    0 -0.19875566308E+02  0.14851581219E+02  0.39530338491E+02  0.46671782289E+02  0.00000000000E+00 0. -1.
</event>
<event>
 7    1  0.6358809E-006  0.1220991E+03  0.7818608E-02  0.1343594E+00
          2   -1    0    0  502    0  0.00000000000E+00  0.00000000000E+00  0.40818400350E+04  0.40818400350E+04  0.00000000000E+00 0. -1.
          1   -1    0    0  501    0 -0.00000000000E+00 -0.00000000000E+00 -0.12004520085E+03  0.12004520085E+03  0.00000000000E+00 0. -1.
         25    2    1    2    0    0 -0.75312127321E+02 -0.30032269163E+02  0.97492110099E+03  0.98624071645E+03  0.12500297557E+03 0.  0.
          2    1    1    2  501    0  0.10460036015E+03  0.65735619326E+02 -0.80803435912E+02  0.14761978948E+03  0.00000000000E+00 0. -1.
          1    1    1    2  502    0 -0.29288232827E+02 -0.35703350163E+02  0.30676771690E+04  0.30680247299E+04  0.00000000000E+00 0. -1.
         22    1    3    3    0    0 -0.72585920258E+02 -0.63743907678E+02  0.45104016681E+03  0.46126915534E+03  0.00000000000E+00 0. -1.
         22    1    3    3    0    0 -0.27262070633E+01  0.33711638516E+02  0.52388093418E+03  0.52497156111E+03  0.00000000000E+00 0. -1.
</event>
<event>
 7    1  0.6358809E-006  0.8317591E+02  0.7818608E-02  0.1451645E+00
          2   -1    0    0  502    0  0.00000000000E+00  0.00000000000E+00  0.40630763259E+02  0.40630763259E+02  0.00000000000E+00 0. -1.
          1   -1    0    0  501    0 -0.00000000000E+00 -0.00000000000E+00 -0.76918272102E+03  0.76918272102E+03  0.00000000000E+00 0. -1.
         25    2    1    2    0    0 -0.50483575057E+02 -0.42771895597E+02 -0.50557625626E+03  0.52498596904E+03  0.12499956154E+03 0.  0.
          2    1    1    2  501    0 -0.27573709947E+02  0.79255331204E+01 -0.19165109012E+03  0.19378664531E+03  0.00000000000E+00 0. -1.
          1    1    1    2  502    0  0.78057285003E+02  0.34846362476E+02 -0.31324611373E+02  0.91040869930E+02  0.00000000000E+00 0. -1.
         22    1    3    3    0    0  0.35244531366E+02 -0.30980520421E+02 -0.26938376022E+03  0.27344026753E+03  0.00000000000E+00 0. -1.
         22    1    3    3    0    0 -0.85728106423E+02 -0.11791375175E+02 -0.23619249605E+03  0.25154570151E+03  0.00000000000E+00 0. -1.
</event>
<event>
 7    1  0.6358809E-006  0.1521262E+03  0.7818608E-02  0.1326135E+00
          2   -1    0    0  502    0  0.00000000000E+00  0.00000000000E+00  0.64271161296E+03  0.64271161296E+03  0.00000000000E+00 0. -1.
          1   -1    0    0  501    0 -0.00000000000E+00 -0.00000000000E+00 -0.17505607048E+03  0.17505607048E+03  0.00000000000E+00 0. -1.
         25    2    1    2    0    0 -0.12061528158E+03  0.68892009301E+02  0.32463012551E+03  0.37457299339E+03  0.12500421550E+03 0.  0.
          2    1    1    2  501    0 -0.38488361735E+02 -0.19547102733E+02 -0.12242098096E+03  0.12980885869E+03  0.00000000000E+00 0. -1.
          1    1    1    2  502    0  0.15910364331E+03 -0.49344906568E+02  0.26544639793E+03  0.31338583136E+03  0.00000000000E+00 0. -1.
         22    1    3    3    0    0 -0.82271219327E+02  0.80704552662E+02  0.31185086860E+03  0.33246464864E+03  0.00000000000E+00 0.  1.
         22    1    3    3    0    0 -0.38344062251E+02 -0.11812543362E+02  0.12779256916E+02  0.42108344754E+02  0.00000000000E+00 0.  1.
</event>
<event>
 7    1  0.6358809E-006  0.1067380E+03  0.7818608E-02  0.1335758E+00
          2   -1    0    0  502    0  0.00000000000E+00  0.00000000000E+00  0.42023096211E+04  0.42023096211E+04  0.00000000000E+00 0. -1.
          1   -1    0    0  501    0 -0.00000000000E+00 -0.00000000000E+00 -0.27070137378E+03  0.27070137378E+03  0.00000000000E+00 0. -1.
         25    2    1    2    0    0  0.61796462013E+02  0.60797791201E+02  0.11339947588E+03  0.18973721834E+03  0.12500238702E+03 0.  0.
          2    1    1    2  501    0 -0.10630394439E+03 -0.25932943952E+02 -0.21945118738E+03  0.24521800468E+03  0.00000000000E+00 0. -1.
          1    1    1    2  502    0  0.44507482374E+02 -0.34864847249E+02  0.40376599588E+04  0.40380557718E+04  0.00000000000E+00 0. -1.
         22    1    3    3    0    0  0.10602520778E+02 -0.36487415411E+02  0.11138758698E+02  0.39595667384E+02  0.00000000000E+00 0. -1.
         22    1    3    3    0    0  0.51193941235E+02  0.97285206612E+02  0.10226071718E+03  0.15014155095E+03  0.00000000000E+00 0. -1.
</event>
<event>
 7    1  0.6358809E-006  0.5913750E+02  0.7818608E-02  0.1445687E+00
          2   -1    0    0  502    0  0.00000000000E+00  0.00000000000E+00  0.27401176568E+04  0.27401176568E+04  0.00000000000E+00 0. -1.
          1   -1    0    0  501    0 -0.00000000000E+00 -0.00000000000E+00 -0.59727549611E+02  0.59727549611E+02  0.00000000000E+00 0. -1.
         25    2    1    2    0    0 -0.25449352712E+02 -0.82893816763E+01  0.13312029326E+04  0.13373269272E+04  0.12500271558E+03 0.  0.
          2    1    1    2  501    0  0.55755013978E+02 -0.21028708143E+02 -0.40591165376E+02  0.72100422026E+02  0.00000000000E+00 0. -1.
          1    1    1    2  502    0 -0.30305661265E+02  0.29318089819E+02  0.13897783399E+04  0.13904178572E+04  0.00000000000E+00 0. -1.
         22    1    3    3    0    0  0.39357126178E+02 -0.38875100815E+02  0.65765718744E+03  0.65997972168E+03  0.00000000000E+00 0.  1.
         22    1    3    3    0    0 -0.64806478890E+02  0.30585719139E+02  0.67354574519E+03  0.67734720549E+03  0.00000000000E+00 0.  1.
</event>
<event>
 7    1  0.6358809E-006  0.9758511E+02  0.7818608E-02  0.1302617E+00
          2   -1    0    0  502    0  0.00000000000E+00  0.00000000000E+00  0.18860495687E+03  0.18860495687E+03  0.00000000000E+00 0. -1.
          1   -1    0    0  501    0 -0.00000000000E+00 -0.00000000000E+00 -0.10562389202E+04  0.10562389202E+04  0.00000000000E+00 0. -1.
         25    2    1    2    0    0  0.64323921863E+02 -0.26254232636E+02 -0.37690298834E+02  0.14789179715E+03  0.12499829352E+03 0.  0.
          2    1    1    2  501    0 -0.29404585025E+02 -0.77812968298E+02 -0.93872991415E+03  0.94240826576E+03  0.00000000000E+00 0. -1.
          1    1    1    2  502    0 -0.34919336838E+02  0.10406720093E+03  0.10878624963E+03  0.15454381419E+03  0.00000000000E+00 0. -1.
         22    1    3    3    0    0 -0.22889102777E+02  0.25676332056E+02 -0.30772173850E+02  0.46153133558E+02  0.00000000000E+00 0. -1.
         22    1    3    3    0    0  0.87213024640E+02 -0.51930564692E+02 -0.69181249841E+01  0.10173866359E+03  0.00000000000E+00 0. -1.
</event>
<event>
 7    1  0.6358809E-006  0.6673334E+02  0.7818608E-02  0.1449429E+00
          2   -1    0    0  502    0  0.00000000000E+00  0.00000000000E+00  0.16382338237E+03  0.16382338237E+03  0.00000000000E+00 0. -1.
          1   -1    0    0  501    0 -0.00000000000E+00 -0.00000000000E+00 -0.15365878395E+04  0.15365878395E+04  0.00000000000E+00 0. -1.
         25    2    1    2    0    0  0.42006581767E+02  0.92638021117E+02 -0.25924931889E+03  0.30525719265E+03  0.12500155380E+03 0.  0.
          2    1    1    2  501    0 -0.25432839867E+02 -0.60289524880E+02 -0.12511198720E+04  0.12528298329E+04  0.00000000000E+00 0. -1.
          1    1    1    2  502    0 -0.16573741899E+02 -0.32348496237E+02  0.13760473371E+03  0.14232419635E+03  0.00000000000E+00 0. -1.
         22    1    3    3    0    0  0.38441216651E+02  0.10990961567E+03 -0.12883448036E+03  0.17365533128E+03  0.00000000000E+00 0. -1.
         22    1    3    3    0    0  0.35653651154E+01 -0.17271594549E+02 -0.13041483853E+03  0.13160186136E+03  0.00000000000E+00 0. -1.
</event>
<event>
 7    1  0.6358809E-006  0.1108912E+03  0.7818608E-02  0.1278703E+00
          2   -1    0    0  502    0  0.00000000000E+00  0.00000000000E+00  0.13659451319E+04  0.13659451319E+04  0.00000000000E+00 0. -1.
          1   -1    0    0  501    0 -0.00000000000E+00 -0.00000000000E+00 -0.10176445798E+04  0.10176445798E+04  0.00000000000E+00 0. -1.
         25    2    1    2    0    0  0.37401891696E+02 -0.55670226454E+02  0.41202901796E+03  0.43576540328E+03  0.12500199774E+03 0.  0.
          2    1    1    2  501    0  0.40479404393E+02  0.10380702386E+03 -0.10004518208E+04  0.10066371372E+04  0.00000000000E+00 0. -1.
          1    1    1    2  502    0 -0.77881296090E+02 -0.48136797411E+02  0.93672335491E+03  0.94118717117E+03  0.00000000000E+00 0. -1.
         22    1    3    3    0    0  0.76417586018E+02 -0.10562872320E+02  0.28783540004E+03  0.29799402551E+03  0.00000000000E+00 0.  1.
         22    1    3    3    0    0 -0.39015694322E+02 -0.45107354134E+02  0.12419361792E+03  0.13777137777E+03  0.00000000000E+00 0.  1.
</event>
<event>
 7    1  0.6358809E-006  0.3359712E+02  0.7818608E-02  0.1575949E+00
          2   -1    0    0  502    0  0.00000000000E+00  0.00000000000E+00  0.12096175265E+03  0.12096175265E+03  0.00000000000E+00 0. -1.
          1   -1    0    0  501    0 -0.00000000000E+00 -0.00000000000E+00 -0.10111601857E+04  0.10111601857E+04  0.00000000000E+00 0. -1.
         25    2    1    2    0    0  0.10666031516E+02  0.11419039565E+02 -0.67518920943E+03  0.68684048674E+03  0.12500090798E+03 0.  0.
          2    1    1    2  501    0  0.17245029715E+02 -0.30120349669E+02 -0.32675560465E+03  0.32859374870E+03  0.00000000000E+00 0. -1.
          1    1    1    2  502    0 -0.27911061231E+02  0.18701310104E+02  0.11174638103E+03  0.11668770292E+03  0.00000000000E+00 0. -1.
         22    1    3    3    0    0  0.49230228573E+02 -0.20966629317E+02 -0.53881206380E+03  0.54146251490E+03  0.00000000000E+00 0. -1.
         22    1    3    3    0    0 -0.38564197057E+02  0.32385668882E+02 -0.13637714563E+03  0.14537797184E+03  0.00000000000E+00 0. -1.
</event>
<event>
 7    1  0.6358809E-006  0.8520352E+02  0.7818608E-02  0.1395983E+00
          2   -1    0    0  502    0  0.00000000000E+00  0.00000000000E+00  0.17696966670E+04  0.17696966670E+04  0.00000000000E+00 0. -1.
          1   -1    0    0  501    0 -0.00000000000E+00 -0.00000000000E+00 -0.77260461272E+03  0.77260461272E+03  0.00000000000E+00 0. -1.
         25    2    1    2    0    0 -0.50412593023E+00  0.11211220212E+03  0.31390154011E+03  0.35597988192E+03  0.12497239474E+03 0.  0.
          2    1    1    2  501    0 -0.27455962653E+02 -0.32934222868E+02 -0.74972376873E+03  0.75094888130E+03  0.00000000000E+00 0. -1.
          1    1    1    2  502    0  0.27960088584E+02 -0.79177979248E+02  0.14329142829E+04  0.14353725165E+04  0.00000000000E+00 0. -1.
         22    1    3    3    0    0  0.44942260765E+02  0.10191925043E+03  0.26958116831E+03  0.29168706985E+03  0.00000000000E+00 0. -1.
         22    1    3    3    0    0 -0.45446386696E+02  0.10192951682E+02  0.44320371798E+02  0.64292812071E+02  0.00000000000E+00 0. -1.
</event>
<event>
 7    1  0.7746633E-006  0.6899099E+02  0.7818608E-02  0.1442684E+00
          2   -1    0    0  502    0  0.00000000000E+00  0.00000000000E+00  0.17915615771E+04  0.17915615771E+04  0.00000000000E+00 0. -1.
          1   -1    0    0  501    0 -0.00000000000E+00 -0.00000000000E+00 -0.55496450694E+03  0.55496450694E+03  0.00000000000E+00 0. -1.
         25    2    1    2    0    0 -0.12505869456E+02  0.87656285409E+02 -0.16419783093E+03  0.22455792152E+03  0.12500124516E+03 0.  0.
          2    1    1    2  501    0  0.30369968594E+02 -0.21063036272E+02 -0.35896270799E+03  0.36086037774E+03  0.00000000000E+00 0. -1.
          1    1    1    2  502    0 -0.17864099138E+02 -0.66593249138E+02  0.17597576091E+04  0.17611077848E+04  0.00000000000E+00 0. -1.
         22    1    3    3    0    0  0.47221412369E+01  0.11267273124E+03 -0.89666501335E+02  0.14407471827E+03  0.00000000000E+00 0.  1.
         22    1    3    3    0    0 -0.17228010693E+02 -0.25016445829E+02 -0.74531329597E+02  0.80483203253E+02  0.00000000000E+00 0.  1.
</event>
<event>
 7    1  0.6358809E-006  0.8355803E+02  0.7818608E-02  0.1374272E+00
          2   -1    0    0  502    0  0.00000000000E+00  0.00000000000E+00  0.16545482737E+04  0.16545482737E+04  0.00000000000E+00 0. -1.
          1   -1    0    0  501    0 -0.00000000000E+00 -0.00000000000E+00 -0.83882573014E+02  0.83882573014E+02  0.00000000000E+00 0. -1.
         25    2    1    2    0    0 -0.74576225173E+02  0.10496157193E+03  0.24529072553E+03  0.30392987687E+03  0.12500913999E+03 0.  0.
          2    1    1    2  501    0  0.54966459780E+02 -0.56669484426E+02 -0.25237237376E+02  0.82883414000E+02  0.00000000000E+00 0. -1.
          1    1    1    2  502    0  0.19609765393E+02 -0.48292087508E+02  0.13506122126E+04  0.13516175559E+04  0.00000000000E+00 0. -1.
         22    1    3    3    0    0 -0.55251001290E+02  0.32380606887E+02  0.20997878705E+02  0.67395012843E+02  0.00000000000E+00 0.  1.
         22    1    3    3    0    0 -0.19325223883E+02  0.72580965047E+02  0.22429284682E+03  0.23653486403E+03  0.00000000000E+00 0.  1.
</event>
<event>
 7    1  0.6358809E-006  0.7642262E+02  0.7818608E-02  0.1459329E+00
          2   -1    0    0  502    0  0.00000000000E+00  0.00000000000E+00  0.23275609475E+03  0.23275609475E+03  0.00000000000E+00 0. -1.
          1   -1    0    0  501    0 -0.00000000000E+00 -0.00000000000E+00 -0.86687763543E+03  0.86687763543E+03  0.00000000000E+00 0. -1.
         25    2    1    2    0    0 -0.93518135317E+02 -0.78309747300E+01 -0.67888026413E+02  0.17041276597E+03  0.12499904350E+03 0.  0.
          2    1    1    2  501    0  0.19416123861E+02  0.22235743254E+02 -0.73957044296E+03  0.74015934382E+03  0.00000000000E+00 0. -1.
          1    1    1    2  502    0  0.74102011456E+02 -0.14404768524E+02  0.17333692869E+03  0.18906162039E+03  0.00000000000E+00 0. -1.
         22    1    3    3    0    0 -0.36682065162E+01  0.41117501519E+02  0.92143151395E+01  0.42296669771E+02  0.00000000000E+00 0.  1.
         22    1    3    3    0    0 -0.89849928801E+02 -0.48948476249E+02 -0.77102341552E+02  0.12811609620E+03  0.00000000000E+00 0.  1.
</event>
<event>
 7    1  0.6358809E-006  0.5294060E+02  0.7818608E-02  0.1548356E+00
          2   -1    0    0  502    0  0.00000000000E+00  0.00000000000E+00  0.15785061989E+04  0.15785061989E+04  0.00000000000E+00 0. -1.
          1   -1    0    0  501    0 -0.00000000000E+00 -0.00000000000E+00 -0.30576135046E+03  0.30576135046E+03  0.00000000000E+00 0. -1.
         25    2    1    2    0    0  0.44766356477E+02  0.22872614496E+02  0.80727247181E+03  0.81843788102E+03  0.12499815273E+03 0.  0.
          2    1    1    2  501    0 -0.52949261232E+02 -0.11897243472E+01 -0.29766522087E+03  0.30234024447E+03  0.00000000000E+00 0. -1.
          1    1    1    2  502    0  0.81829047545E+01 -0.21682890149E+02  0.76313759753E+03  0.76348942391E+03  0.00000000000E+00 0. -1.
         22    1    3    3    0    0  0.65085483478E+02  0.51561233730E+02  0.71308970171E+03  0.71790779608E+03  0.00000000000E+00 0. -1.
         22    1    3    3    0    0 -0.20319127001E+02 -0.28688619234E+02  0.94182770096E+02  0.10053008494E+03  0.00000000000E+00 0. -1.
</event>
<event>
 7    1  0.6358809E-006  0.2396562E+03  0.7818608E-02  0.1183271E+00
          2   -1    0    0  502    0  0.00000000000E+00  0.00000000000E+00  0.74859443196E+03  0.74859443196E+03  0.00000000000E+00 0. -1.
          1   -1    0    0  501    0 -0.00000000000E+00 -0.00000000000E+00 -0.14426197452E+04  0.14426197452E+04  0.00000000000E+00 0. -1.
         25    2    1    2    0    0 -0.10378957692E+03  0.15982624671E+03  0.24233375959E+03  0.33266715656E+03  0.12500032241E+03 0.  0.
          2    1    1    2  501    0 -0.10283053979E+03  0.47962122485E+02 -0.13482715717E+04  0.13530375886E+04  0.00000000000E+00 0. -1.
          1    1    1    2  502    0  0.20662011671E+03 -0.20778836919E+03  0.41191249893E+03  0.50550943194E+03  0.00000000000E+00 0. -1.
         22    1    3    3    0    0 -0.89989984483E+02  0.49076912047E+02  0.17357375804E+03  0.20158023238E+03  0.00000000000E+00 0.  1.
         22    1    3    3    0    0 -0.13799592438E+02  0.11074933466E+03  0.68760001547E+02  0.13108692418E+03  0.00000000000E+00 0.  1.
</event>
<event>
 7    1  0.6358809E-006  0.6171381E+02  0.7818608E-02  0.1419861E+00
          2   -1    0    0  502    0  0.00000000000E+00  0.00000000000E+00  0.33207887083E+03  0.33207887083E+03  0.00000000000E+00 0. -1.
          1   -1    0    0  501    0 -0.00000000000E+00 -0.00000000000E+00 -0.15440591092E+04  0.15440591092E+04  0.00000000000E+00 0. -1.
         25    2    1    2    0    0 -0.46133160528E+02  0.42678480416E+02 -0.10245126054E+03  0.17341138582E+03  0.12500210700E+03 0.  0.
          2    1    1    2  501    0 -0.15887675282E+02 -0.46465069089E+02 -0.14024390031E+04  0.14032984638E+04  0.00000000000E+00 0. -1.
          1    1    1    2  502    0  0.62020835811E+02  0.37865886721E+01  0.29291002535E+03  0.29942813041E+03  0.00000000000E+00 0. -1.
         22    1    3    3    0    0  0.11682648702E+02  0.10557097281E+02  0.25158670849E+02  0.29679880434E+02  0.00000000000E+00 0. -1.
         22    1    3    3    0    0 -0.57815809230E+02  0.32121383136E+02 -0.12760993139E+03  0.14373150539E+03  0.00000000000E+00 0. -1.
</event>
<event>
 7    1  0.6358809E-006  0.1659752E+03  0.7818608E-02  0.1221170E+00
          2   -1    0    0  502    0  0.00000000000E+00  0.00000000000E+00  0.19701728438E+04  0.19701728438E+04  0.00000000000E+00 0. -1.
          1   -1    0    0  501    0 -0.00000000000E+00 -0.00000000000E+00 -0.14691433601E+04  0.14691433601E+04  0.00000000000E+00 0. -1.
         25    2    1    2    0    0  0.42770136468E+02 -0.42132031462E+02  0.66424207213E+03  0.67856263224E+03  0.12500129137E+03 0.  0.
          2    1    1    2  501    0 -0.14045307826E+03  0.89853879912E+02 -0.14549382201E+04  0.14644609969E+04  0.00000000000E+00 0. -1.
          1    1    1    2  502    0  0.97682941789E+02 -0.47721848451E+02  0.12917256317E+04  0.12962925748E+04  0.00000000000E+00 0. -1.
         22    1    3    3    0    0  0.80832113683E+02 -0.48793542204E+02  0.37281595609E+03  0.38458598191E+03  0.00000000000E+00 0. -1.
         22    1    3    3    0    0 -0.38061977215E+02  0.66615107427E+01  0.29142611603E+03  0.29397665033E+03  0.00000000000E+00 0. -1.
</event>
<event>
 7    1  0.6358809E-006  0.4389000E+02  0.7818608E-02  0.1579033E+00
          2   -1    0    0  502    0  0.00000000000E+00  0.00000000000E+00  0.34361207457E+03  0.34361207457E+03  0.00000000000E+00 0. -1.
          1   -1    0    0  501    0 -0.00000000000E+00 -0.00000000000E+00 -0.81061279481E+02  0.81061279481E+02  0.00000000000E+00 0. -1.
         25    2    1    2    0    0  0.46628770761E+02 -0.64583121673E+01  0.24192914943E+03  0.27635181506E+03  0.12499864112E+03 0.  0.
          2    1    1    2  501    0 -0.35139969480E+02  0.26425121154E+02 -0.54340374773E+02  0.69899791227E+02  0.00000000000E+00 0. -1.
          1    1    1    2  502    0 -0.11488801281E+02 -0.19966808987E+02  0.74962020425E+02  0.78421747762E+02  0.00000000000E+00 0. -1.
         22    1    3    3    0    0  0.63131683276E+02  0.32856821222E+02  0.21363952515E+03  0.22518220809E+03  0.00000000000E+00 0.  1.
         22    1    3    3    0    0 -0.16502912515E+02 -0.39315133389E+02  0.28289624279E+02  0.51169606963E+02  0.00000000000E+00 0.  1.
</event>
<event>
 7    1  0.6358809E-006  0.9909223E+02  0.7818608E-02  0.1318464E+00
          2   -1    0    0  502    0  0.00000000000E+00  0.00000000000E+00  0.20025968304E+04  0.20025968304E+04  0.00000000000E+00 0. -1.
          1   -1    0    0  501    0 -0.00000000000E+00 -0.00000000000E+00 -0.33633397509E+03  0.33633397509E+03  0.00000000000E+00 0. -1.
         25    2    1    2    0    0  0.16157184428E+03  0.43615278395E+02 -0.27686735282E+02  0.21070483439E+03  0.12498887371E+03 0.  0.
          2    1    1    2  501    0 -0.64072521837E+02 -0.30483718235E+02 -0.21003763276E+03  0.22169878734E+03  0.00000000000E+00 0. -1.
          1    1    1    2  502    0 -0.97499322443E+02 -0.13131560160E+02  0.19039872234E+04  0.19065271838E+04  0.00000000000E+00 0. -1.
         22    1    3    3    0    0  0.13893461030E+03  0.78985605964E+02 -0.43823954156E+02  0.16571689970E+03  0.00000000000E+00 0.  1.
         22    1    3    3    0    0  0.22637233978E+02 -0.35370327569E+02  0.16137218874E+02  0.44987934688E+02  0.00000000000E+00 0.  1.
</event>
<event>
 7    1  0.6358809E-006  0.5861206E+02  0.7818608E-02  0.1502566E+00
          2   -1    0    0  502    0  0.00000000000E+00  0.00000000000E+00  0.12878578873E+04  0.12878578873E+04  0.00000000000E+00 0. -1.
          1   -1    0    0  501    0 -0.00000000000E+00 -0.00000000000E+00 -0.18904378154E+03  0.18904378154E+03  0.00000000000E+00 0. -1.
         25    2    1    2    0    0 -0.48044682971E+02  0.43246102644E+02  0.98902341031E+03  0.99898526984E+03  0.12500298498E+03 0.  0.
          2    1    1    2  501    0  0.56354053709E+02 -0.16120387820E+02 -0.17868291123E+03  0.18805113410E+03  0.00000000000E+00 0. -1.
          1    1    1    2  502    0 -0.83093707381E+01 -0.27125714824E+02  0.28847360671E+03  0.28986526493E+03  0.00000000000E+00 0. -1.
         22    1    3    3    0    0 -0.54471912523E+02  0.20757116901E+02  0.95973470460E+03  0.96150338032E+03  0.00000000000E+00 0. -1.
         22    1    3    3    0    0  0.64272295518E+01  0.22488985743E+02  0.29288705710E+02  0.37481889515E+02  0.00000000000E+00 0. -1.
</event>
<event>
 7    1  0.6358809E-006  0.1579047E+03  0.7818608E-02  0.1262710E+00
          2   -1    0    0  502    0  0.00000000000E+00  0.00000000000E+00  0.21504018119E+04  0.21504018119E+04  0.00000000000E+00 0. -1.
          1   -1    0    0  501    0 -0.00000000000E+00 -0.00000000000E+00 -0.13648473317E+04  0.13648473317E+04  0.00000000000E+00 0. -1.
         25    2    1    2    0    0 -0.34242632573E+02  0.14275281385E+03  0.59555780357E+03  0.62599122153E+03  0.12499995313E+03 0.  0.
          2    1    1    2  501    0  0.10512103866E+03 -0.11811661243E+03 -0.13440791578E+04  0.13533479779E+04  0.00000000000E+00 0. -1.
          1    1    1    2  502    0 -0.70878406083E+02 -0.24636201427E+02  0.15340758344E+04  0.15359099442E+04  0.00000000000E+00 0. -1.
         22    1    3    3    0    0 -0.30354156850E+02  0.69000291392E+02  0.10142870059E+03  0.12637324224E+03  0.00000000000E+00 0. -1.
         22    1    3    3    0    0 -0.38884757234E+01  0.73752522461E+02  0.49412910299E+03  0.49961797929E+03  0.00000000000E+00 0. -1.
</event>
<event>
 7    1  0.6358809E-006  0.5739236E+02  0.7818608E-02  0.1491666E+00
          2   -1    0    0  502    0  0.00000000000E+00  0.00000000000E+00  0.11716754443E+04  0.11716754443E+04  0.00000000000E+00 0. -1.
          1   -1    0    0  501    0 -0.00000000000E+00 -0.00000000000E+00 -0.67832916162E+03  0.67832916162E+03  0.00000000000E+00 0. -1.
         25    2    1    2    0    0 -0.80565425648E+02  0.19149177586E+02 -0.87304262757E+02  0.17350385627E+03  0.12499630008E+03 0.  0.
          2    1    1    2  501    0  0.56605332702E+02  0.88955528348E+00 -0.54624580818E+03  0.54917159245E+03  0.00000000000E+00 0. -1.
          1    1    1    2  502    0  0.23960092946E+02 -0.20038732869E+02  0.11268963536E+04  0.11273291572E+04  0.00000000000E+00 0. -1.
         22    1    3    3    0    0 -0.87992716957E+02  0.23747696072E+02 -0.55773836499E+01  0.91311436932E+02  0.00000000000E+00 0.  1.
         22    1    3    3    0    0  0.74272913086E+01 -0.45985184861E+01 -0.81726879107E+02  0.82192419340E+02  0.00000000000E+00 0.  1.
</event>
<event>
 7    1  0.6358809E-006  0.7023578E+02  0.7818608E-02  0.1434643E+00
          2   -1    0    0  502    0  0.00000000000E+00  0.00000000000E+00  0.22590580509E+04  0.22590580509E+04  0.00000000000E+00 0. -1.
          1   -1    0    0  501    0 -0.00000000000E+00 -0.00000000000E+00 -0.41600706309E+03  0.41600706309E+03  0.00000000000E+00 0. -1.
         25    2    1    2    0    0 -0.25141770349E+02  0.90321993970E+02 -0.94040649103E+02  0.18236754704E+03  0.12499642922E+03 0.  0.
          2    1    1    2  501    0 -0.17309881264E+02 -0.34452859238E+02 -0.27590637161E+03  0.27858743223E+03  0.00000000000E+00 0. -1.
          1    1    1    2  502    0  0.42451651613E+02 -0.55869134732E+02  0.22129980085E+04  0.22141101347E+04  0.00000000000E+00 0. -1.
         22    1    3    3    0    0  0.13364021277E+02  0.45675398969E+02 -0.11120650873E+03  0.12096167459E+03  0.00000000000E+00 0. -1.
         22    1    3    3    0    0 -0.38505791625E+02  0.44646595001E+02  0.17165859631E+02  0.61405872445E+02  0.00000000000E+00 0. -1.
</event>
<event>
 7    1  0.6358809E-006  0.8849368E+02  0.7818608E-02  0.1334893E+00
          2   -1    0    0  502    0  0.00000000000E+00  0.00000000000E+00  0.11710229796E+04  0.11710229796E+04  0.00000000000E+00 0. -1.
          1   -1    0    0  501    0 -0.00000000000E+00 -0.00000000000E+00 -0.13172708465E+03  0.13172708465E+03  0.00000000000E+00 0. -1.
         25    2    1    2    0    0  0.10075351705E+03 -0.27001587503E+02  0.84579790831E+03  0.86132509478E+03  0.12500584096E+03 0.  0.
          2    1    1    2  501    0 -0.22776492098E+02  0.64825194754E+02 -0.10784139424E+03  0.12787040619E+03  0.00000000000E+00 0. -1.
          1    1    1    2  502    0 -0.77977024955E+02 -0.37823607251E+02  0.30133938092E+03  0.31355456333E+03  0.00000000000E+00 0. -1.
         22    1    3    3    0    0  0.26172358487E+02 -0.50304498174E+02  0.61603489970E+03  0.61863925880E+03  0.00000000000E+00 0. -1.
         22    1    3    3    0    0  0.74581158566E+02  0.23302910671E+02  0.22976300861E+03  0.24268583598E+03  0.00000000000E+00 0. -1.
</event>
<event>
 7    1  0.6358809E-006  0.6639194E+02  0.7818608E-02  0.1381557E+00
          2   -1    0    0  502    0  0.00000000000E+00  0.00000000000E+00  0.67881206681E+03  0.67881206681E+03  0.00000000000E+00 0. -1.
          1   -1    0    0  501    0 -0.00000000000E+00 -0.00000000000E+00 -0.39688266849E+02  0.39688266849E+02  0.00000000000E+00 0. -1.
         25    2    1    2    0    0 -0.29199596154E+02 -0.39350272101E+02  0.21436566600E+03  0.25294386110E+03  0.12500759088E+03 0.  0.
          2    1    1    2  501    0  0.63443742215E+02 -0.19564790841E+02  0.46129264986E+02  0.80844285853E+02  0.00000000000E+00 0. -1.
          1    1    1    2  502    0 -0.34244146062E+02  0.58915062942E+02  0.37862886897E+03  0.38471218670E+03  0.00000000000E+00 0. -1.
         22    1    3    3    0    0  0.25721184173E+02 -0.58778031244E+01 -0.27263186219E+01  0.26524718624E+02  0.00000000000E+00 0.  1.
         22    1    3    3    0    0 -0.54920780327E+02 -0.33472468977E+02  0.21709198463E+03  0.22641914248E+03  0.00000000000E+00 0.  1.
</event>
<event>
 7    1  0.8537140E-006  0.1099716E+03  0.7818608E-02  0.1363290E+00
          2   -1    0    0  502    0  0.00000000000E+00  0.00000000000E+00  0.19068092062E+04  0.19068092062E+04  0.00000000000E+00 0. -1.
          1   -1    0    0  501    0 -0.00000000000E+00 -0.00000000000E+00 -0.91401589197E+03  0.91401589197E+03  0.00000000000E+00 0. -1.
         25    2    1    2    0    0  0.61028759820E+02 -0.29093579460E+02 -0.11207626034E+03  0.18098647917E+03  0.12499628642E+03 0.  0.
          2    1    1    2  501    0  0.42113793472E+02 -0.10399521751E+02 -0.76524102221E+03  0.76646953216E+03  0.00000000000E+00 0. -1.
          1    1    1    2  502    0 -0.10314255329E+03  0.39493101211E+02  0.18701105968E+04  0.18733690869E+04  0.00000000000E+00 0. -1.
         22    1    3    3    0    0 -0.34344488799E+02  0.99492035857E+01 -0.13046293496E+02  0.38062269203E+02  0.00000000000E+00 0. -1.
         22    1    3    3    0    0  0.95373248619E+02 -0.39042783046E+02 -0.99029966847E+02  0.14292420996E+03  0.00000000000E+00 0. -1.
</event>
<event>
 7    1  0.6358809E-006  0.6094321E+02  0.7818608E-02  0.1422276E+00
          2   -1    0    0  502    0  0.00000000000E+00  0.00000000000E+00  0.10671052027E+04  0.10671052027E+04  0.00000000000E+00 0. -1.
          1   -1    0    0  501    0 -0.00000000000E+00 -0.00000000000E+00 -0.13949950576E+03  0.13949950576E+03  0.00000000000E+00 0. -1.
         25    2    1    2    0    0  0.75918512814E+01  0.48441535729E+02  0.62311120595E+03  0.63741414390E+03  0.12499998911E+03 0.  0.
          2    1    1    2  501    0  0.41128929770E+02 -0.45433326331E+02 -0.12379204430E+03  0.13813126452E+03  0.00000000000E+00 0. -1.
          1    1    1    2  502    0 -0.48720781051E+02 -0.30082093979E+01  0.42828653533E+03  0.43105930007E+03  0.00000000000E+00 0. -1.
         22    1    3    3    0    0 -0.34574553990E+01  0.60585775696E+02  0.61687254011E+03  0.61985024075E+03  0.00000000000E+00 0. -1.
         22    1    3    3    0    0  0.11049306680E+02 -0.12144239967E+02  0.62386658369E+01  0.17563903152E+02  0.00000000000E+00 0. -1.
</event>
<event>
 7    1  0.6358809E-006  0.1330625E+03  0.7818608E-02  0.1277782E+00
          2   -1    0    0  502    0  0.00000000000E+00  0.00000000000E+00  0.19666574971E+04  0.19666574971E+04  0.00000000000E+00 0. -1.
          1   -1    0    0  501    0 -0.00000000000E+00 -0.00000000000E+00 -0.38174291016E+02  0.38174291016E+02  0.00000000000E+00 0. -1.
         25    2    1    2    0    0 -0.53117368118E+02  0.10422830590E+03  0.50923352275E+03  0.53724220151E+03  0.12500163137E+03 0.  0.
          2    1    1    2  501    0  0.67862622567E+02  0.36329303125E+02  0.51629428460E+02  0.92686307998E+02  0.00000000000E+00 0. -1.
          1    1    1    2  502    0 -0.14745254450E+02 -0.14055760903E+03  0.13676202549E+04  0.13749032786E+04  0.00000000000E+00 0. -1.
         22    1    3    3    0    0 -0.59842551970E+02 -0.17911541162E+00  0.26264964909E+03  0.26938077376E+03  0.00000000000E+00 0.  1.
         22    1    3    3    0    0  0.67251838526E+01  0.10440742131E+03  0.24658387366E+03  0.26786142774E+03  0.00000000000E+00 0.  1.
</event>
<event>
 7    1  0.6358809E-006  0.5764585E+02  0.7818608E-02  0.1495747E+00
          2   -1    0    0  502    0  0.00000000000E+00  0.00000000000E+00  0.11576362708E+04  0.11576362708E+04  0.00000000000E+00 0. -1.
          1   -1    0    0  501    0 -0.00000000000E+00 -0.00000000000E+00 -0.55529048232E+02  0.55529048232E+02  0.00000000000E+00 0. -1.
         25    2    1    2    0    0 -0.58782549585E+02  0.49111224241E+01  0.34423834270E+03  0.37095082810E+03  0.12499989211E+03 0.  0.
          2    1    1    2  501    0  0.47667908651E+02 -0.33024337656E+02 -0.21805584854E+02  0.61954175999E+02  0.00000000000E+00 0. -1.
          1    1    1    2  502    0  0.11114640934E+02  0.28113215232E+02  0.77967446472E+03  0.78026031492E+03  0.00000000000E+00 0. -1.
         22    1    3    3    0    0 -0.91533143280E+02  0.83854887844E+01  0.16649558215E+03  0.19018257443E+03  0.00000000000E+00 0. -1.
         22    1    3    3    0    0  0.32750593695E+02 -0.34743663603E+01  0.17774276055E+03  0.18076825367E+03  0.00000000000E+00 0. -1.
</event>
<event>
 7    1  0.6358809E-006  0.9884533E+02  0.7818608E-02  0.1307103E+00
          2   -1    0    0  502    0  0.00000000000E+00  0.00000000000E+00  0.38165470535E+03  0.38165470535E+03  0.00000000000E+00 0. -1.
          1   -1    0    0  501    0 -0.00000000000E+00 -0.00000000000E+00 -0.17318536614E+03  0.17318536614E+03  0.00000000000E+00 0. -1.
         25    2    1    2    0    0 -0.53971527209E+02 -0.15226686038E+03  0.46071781279E+02  0.20939482923E+03  0.12500185182E+03 0.  0.
          2    1    1    2  501    0 -0.23509165225E+01  0.78786210134E+02 -0.63560277171E+02  0.10125562972E+03  0.00000000000E+00 0. -1.
          1    1    1    2  502    0  0.56322443731E+02  0.73480650247E+02  0.22595783511E+03  0.24418961254E+03  0.00000000000E+00 0. -1.
         22    1    3    3    0    0 -0.73847578984E+02 -0.15036802434E+03  0.95788500591E+01  0.16779678791E+03  0.00000000000E+00 0. -1.
         22    1    3    3    0    0  0.19876051775E+02 -0.18988360450E+01  0.36492931220E+02  0.41598041318E+02  0.00000000000E+00 0. -1.
</event>
<event>
 7    1  0.6358809E-006  0.8121680E+02  0.7818608E-02  0.1440711E+00
          2   -1    0    0  502    0  0.00000000000E+00  0.00000000000E+00  0.13988061241E+04  0.13988061241E+04  0.00000000000E+00 0. -1.
          1   -1    0    0  501    0 -0.00000000000E+00 -0.00000000000E+00 -0.42233168692E+03  0.42233168692E+03  0.00000000000E+00 0. -1.
         25    2    1    2    0    0 -0.46915371568E+02 -0.15782079458E+02  0.10705961173E+04  0.10790046134E+04  0.12499913350E+03 0.  0.
          2    1    1    2  501    0  0.77596441180E+02  0.24371621586E+02 -0.41337173332E+03  0.42129725080E+03  0.00000000000E+00 0. -1.
          1    1    1    2  502    0 -0.30681069612E+02 -0.85895421281E+01  0.31925005320E+03  0.32083594677E+03  0.00000000000E+00 0. -1.
         22    1    3    3    0    0 -0.80183967858E+02  0.20615242357E+02  0.56921442323E+03  0.57520389127E+03  0.00000000000E+00 0. -1.
         22    1    3    3    0    0  0.33268596290E+02 -0.36397321815E+02  0.50138169404E+03  0.50380072216E+03  0.00000000000E+00 0. -1.
</event>
<event>
 7    1  0.6358809E-006  0.1335352E+03  0.7818608E-02  0.1412130E+00
          2   -1    0    0  502    0  0.00000000000E+00  0.00000000000E+00  0.11073015265E+04  0.11073015265E+04  0.00000000000E+00 0. -1.
          1   -1    0    0  501    0 -0.00000000000E+00 -0.00000000000E+00 -0.21749656997E+03  0.21749656997E+03  0.00000000000E+00 0. -1.
         25    2    1    2    0    0 -0.14520668894E+03 -0.23939066053E+02  0.23419041244E+03  0.30352241882E+03  0.12499059184E+03 0.  0.
          2    1    1    2  501    0  0.13238218124E+03  0.35425470951E+01 -0.15864832596E+03  0.20665643682E+03  0.00000000000E+00 0. -1.
          1    1    1    2  502    0  0.12824507699E+02  0.20396518958E+02  0.81426287003E+03  0.81461924081E+03  0.00000000000E+00 0. -1.
         22    1    3    3    0    0 -0.12375067424E+03 -0.10699480010E+02  0.81041100092E+02  0.14831172628E+03  0.00000000000E+00 0. -1.
         22    1    3    3    0    0 -0.21456014700E+02 -0.13239586043E+02  0.15314931235E+03  0.15521069254E+03  0.00000000000E+00 0. -1.
</event>
<event>
 7    1  0.6358809E-006  0.9327920E+02  0.7818608E-02  0.1364852E+00
          2   -1    0    0  502    0  0.00000000000E+00  0.00000000000E+00  0.63929111142E+03  0.63929111142E+03  0.00000000000E+00 0. -1.
          1   -1    0    0  501    0 -0.00000000000E+00 -0.00000000000E+00 -0.22638440002E+04  0.22638440002E+04  0.00000000000E+00 0. -1.
         25    2    1    2    0    0 -0.71986306141E+02 -0.73959079237E+02 -0.45847067002E+02  0.16846052821E+03  0.12500008936E+03 0.  0.
          2    1    1    2  501    0  0.89457230460E+02  0.26600220344E+02 -0.21545759405E+04  0.21565963116E+04  0.00000000000E+00 0. -1.
          1    1    1    2  502    0 -0.17470924318E+02  0.47358858893E+02  0.57587011871E+03  0.57807827181E+03  0.00000000000E+00 0. -1.
         22    1    3    3    0    0 -0.55675870033E+02 -0.49529300850E+00  0.28609767698E+02  0.62598455466E+02  0.00000000000E+00 0.  1.
         22    1    3    3    0    0 -0.16310436109E+02 -0.73463786228E+02 -0.74456834700E+02  0.10586207275E+03  0.00000000000E+00 0.  1.
</event>
<event>
 7    1  0.6358809E-006  0.3259222E+03  0.7818608E-02  0.1111046E+00
          2   -1    0    0  502    0  0.00000000000E+00  0.00000000000E+00  0.13568771452E+04  0.13568771452E+04  0.00000000000E+00 0. -1.
          1   -1    0    0  501    0 -0.00000000000E+00 -0.00000000000E+00 -0.35319145215E+04  0.35319145215E+04  0.00000000000E+00 0. -1.
         25    2    1    2    0    0  0.86150882608E+02 -0.16587219435E+03 -0.49618194118E+01  0.22491209506E+03  0.12500108567E+03 0.  0.
          2    1    1    2  501    0 -0.28244384136E+03  0.18614725978E+03 -0.34007257874E+04  0.34175080405E+04  0.00000000000E+00 0. -1.
          1    1    1    2  502    0  0.19629295875E+03 -0.20275065430E+02  0.12306502305E+04  0.12463715312E+04  0.00000000000E+00 0. -1.
         22    1    3    3    0    0  0.10396657369E+03 -0.72798136725E+02 -0.21464889712E+02  0.12872202083E+03  0.00000000000E+00 0.  1.
         22    1    3    3    0    0 -0.17815691080E+02 -0.93074057628E+02  0.16503070300E+02  0.96190074235E+02  0.00000000000E+00 0.  1.
</event>
<event>
 7    1  0.6358809E-006  0.4440656E+02  0.7818608E-02  0.1505742E+00
          2   -1    0    0  502    0  0.00000000000E+00  0.00000000000E+00  0.67027885583E+03  0.67027885583E+03  0.00000000000E+00 0. -1.
          1   -1    0    0  501    0 -0.00000000000E+00 -0.00000000000E+00 -0.11045405540E+04  0.11045405540E+04  0.00000000000E+00 0. -1.
         25    2    1    2    0    0 -0.60072145200E+02  0.43609145751E+02 -0.37756175457E+03  0.40458597674E+03  0.12500605520E+03 0.  0.
          2    1    1    2  501    0  0.24301590068E+02 -0.35668328578E+02 -0.71230192369E+03  0.71360831514E+03  0.00000000000E+00 0. -1.
          1    1    1    2  502    0  0.35770555132E+02 -0.79408171726E+01  0.65560198010E+03  0.65662511794E+03  0.00000000000E+00 0. -1.
         22    1    3    3    0    0 -0.44787855111E+02 -0.31511388958E+02 -0.24859728259E+03  0.25455751513E+03  0.00000000000E+00 0. -1.
         22    1    3    3    0    0 -0.15284290089E+02  0.75120534709E+02 -0.12896447198E+03  0.15002846160E+03  0.00000000000E+00 0. -1.
</event>
<event>
 7    1  0.6358809E-006  0.8495521E+02  0.7818608E-02  0.1417448E+00
          2   -1    0    0  502    0  0.00000000000E+00  0.00000000000E+00  0.10307977425E+04  0.10307977425E+04  0.00000000000E+00 0. -1.
          1   -1    0    0  501    0 -0.00000000000E+00 -0.00000000000E+00 -0.57665629415E+03  0.57665629415E+03  0.00000000000E+00 0. -1.
         25    2    1    2    0    0  0.10768644189E+03 -0.39706321248E+02  0.32614689906E+02  0.17281229874E+03  0.12500964316E+03 0.  0.
          2    1    1    2  501    0 -0.71594918626E+02  0.43963375926E+02 -0.50271430770E+03  0.50968645849E+03  0.00000000000E+00 0. -1.
          1    1    1    2  502    0 -0.36091523267E+02 -0.42570546775E+01  0.92424106615E+03  0.92495527942E+03  0.00000000000E+00 0. -1.
         22    1    3    3    0    0  0.89746066466E+02  0.32388419503E+02  0.18727841109E+02  0.97232187040E+02  0.00000000000E+00 0. -1.
         22    1    3    3    0    0  0.17940375427E+02 -0.72094740751E+02  0.13886848796E+02  0.75580111696E+02  0.00000000000E+00 0. -1.
</event>
<event>
 7    1  0.6358809E-006  0.6190736E+02  0.7818608E-02  0.1394247E+00
          2   -1    0    0  502    0  0.00000000000E+00  0.00000000000E+00  0.77329118081E+03  0.77329118081E+03  0.00000000000E+00 0. -1.
          1   -1    0    0  501    0 -0.00000000000E+00 -0.00000000000E+00 -0.18744671228E+03  0.18744671228E+03  0.00000000000E+00 0. -1.
         25    2    1    2    0    0 -0.31769454709E+01  0.45298788487E+01  0.14359189655E+03  0.19045561371E+03  0.12499638096E+03 0.  0.
          2    1    1    2  501    0 -0.59827221427E+02 -0.15913048196E+02 -0.15640476669E+03  0.16821109527E+03  0.00000000000E+00 0. -1.
          1    1    1    2  502    0  0.63004166898E+02  0.11383169347E+02  0.59865733868E+03  0.60207118411E+03  0.00000000000E+00 0. -1.
         22    1    3    3    0    0  0.44314769268E+02 -0.28062673614E+02  0.23932924996E+02  0.57654985253E+02  0.00000000000E+00 0.  1.
         22    1    3    3    0    0 -0.47491714739E+02  0.32592552462E+02  0.11965897155E+03  0.13280062846E+03  0.00000000000E+00 0.  1.
</event>
<event>
 7    1  0.6358809E-006  0.1532749E+03  0.7818608E-02  0.1243655E+00
          2   -1    0    0  502    0  0.00000000000E+00  0.00000000000E+00  0.27310471030E+03  0.27310471030E+03  0.00000000000E+00 0. -1.
          1   -1    0    0  501    0 -0.00000000000E+00 -0.00000000000E+00 -0.70812323436E+03  0.70812323436E+03  0.00000000000E+00 0. -1.
         25    2    1    2    0    0  0.98516958540E+02 -0.21849686747E+02 -0.14410403748E+03  0.21582923215E+03  0.12503313122E+03 0.  0.
          2    1    1    2  501    0 -0.17563151548E+03 -0.30884598290E+02 -0.50298598310E+03  0.53366205302E+03  0.00000000000E+00 0. -1.
          1    1    1    2  502    0  0.77114556944E+02  0.52734285037E+02  0.21207149652E+03  0.23173665948E+03  0.00000000000E+00 0. -1.
         22    1    3    3    0    0  0.70509217821E+02 -0.72092773340E+02 -0.73635659042E+02  0.12486443869E+03  0.00000000000E+00 0.  1.
         22    1    3    3    0    0  0.28007740719E+02  0.50243086593E+02 -0.70468378440E+02  0.90964793467E+02  0.00000000000E+00 0.  1.
</event>
<event>
 7    1  0.6358809E-006  0.1637072E+03  0.7818608E-02  0.1279609E+00
          2   -1    0    0  502    0  0.00000000000E+00  0.00000000000E+00  0.84918295332E+03  0.84918295332E+03  0.00000000000E+00 0. -1.
          1   -1    0    0  501    0 -0.00000000000E+00 -0.00000000000E+00 -0.18631633137E+04  0.18631633137E+04  0.00000000000E+00 0. -1.
         25    2    1    2    0    0 -0.87086701563E+02  0.14223983261E+03 -0.37469236834E+03  0.42876043657E+03  0.12499951003E+03 0.  0.
          2    1    1    2  501    0 -0.43593642997E+02 -0.43359186762E+02 -0.14526140945E+04  0.14539147610E+04  0.00000000000E+00 0. -1.
          1    1    1    2  502    0  0.13068034456E+03 -0.98880645851E+02  0.81332610244E+03  0.82967106945E+03  0.00000000000E+00 0. -1.
         22    1    3    3    0    0 -0.32007642446E+02  0.12538140843E+03 -0.33412398361E+03  0.35830688408E+03  0.00000000000E+00 0. -1.
         22    1    3    3    0    0 -0.55079059117E+02  0.16858424178E+02 -0.40568384726E+02  0.70453552489E+02  0.00000000000E+00 0. -1.
</event>
<event>
 7    1  0.6358809E-006  0.8797694E+02  0.7818608E-02  0.1329568E+00
          2   -1    0    0  502    0  0.00000000000E+00  0.00000000000E+00  0.49075558508E+03  0.49075558508E+03  0.00000000000E+00 0. -1.
          1   -1    0    0  501    0 -0.00000000000E+00 -0.00000000000E+00 -0.48223673559E+03  0.48223673559E+03  0.00000000000E+00 0. -1.
         25    2    1    2    0    0 -0.44047834053E+01 -0.17661434609E+02  0.18498630463E+03  0.22399801429E+03  0.12499539637E+03 0.  0.
          2    1    1    2  501    0 -0.83047276130E+02 -0.29036049307E+02 -0.44975578591E+03  0.45827961900E+03  0.00000000000E+00 0. -1.
          1    1    1    2  502    0  0.87452059535E+02  0.46697483917E+02  0.27328833077E+03  0.29071468738E+03  0.00000000000E+00 0. -1.
         22    1    3    3    0    0 -0.40346334604E+01 -0.57153836628E+02  0.17372529100E+03  0.18292981179E+03  0.00000000000E+00 0.  1.
         22    1    3    3    0    0 -0.37014994496E+00  0.39492402018E+02  0.11261013625E+02  0.41068202493E+02  0.00000000000E+00 0.  1.
</event>
<event>
 7    1  0.6358809E-006  0.2483635E+03  0.7818608E-02  0.1250473E+00
          2   -1    0    0  502    0  0.00000000000E+00  0.00000000000E+00  0.67707920762E+03  0.67707920762E+03  0.00000000000E+00 0. -1.
          1   -1    0    0  501    0 -0.00000000000E+00 -0.00000000000E+00 -0.43767429291E+03  0.43767429291E+03  0.00000000000E+00 0. -1.
         25    2    1    2    0    0  0.27718163954E+02  0.19888981577E+03 -0.23077456719E+03  0.33046626795E+03  0.12500239183E+03 0.  0.
          2    1    1    2  501    0  0.22853684560E+02  0.48749447187E+02 -0.12584918868E+03  0.13688249629E+03  0.00000000000E+00 0. -1.
          1    1    1    2  502    0 -0.50571848514E+02 -0.24763926295E+03  0.59602867058E+03  0.64740473629E+03  0.00000000000E+00 0. -1.
         22    1    3    3    0    0  0.67778915629E+02  0.17194037722E+03 -0.15809320295E+03  0.24320965347E+03  0.00000000000E+00 0. -1.
         22    1    3    3    0    0 -0.40060751675E+02  0.26949438545E+02 -0.72681364239E+02  0.87256614479E+02  0.00000000000E+00 0. -1.
</event>
<event>
 7    1  0.6358809E-006  0.4805645E+02  0.7818608E-02  0.1501899E+00
          2   -1    0    0  502    0  0.00000000000E+00  0.00000000000E+00  0.20113841324E+03  0.20113841324E+03  0.00000000000E+00 0. -1.
          1   -1    0    0  501    0 -0.00000000000E+00 -0.00000000000E+00 -0.76350832409E+03  0.76350832409E+03  0.00000000000E+00 0. -1.
         25    2    1    2    0    0 -0.35390018664E+02 -0.39718067400E+01 -0.77691170593E+00  0.12997699318E+03  0.12500074598E+03 0.  0.
          2    1    1    2  501    0  0.41137460650E+01 -0.34515325615E+02 -0.69317823083E+03  0.69404919877E+03  0.00000000000E+00 0. -1.
          1    1    1    2  502    0  0.31276272599E+02  0.38487132355E+02  0.13158523169E+03  0.14062054539E+03  0.00000000000E+00 0. -1.
         22    1    3    3    0    0 -0.11073017136E+02 -0.58570522816E+02  0.25315210673E+02  0.64760927594E+02  0.00000000000E+00 0.  1.
         22    1    3    3    0    0 -0.24317001528E+02  0.54598716076E+02 -0.26092122379E+02  0.65216065587E+02  0.00000000000E+00 0.  1.
</event>
<event>
 7    1  0.6358809E-006  0.7765083E+02  0.7818608E-02  0.1416164E+00
          2   -1    0    0  502    0  0.00000000000E+00  0.00000000000E+00  0.42855264552E+03  0.42855264552E+03  0.00000000000E+00 0. -1.
          1   -1    0    0  501    0 -0.00000000000E+00 -0.00000000000E+00 -0.19451759193E+04  0.19451759193E+04  0.00000000000E+00 0. -1.
         25    2    1    2    0    0 -0.39608610799E+02 -0.21497551964E+02 -0.38426182419E+01  0.13292969813E+03  0.12499820855E+03 0.  0.
          2    1    1    2  501    0 -0.39233157700E+02  0.85621228570E+01 -0.18721878024E+04  0.18726184123E+04  0.00000000000E+00 0. -1.
          1    1    1    2  502    0  0.78841768499E+02  0.12935429107E+02  0.35940714686E+03  0.36818045440E+03  0.00000000000E+00 0. -1.
         22    1    3    3    0    0  0.36870887351E+02 -0.36896534745E+02 -0.14626952903E+02  0.54173465474E+02  0.00000000000E+00 0.  1.
         22    1    3    3    0    0 -0.76479498150E+02  0.15398982781E+02  0.10784334662E+02  0.78756232655E+02  0.00000000000E+00 0.  1.
</event>
<event>
 7    1  0.7333659E-006  0.8979638E+02  0.7818608E-02  0.1307471E+00
          2   -1    0    0  502    0  0.00000000000E+00  0.00000000000E+00  0.10974731310E+04  0.10974731310E+04  0.00000000000E+00 0. -1.
          1   -1    0    0  501    0 -0.00000000000E+00 -0.00000000000E+00 -0.19548256706E+04  0.19548256706E+04  0.00000000000E+00 0. -1.
         25    2    1    2    0    0 -0.23814025982E+00 -0.14646113893E+02 -0.30330633124E+03  0.32838025451E+03  0.12499718243E+03 0.  0.
          2    1    1    2  501    0  0.86143447501E+02  0.40793147613E+02 -0.16357346570E+04  0.16385092745E+04  0.00000000000E+00 0. -1.
          1    1    1    2  502    0 -0.85905307242E+02 -0.26147033720E+02  0.10816884486E+04  0.10854092726E+04  0.00000000000E+00 0. -1.
         22    1    3    3    0    0  0.46184146405E+02  0.34667822479E+02 -0.15233957012E+03  0.16291770290E+03  0.00000000000E+00 0.  1.
         22    1    3    3    0    0 -0.46422286665E+02 -0.49313936372E+02 -0.15096676113E+03  0.16546255161E+03  0.00000000000E+00 0.  1.
</event>
<event>
 7    1  0.6358809E-006  0.1003775E+03  0.7818608E-02  0.1281385E+00
          2   -1    0    0  502    0  0.00000000000E+00  0.00000000000E+00  0.19771680394E+04  0.19771680394E+04  0.00000000000E+00 0. -1.
          1   -1    0    0  501    0 -0.00000000000E+00 -0.00000000000E+00 -0.38189957137E+03  0.38189957137E+03  0.00000000000E+00 0. -1.
         25    2    1    2    0    0 -0.48156060967E+02 -0.71583326730E+02  0.41935656122E+03  0.44601894054E+03  0.12501916257E+03 0.  0.
          2    1    1    2  501    0  0.95215724798E+02 -0.25604939810E+02 -0.36004456892E+03  0.37330113688E+03  0.00000000000E+00 0. -1.
          1    1    1    2  502    0 -0.47059663831E+02  0.97188266540E+02  0.15359564757E+04  0.15397475333E+04  0.00000000000E+00 0. -1.
         22    1    3    3    0    0  0.40263778628E+02 -0.13937587756E+02  0.80177235521E+02  0.90795469697E+02  0.00000000000E+00 0. -1.
         22    1    3    3    0    0 -0.88419839594E+02 -0.57645738973E+02  0.33917932570E+03  0.35522347085E+03  0.00000000000E+00 0. -1.
</event>
<event>
 7    1  0.6358809E-006  0.8237187E+02  0.7818608E-02  0.1372155E+00
          2   -1    0    0  502    0  0.00000000000E+00  0.00000000000E+00  0.88678479808E+03  0.88678479808E+03  0.00000000000E+00 0. -1.
          1   -1    0    0  501    0 -0.00000000000E+00 -0.00000000000E+00 -0.50316642209E+03  0.50316642209E+03  0.00000000000E+00 0. -1.
         25    2    1    2    0    0 -0.94794190966E+02 -0.66141327346E+02  0.26691576892E+03  0.31658375980E+03  0.12498254058E+03 0.  0.
          2    1    1    2  501    0  0.53756527984E+02 -0.22233057925E+01 -0.47413295237E+03  0.47717582075E+03  0.00000000000E+00 0. -1.
          1    1    1    2  502    0  0.41037662983E+02  0.68364633138E+02  0.59083555944E+03  0.59619163962E+03  0.00000000000E+00 0. -1.
         22    1    3    3    0    0 -0.74151854067E+02  0.23386735434E+02  0.13576015342E+03  0.15644889297E+03  0.00000000000E+00 0.  1.
         22    1    3    3    0    0 -0.20642336900E+02 -0.89528062780E+02  0.13115561550E+03  0.16013486683E+03  0.00000000000E+00 0.  1.
</event>
<event>
 7    1  0.6358809E-006  0.2875339E+03  0.7818608E-02  0.1181219E+00
          2   -1    0    0  502    0  0.00000000000E+00  0.00000000000E+00  0.75648797198E+03  0.75648797198E+03  0.00000000000E+00 0. -1.
          1   -1    0    0  501    0 -0.00000000000E+00 -0.00000000000E+00 -0.28457848480E+04  0.28457848480E+04  0.00000000000E+00 0. -1.
         25    2    1    2    0    0  0.26591812962E+03 -0.16681318756E+03  0.59067795282E+02  0.34300915089E+03  0.12500872748E+03 0.  0.
          2    1    1    2  501    0 -0.18484781656E+03  0.21965270035E+03 -0.26919082472E+04  0.27071730708E+04  0.00000000000E+00 0. -1.
          1    1    1    2  502    0 -0.81070313062E+02 -0.52839512794E+02  0.54354357591E+03  0.55209059826E+03  0.00000000000E+00 0. -1.
         22    1    3    3    0    0  0.26277344635E+03 -0.14296251635E+03  0.81570997726E+02  0.31006772302E+03  0.00000000000E+00 0. -1.
         22    1    3    3    0    0  0.31446832750E+01 -0.23850671203E+02 -0.22503202444E+02  0.32941427868E+02  0.00000000000E+00 0. -1.
</event>
<event>
 7    1  0.6358809E-006  0.3432038E+02  0.7818608E-02  0.1566418E+00
          2   -1    0    0  502    0  0.00000000000E+00  0.00000000000E+00  0.20047896361E+03  0.20047896361E+03  0.00000000000E+00 0. -1.
          1   -1    0    0  501    0 -0.00000000000E+00 -0.00000000000E+00 -0.92600421340E+03  0.92600421340E+03  0.00000000000E+00 0. -1.
         25    2    1    2    0    0 -0.46585558132E+02  0.27915990699E+02 -0.19101041944E+03  0.23464535453E+03  0.12499578115E+03 0.  0.
          2    1    1    2  501    0  0.31734542648E+02  0.29294182727E+01 -0.71117622553E+03  0.71188993984E+03  0.00000000000E+00 0. -1.
          1    1    1    2  502    0  0.14851015484E+02 -0.30845408971E+02  0.17666139519E+03  0.17994788263E+03  0.00000000000E+00 0. -1.
         22    1    3    3    0    0 -0.83060248351E+01  0.58016692946E+02 -0.17311109265E+03  0.18276317219E+03  0.00000000000E+00 0. -1.
         22    1    3    3    0    0 -0.38279533297E+02 -0.30100702247E+02 -0.17899326788E+02  0.51882182343E+02  0.00000000000E+00 0. -1.
</event>
<event>
 7    1  0.6358809E-006  0.3805036E+02  0.7818608E-02  0.1561482E+00
          2   -1    0    0  502    0  0.00000000000E+00  0.00000000000E+00  0.10776145042E+04  0.10776145042E+04  0.00000000000E+00 0. -1.
          1   -1    0    0  501    0 -0.00000000000E+00 -0.00000000000E+00 -0.92623127134E+03  0.92623127134E+03  0.00000000000E+00 0. -1.
         25    2    1    2    0    0 -0.73564045629E+01 -0.59268220010E+02  0.63500050426E+02  0.15239383475E+03  0.12499914350E+03 0.  0.
          2    1    1    2  501    0 -0.12426164471E+02  0.26925054081E+02 -0.88116426526E+03  0.88166310486E+03  0.00000000000E+00 0. -1.
          1    1    1    2  502    0  0.19782569034E+02  0.32343165929E+02  0.96904744765E+03  0.96978883589E+03  0.00000000000E+00 0. -1.
         22    1    3    3    0    0 -0.90916301496E+01 -0.24346408325E+02  0.99126114306E+02  0.10247629909E+03  0.00000000000E+00 0. -1.
         22    1    3    3    0    0  0.17352255867E+01 -0.34921811685E+02 -0.35626063881E+02  0.49917535665E+02  0.00000000000E+00 0. -1.
</event>
<event>
 7    1  0.6358809E-006  0.4126210E+02  0.7818608E-02  0.1526684E+00
          2   -1    0    0  502    0  0.00000000000E+00  0.00000000000E+00  0.30432105729E+03  0.30432105729E+03  0.00000000000E+00 0. -1.
          1   -1    0    0  501    0 -0.00000000000E+00 -0.00000000000E+00 -0.24009015111E+04  0.24009015111E+04  0.00000000000E+00 0. -1.
         25    2    1    2    0    0  0.35182501983E+02  0.66652243511E+02 -0.17121362975E+04  0.17183482033E+04  0.12501806525E+03 0.  0.
          2    1    1    2  501    0 -0.17849806665E+02 -0.29237981998E+02 -0.68381734292E+03  0.68467483791E+03  0.00000000000E+00 0. -1.
          1    1    1    2  502    0 -0.17332695318E+02 -0.37414261513E+02  0.29937318666E+03  0.30219952711E+03  0.00000000000E+00 0. -1.
         22    1    3    3    0    0  0.66322027616E+02  0.54497710264E+02 -0.15695646125E+04  0.15719102024E+04  0.00000000000E+00 0. -1.
         22    1    3    3    0    0 -0.31139525632E+02  0.12154533247E+02 -0.14257168505E+03  0.14643800092E+03  0.00000000000E+00 0. -1.
</event>
<event>
 7    1  0.6358809E-006  0.1178060E+03  0.7818608E-02  0.1435745E+00
          2   -1    0    0  502    0  0.00000000000E+00  0.00000000000E+00  0.92859441333E+03  0.92859441333E+03  0.00000000000E+00 0. -1.
          1   -1    0    0  501    0 -0.00000000000E+00 -0.00000000000E+00 -0.41292263532E+02  0.41292263532E+02  0.00000000000E+00 0. -1.
         25    2    1    2    0    0  0.90019430961E+02 -0.71365989087E+02  0.40794848702E+03  0.44184872186E+03  0.12494687910E+03 0.  0.
          2    1    1    2  501    0 -0.11995679305E+02 -0.19386662496E+02 -0.95362496358E+01  0.24711921452E+02  0.00000000000E+00 0. -1.
          1    1    1    2  502    0 -0.78023751656E+02  0.90752651584E+02  0.48888991241E+03  0.50332603355E+03  0.00000000000E+00 0. -1.
         22    1    3    3    0    0  0.96758265710E+02 -0.43839705227E+02  0.15855406222E+03  0.19084934473E+03  0.00000000000E+00 0.  1.
         22    1    3    3    0    0 -0.67388347492E+01 -0.27526283860E+02  0.24939442481E+03  0.25099937713E+03  0.00000000000E+00 0.  1.
</event>
<event>
 7    1  0.6358809E-006  0.4751119E+02  0.7818608E-02  0.1562751E+00
          2   -1    0    0  502    0  0.00000000000E+00  0.00000000000E+00  0.14968630378E+04  0.14968630378E+04  0.00000000000E+00 0. -1.
          1   -1    0    0  501    0 -0.00000000000E+00 -0.00000000000E+00 -0.10494954361E+03  0.10494954361E+03  0.00000000000E+00 0. -1.
         25    2    1    2    0    0  0.65185291263E+02 -0.11448929395E+02  0.21783500834E+03  0.25972446025E+03  0.12499801684E+03 0.  0.
          2    1    1    2  501    0 -0.42944220410E+02  0.19219323485E+02 -0.77297551121E+02  0.90490330263E+02  0.00000000000E+00 0. -1.
          1    1    1    2  502    0 -0.22241070853E+02 -0.77703940903E+01  0.12513760369E+04  0.12515977909E+04  0.00000000000E+00 0. -1.
         22    1    3    3    0    0  0.45706714714E+02  0.16858978301E+02  0.10855021768E+02  0.49911525892E+02  0.00000000000E+00 0.  1.
         22    1    3    3    0    0  0.19478576549E+02 -0.28307907696E+02  0.20697998658E+03  0.20981293436E+03  0.00000000000E+00 0.  1.
</event>
<event>
 7    1  0.6358809E-006  0.1668624E+03  0.7818608E-02  0.1330360E+00
          2   -1    0    0  502    0  0.00000000000E+00  0.00000000000E+00  0.70629589999E+03  0.70629589999E+03  0.00000000000E+00 0. -1.
          1   -1    0    0  501    0 -0.00000000000E+00 -0.00000000000E+00 -0.13200280904E+03  0.13200280904E+03  0.00000000000E+00 0. -1.
         25    2    1    2    0    0  0.91754519899E+02  0.17530246830E+03  0.15711329616E+03  0.28188666940E+03  0.12500263695E+03 0.  0.
          2    1    1    2  501    0 -0.21186810928E+02 -0.31443887896E+02 -0.49866251934E+02  0.62643771640E+02  0.00000000000E+00 0. -1.
          1    1    1    2  502    0 -0.70567708971E+02 -0.14385858040E+03  0.46704604673E+03  0.49376826798E+03  0.00000000000E+00 0. -1.
         22    1    3    3    0    0  0.40128883239E+02  0.13465161370E+03  0.37514835489E+02  0.14542608852E+03  0.00000000000E+00 0.  1.
         22    1    3    3    0    0  0.51625636660E+02  0.40650854602E+02  0.11959846067E+03  0.13646058088E+03  0.00000000000E+00 0.  1.
</event>
<event>
 7    1  0.6358809E-006  0.4247358E+02  0.7818608E-02  0.1535488E+00
          2   -1    0    0  502    0  0.00000000000E+00  0.00000000000E+00  0.75029019097E+03  0.75029019097E+03  0.00000000000E+00 0. -1.
          1   -1    0    0  501    0 -0.00000000000E+00 -0.00000000000E+00 -0.48015336188E+02  0.48015336188E+02  0.00000000000E+00 0. -1.
         25    2    1    2    0    0  0.18936278017E+02  0.45830319963E+01  0.47202336148E+02  0.13503093693E+03  0.12500282630E+03 0.  0.
          2    1    1    2  501    0  0.52120840226E+01  0.30968328468E+02  0.71145662605E+02  0.77768300069E+02  0.00000000000E+00 0. -1.
          1    1    1    2  502    0 -0.24148362040E+02 -0.35551360465E+02  0.58392685603E+03  0.58550629016E+03  0.00000000000E+00 0. -1.
         22    1    3    3    0    0  0.50110268703E+01  0.63869155416E+02  0.13661673400E+02  0.65505883125E+02  0.00000000000E+00 0. -1.
         22    1    3    3    0    0  0.13925251147E+02 -0.59286123420E+02  0.33540662748E+02  0.69525053810E+02  0.00000000000E+00 0. -1.
</event>
<event>
 7    1  0.6358809E-006  0.1645024E+03  0.7818608E-02  0.1187325E+00
          2   -1    0    0  502    0  0.00000000000E+00  0.00000000000E+00  0.13008961159E+04  0.13008961159E+04  0.00000000000E+00 0. -1.
          1   -1    0    0  501    0 -0.00000000000E+00 -0.00000000000E+00 -0.80102445648E+02  0.80102445648E+02  0.00000000000E+00 0. -1.
         25    2    1    2    0    0  0.65679696311E+02 -0.15142824389E+03  0.51191970133E+03  0.55220446028E+03  0.12499459903E+03 0.  0.
          2    1    1    2  501    0 -0.15679034642E+03 -0.19551646279E+02  0.93396578930E+02  0.18354400170E+03  0.00000000000E+00 0. -1.
          1    1    1    2  502    0  0.91110650111E+02  0.17097989017E+03  0.61547739001E+03  0.64525009959E+03  0.00000000000E+00 0. -1.
         22    1    3    3    0    0  0.39045535710E+00 -0.13641013165E+03  0.38883423899E+03  0.41206788505E+03  0.00000000000E+00 0.  1.
         22    1    3    3    0    0  0.65289240954E+02 -0.15018112244E+02  0.12308546234E+03  0.14013657523E+03  0.00000000000E+00 0.  1.
</event>
<event>
 7    1  0.6358809E-006  0.7512215E+02  0.7818608E-02  0.1483330E+00
          2   -1    0    0  502    0  0.00000000000E+00  0.00000000000E+00  0.81018498992E+03  0.81018498992E+03  0.00000000000E+00 0. -1.
          1   -1    0    0  501    0 -0.00000000000E+00 -0.00000000000E+00 -0.17162368996E+04  0.17162368996E+04  0.00000000000E+00 0. -1.
         25    2    1    2    0    0  0.42419626819E+01  0.92054459763E+02 -0.29047097131E+02  0.15798708593E+03  0.12499667060E+03 0.  0.
          2    1    1    2  501    0  0.15603474183E+02 -0.19909437744E+02 -0.16207438958E+04  0.16209412789E+04  0.00000000000E+00 0. -1.
          1    1    1    2  502    0 -0.19845436865E+02 -0.72145022019E+02  0.74373908319E+03  0.74749352468E+03  0.00000000000E+00 0. -1.
         22    1    3    3    0    0  0.53013159805E+02  0.60749702681E+02 -0.51681750725E+02  0.95770166787E+02  0.00000000000E+00 0.  1.
         22    1    3    3    0    0 -0.48771197123E+02  0.31304757082E+02  0.22634653594E+02  0.62216919147E+02  0.00000000000E+00 0.  1.
</event>
<event>
 7    1  0.6358809E-006  0.9727188E+02  0.7818608E-02  0.1304880E+00
          2   -1    0    0  502    0  0.00000000000E+00  0.00000000000E+00  0.10985135058E+04  0.10985135058E+04  0.00000000000E+00 0. -1.
          1   -1    0    0  501    0 -0.00000000000E+00 -0.00000000000E+00 -0.19004411864E+03  0.19004411864E+03  0.00000000000E+00 0. -1.
         25    2    1    2    0    0  0.39251111765E+02 -0.10814140831E+02 -0.19983105309E+02  0.13297719362E+03  0.12500405636E+03 0.  0.
          2    1    1    2  501    0 -0.77840450389E+02 -0.78475730377E+02 -0.83772896599E+02  0.13869201195E+03  0.00000000000E+00 0. -1.
          1    1    1    2  502    0  0.38589338624E+02  0.89289871207E+02  0.10122253890E+04  0.10168884188E+04  0.00000000000E+00 0. -1.
         22    1    3    3    0    0  0.92923917785E+01  0.51512889497E+02 -0.34000321585E+02  0.62417531168E+02  0.00000000000E+00 0.  1.
         22    1    3    3    0    0  0.29958719987E+02 -0.62327030327E+02  0.14017216276E+02  0.70559662448E+02  0.00000000000E+00 0.  1.
</event>
<event>
 7    1  0.6358809E-006  0.8180243E+02  0.7818608E-02  0.1324581E+00
          2   -1    0    0  502    0  0.00000000000E+00  0.00000000000E+00  0.12104185320E+04  0.12104185320E+04  0.00000000000E+00 0. -1.
          1   -1    0    0  501    0 -0.00000000000E+00 -0.00000000000E+00 -0.75204257483E+03  0.75204257483E+03  0.00000000000E+00 0. -1.
         25    2    1    2    0    0  0.87415298776E+02 -0.11920860672E+02 -0.96750894455E+02  0.18101940152E+03  0.12499498698E+03 0.  0.
          2    1    1    2  501    0 -0.55484042292E+02 -0.62944818979E+02 -0.60885908948E+03  0.61461363475E+03  0.00000000000E+00 0. -1.
          1    1    1    2  502    0 -0.31931256484E+02  0.74865679652E+02  0.11639859411E+04  0.11668280706E+04  0.00000000000E+00 0. -1.
         22    1    3    3    0    0 -0.76259314931E+01  0.49120040726E+01 -0.83035431760E+02  0.83529429201E+02  0.00000000000E+00 0.  1.
         22    1    3    3    0    0  0.95041230269E+02 -0.16832864745E+02 -0.13715462696E+02  0.97489972323E+02  0.00000000000E+00 0.  1.
</event>
<event>
 7    1  0.6358809E-006  0.7941666E+02  0.7818608E-02  0.1419086E+00
          2   -1    0    0  502    0  0.00000000000E+00  0.00000000000E+00  0.69659184299E+03  0.69659184299E+03  0.00000000000E+00 0. -1.
          1   -1    0    0  501    0 -0.00000000000E+00 -0.00000000000E+00 -0.49660241619E+03  0.49660241619E+03  0.00000000000E+00 0. -1.
         25    2    1    2    0    0 -0.14688786224E+02 -0.78488522734E+02 -0.50978734403E+02  0.15684347925E+03  0.12499934792E+03 0.  0.
          2    1    1    2  501    0 -0.34830526973E+02  0.16139805382E+02 -0.38928128718E+03  0.39116950224E+03  0.00000000000E+00 0. -1.
          1    1    1    2  502    0  0.49519313196E+02  0.62348717352E+02  0.64024944839E+03  0.64518127770E+03  0.00000000000E+00 0. -1.
         22    1    3    3    0    0  0.22397014770E+01 -0.91339448852E+02 -0.79610953262E+02  0.12118504470E+03  0.00000000000E+00 0.  1.
         22    1    3    3    0    0 -0.16928487701E+02  0.12850926119E+02  0.28632218859E+02  0.35658434552E+02  0.00000000000E+00 0.  1.
</event>
<event>
 7    1  0.6358809E-006  0.9579225E+02  0.7818608E-02  0.1395825E+00
          2   -1    0    0  502    0  0.00000000000E+00  0.00000000000E+00  0.36513026101E+03  0.36513026101E+03  0.00000000000E+00 0. -1.
          1   -1    0    0  501    0 -0.00000000000E+00 -0.00000000000E+00 -0.44503764536E+03  0.44503764536E+03  0.00000000000E+00 0. -1.
         25    2    1    2    0    0 -0.25677384886E+02  0.12631598507E+03 -0.86670461528E+02  0.19937369529E+03  0.12499218093E+03 0.  0.
          2    1    1    2  501    0 -0.61832937259E+01 -0.37682065689E+02 -0.29356773959E+03  0.29604085685E+03  0.00000000000E+00 0. -1.
          1    1    1    2  502    0  0.31860678612E+02 -0.88633919377E+02  0.30033081676E+03  0.31475335423E+03  0.00000000000E+00 0. -1.
         22    1    3    3    0    0 -0.24165469705E+02 -0.43931800765E+01 -0.61542211361E+02  0.66262460990E+02  0.00000000000E+00 0.  1.
         22    1    3    3    0    0 -0.15119151809E+01  0.13070916514E+03 -0.25128250167E+02  0.13311123430E+03  0.00000000000E+00 0.  1.
</event>
<event>
 7    1  0.6358809E-006  0.7846641E+02  0.7818608E-02  0.1348484E+00
          2   -1    0    0  502    0  0.00000000000E+00  0.00000000000E+00  0.22695648298E+04  0.22695648298E+04  0.00000000000E+00 0. -1.
          1   -1    0    0  501    0 -0.00000000000E+00 -0.00000000000E+00 -0.24697860314E+03  0.24697860314E+03  0.00000000000E+00 0. -1.
         25    2    1    2    0    0  0.19264297672E+01 -0.14177793545E+03  0.13812254713E+03  0.23410973495E+03  0.12499934344E+03 0.  0.
          2    1    1    2  501    0  0.17433519892E+02  0.66662661893E+02 -0.19227405918E+03  0.20424777095E+03  0.00000000000E+00 0. -1.
          1    1    1    2  502    0 -0.19359949660E+02  0.75115273557E+02  0.20767377387E+04  0.20781859271E+04  0.00000000000E+00 0. -1.
         22    1    3    3    0    0 -0.29902992913E+02 -0.15242615846E+03  0.11023158065E+03  0.19047027101E+03  0.00000000000E+00 0.  1.
         22    1    3    3    0    0  0.31829422680E+02  0.10648223008E+02  0.27890966479E+02  0.43639463935E+02  0.00000000000E+00 0.  1.
</event>
<event>
 7    1  0.6358809E-006  0.5111220E+02  0.7818608E-02  0.1443256E+00
          2   -1    0    0  502    0  0.00000000000E+00  0.00000000000E+00  0.11204374043E+04  0.11204374043E+04  0.00000000000E+00 0. -1.
          1   -1    0    0  501    0 -0.00000000000E+00 -0.00000000000E+00 -0.65666377166E+02  0.65666377166E+02  0.00000000000E+00 0. -1.
         25    2    1    2    0    0  0.32695329379E+01  0.14931439255E+02  0.83642421445E+02  0.15117591169E+03  0.12499785553E+03 0.  0.
          2    1    1    2  501    0  0.37379578285E+02 -0.45917028609E+02 -0.31667090408E+01  0.59292785693E+02  0.00000000000E+00 0. -1.
          1    1    1    2  502    0 -0.40649111223E+02  0.30985589354E+02  0.97429531471E+03  0.97563508406E+03  0.00000000000E+00 0. -1.
         22    1    3    3    0    0  0.53925738029E+02 -0.14055163691E+02  0.90390840411E+01  0.56455627608E+02  0.00000000000E+00 0.  1.
         22    1    3    3    0    0 -0.50656205091E+02  0.28986602946E+02  0.74603337404E+02  0.94720284081E+02  0.00000000000E+00 0.  1.
</event>
<event>
 7    1  0.6358809E-006  0.2813412E+03  0.7818608E-02  0.1180392E+00
          2   -1    0    0  502    0  0.00000000000E+00  0.00000000000E+00  0.22357369347E+04  0.22357369347E+04  0.00000000000E+00 0. -1.
          1   -1    0    0  501    0 -0.00000000000E+00 -0.00000000000E+00 -0.24049998423E+04  0.24049998423E+04  0.00000000000E+00 0. -1.
         25    2    1    2    0    0  0.28416991042E+03  0.15000095452E+03 -0.92264287665E+02  0.35691867910E+03  0.12500168144E+03 0.  0.
          2    1    1    2  501    0 -0.86914739781E+02  0.49094007599E+02 -0.21699200139E+04  0.21722148283E+04  0.00000000000E+00 0. -1.
          1    1    1    2  502    0 -0.19725517064E+03 -0.19909496212E+03  0.20929213941E+04  0.21116032696E+04  0.00000000000E+00 0. -1.
         22    1    3    3    0    0  0.21494979493E+02  0.15936913359E+02 -0.53046671582E+02  0.59413539844E+02  0.00000000000E+00 0. -1.
         22    1    3    3    0    0  0.26267493093E+03  0.13406404116E+03 -0.39217616083E+02  0.29750513925E+03  0.00000000000E+00 0. -1.
</event>
<event>
 7    1  0.6358809E-006  0.1020794E+03  0.7818608E-02  0.1293991E+00
          2   -1    0    0  502    0  0.00000000000E+00  0.00000000000E+00  0.12597404321E+04  0.12597404321E+04  0.00000000000E+00 0. -1.
          1   -1    0    0  501    0 -0.00000000000E+00 -0.00000000000E+00 -0.22168132196E+04  0.22168132196E+04  0.00000000000E+00 0. -1.
         25    2    1    2    0    0  0.20091951610E+02  0.17376241916E+03 -0.23937935319E+02  0.21631961528E+03  0.12499634545E+03 0.  0.
          2    1    1    2  501    0  0.22290022304E+02 -0.98791787414E+02 -0.20938652952E+04  0.20963130818E+04  0.00000000000E+00 0. -1.
          1    1    1    2  502    0 -0.42381973913E+02 -0.74970631742E+02  0.11607304430E+04  0.11639209546E+04  0.00000000000E+00 0. -1.
         22    1    3    3    0    0  0.76061589770E+01  0.10408204131E+03  0.48461585172E+02  0.11506280986E+03  0.00000000000E+00 0. -1.
         22    1    3    3    0    0  0.12485792633E+02  0.69680377851E+02 -0.72399520491E+02  0.10125680541E+03  0.00000000000E+00 0. -1.
</event>
<event>
 7    1  0.6358809E-006  0.5376819E+02  0.7818608E-02  0.1440204E+00
          2   -1    0    0  502    0  0.00000000000E+00  0.00000000000E+00  0.21601326796E+04  0.21601326796E+04  0.00000000000E+00 0. -1.
          1   -1    0    0  501    0 -0.00000000000E+00 -0.00000000000E+00 -0.10124255074E+03  0.10124255074E+03  0.00000000000E+00 0. -1.
         25    2    1    2    0    0 -0.45327751713E+01 -0.23441834987E+02  0.43416023711E+03  0.45242569778E+03  0.12499533927E+03 0.  0.
          2    1    1    2  501    0 -0.42589315212E+02  0.34080966413E+02 -0.83662756779E+02  0.99874015208E+02  0.00000000000E+00 0. -1.
          1    1    1    2  502    0  0.47122090384E+02 -0.10639131426E+02  0.17083926485E+04  0.17090755174E+04  0.00000000000E+00 0. -1.
         22    1    3    3    0    0 -0.17373911238E+02 -0.54140644977E+02  0.88658378580E+02  0.10532506977E+03  0.00000000000E+00 0.  1.
         22    1    3    3    0    0  0.12841136067E+02  0.30698809990E+02  0.34550185853E+03  0.34710062800E+03  0.00000000000E+00 0.  1.
</event>
<event>
 7    1  0.6358809E-006  0.4747992E+02  0.7818608E-02  0.1508210E+00
          2   -1    0    0  502    0  0.00000000000E+00  0.00000000000E+00  0.62396904155E+02  0.62396904155E+02  0.00000000000E+00 0. -1.
          1   -1    0    0  501    0 -0.00000000000E+00 -0.00000000000E+00 -0.45300319877E+03  0.45300319877E+03  0.00000000000E+00 0. -1.
         25    2    1    2    0    0  0.19738594038E+02  0.95991463262E+01 -0.80935535682E+02  0.15051626031E+03  0.12499131160E+03 0.  0.
          2    1    1    2  501    0 -0.23409253646E+02 -0.43097526179E+02 -0.32441446651E+03  0.32810080159E+03  0.00000000000E+00 0. -1.
          1    1    1    2  502    0  0.36706596086E+01  0.33498379853E+02  0.14743707576E+02  0.36783041035E+02  0.00000000000E+00 0. -1.
         22    1    3    3    0    0 -0.49982717935E+02  0.16169441243E+02 -0.54407191512E+02  0.75629791818E+02  0.00000000000E+00 0. -1.
         22    1    3    3    0    0  0.69721311972E+02 -0.65702949166E+01 -0.26528344170E+02  0.74886468489E+02  0.00000000000E+00 0. -1.
</event>
<event>
 7    1  0.6358809E-006  0.1565410E+03  0.7818608E-02  0.1379051E+00
          2   -1    0    0  502    0  0.00000000000E+00  0.00000000000E+00  0.56391906338E+03  0.56391906338E+03  0.00000000000E+00 0. -1.
          1   -1    0    0  501    0 -0.00000000000E+00 -0.00000000000E+00 -0.26282984036E+03  0.26282984036E+03  0.00000000000E+00 0. -1.
         25    2    1    2    0    0 -0.12676429812E+03  0.53736409925E+02  0.36149945223E+03  0.40652517922E+03  0.12499631333E+03 0.  0.
          2    1    1    2  501    0  0.13701479986E+03 -0.78447469191E+02 -0.21309642824E+03  0.26521151659E+03  0.00000000000E+00 0. -1.
          1    1    1    2  502    0 -0.10250501736E+02  0.24711059266E+02  0.15268619903E+03  0.15501220794E+03  0.00000000000E+00 0. -1.
         22    1    3    3    0    0 -0.13576338597E+03  0.72590399069E+02  0.35070896697E+03  0.38301154358E+03  0.00000000000E+00 0. -1.
         22    1    3    3    0    0  0.89990878425E+01 -0.18853989144E+02  0.10790485260E+02  0.23513635635E+02  0.00000000000E+00 0. -1.
</event>
<event>
 7    1  0.6358809E-006  0.8775710E+02  0.7818608E-02  0.1406025E+00
          2   -1    0    0  502    0  0.00000000000E+00  0.00000000000E+00  0.18725486151E+03  0.18725486151E+03  0.00000000000E+00 0. -1.
          1   -1    0    0  501    0 -0.00000000000E+00 -0.00000000000E+00 -0.10869605483E+04  0.10869605483E+04  0.00000000000E+00 0. -1.
         25    2    1    2    0    0  0.38476602839E+02  0.11813137672E+03 -0.28200657369E+03  0.33254811950E+03  0.12500029219E+03 0.  0.
          2    1    1    2  501    0 -0.63814300522E+01 -0.37919312188E+02 -0.76764787651E+03  0.76861034289E+03  0.00000000000E+00 0. -1.
          1    1    1    2  502    0 -0.32095172787E+02 -0.80212064533E+02  0.14994876340E+03  0.17305694744E+03  0.00000000000E+00 0. -1.
         22    1    3    3    0    0  0.43045216328E+02  0.11350185623E+03 -0.29445915463E+03  0.31849922412E+03  0.00000000000E+00 0.  1.
         22    1    3    3    0    0 -0.45686134889E+01  0.46295204942E+01  0.12452580946E+02  0.14048895381E+02  0.00000000000E+00 0.  1.
</event>
<event>
 7    1  0.7977873E-006  0.1235881E+03  0.7818608E-02  0.1305533E+00
          2   -1    0    0  502    0  0.00000000000E+00  0.00000000000E+00  0.65850159593E+03  0.65850159593E+03  0.00000000000E+00 0. -1.
          1   -1    0    0  501    0 -0.00000000000E+00 -0.00000000000E+00 -0.13881671449E+04  0.13881671449E+04  0.00000000000E+00 0. -1.
         25    2    1    2    0    0 -0.81492933541E+02  0.40171956902E+00 -0.25685343659E+03  0.29705366260E+03  0.12500372386E+03 0.  0.
          2    1    1    2  501    0 -0.29859768873E+02 -0.56551812394E+02 -0.11041892655E+04  0.11060396229E+04  0.00000000000E+00 0. -1.
          1    1    1    2  502    0  0.11135270241E+03  0.56150092825E+02  0.63137715313E+03  0.64357545537E+03  0.00000000000E+00 0. -1.
         22    1    3    3    0    0 -0.10904705454E+03  0.72302203216E+00 -0.14256262316E+03  0.17948783911E+03  0.00000000000E+00 0.  1.
         22    1    3    3    0    0  0.27554120998E+02 -0.32130246314E+00 -0.11429081343E+03  0.11756582349E+03  0.00000000000E+00 0.  1.
</event>
<event>
 7    1  0.6358809E-006  0.2225525E+03  0.7818608E-02  0.1247674E+00
          2   -1    0    0  502    0  0.00000000000E+00  0.00000000000E+00  0.27090075573E+04  0.27090075573E+04  0.00000000000E+00 0. -1.
          1   -1    0    0  501    0 -0.00000000000E+00 -0.00000000000E+00 -0.27242948215E+03  0.27242948215E+03  0.00000000000E+00 0. -1.
         25    2    1    2    0    0  0.98252879538E+02 -0.23105174084E+03  0.10855237709E+04  0.11211712893E+04  0.12499866912E+03 0.  0.
          2    1    1    2  501    0 -0.37784659396E+02  0.21833569958E+03 -0.20566647111E+03  0.30231912863E+03  0.00000000000E+00 0. -1.
          1    1    1    2  502    0 -0.60468220142E+02  0.12716041267E+02  0.15567207753E+04  0.15579466216E+04  0.00000000000E+00 0. -1.
         22    1    3    3    0    0  0.11086627572E+03 -0.18351189518E+03  0.99803850331E+03  0.10208079157E+04  0.00000000000E+00 0. -1.
         22    1    3    3    0    0 -0.12613396183E+02 -0.47539845662E+02  0.87485267638E+02  0.10036337351E+03  0.00000000000E+00 0. -1.
</event>
<event>
 7    1  0.6358809E-006  0.9649198E+02  0.7818608E-02  0.1346439E+00
          2   -1    0    0  502    0  0.00000000000E+00  0.00000000000E+00  0.38391073681E+03  0.38391073681E+03  0.00000000000E+00 0. -1.
          1   -1    0    0  501    0 -0.00000000000E+00 -0.00000000000E+00 -0.58786674564E+03  0.58786674564E+03  0.00000000000E+00 0. -1.
         25    2    1    2    0    0 -0.66489666707E+02 -0.50461837815E+01 -0.41411840123E+02  0.14759846577E+03  0.12499610732E+03 0.  0.
          2    1    1    2  501    0 -0.12639292113E+02 -0.55604066363E+02 -0.48413856412E+03  0.48748509020E+03  0.00000000000E+00 0. -1.
          1    1    1    2  502    0  0.79128958819E+02  0.60650250144E+02  0.32159439541E+03  0.33669392648E+03  0.00000000000E+00 0. -1.
         22    1    3    3    0    0 -0.24594706198E+02 -0.64431716731E+02 -0.21616321069E+02  0.72274553132E+02  0.00000000000E+00 0.  1.
         22    1    3    3    0    0 -0.41894960509E+02  0.59385532950E+02 -0.19795519054E+02  0.75323912633E+02  0.00000000000E+00 0.  1.
</event>
<event>
 7    1  0.6358809E-006  0.1530563E+03  0.7818608E-02  0.1275221E+00
          2   -1    0    0  502    0  0.00000000000E+00  0.00000000000E+00  0.12065836954E+04  0.12065836954E+04  0.00000000000E+00 0. -1.
          1   -1    0    0  501    0 -0.00000000000E+00 -0.00000000000E+00 -0.93449114952E+03  0.93449114952E+03  0.00000000000E+00 0. -1.
         25    2    1    2    0    0 -0.35229442948E-01  0.11850037460E+03 -0.30708402915E+03  0.35209294411E+03  0.12500600109E+03 0.  0.
          2    1    1    2  501    0  0.65391736338E+02  0.20666349571E+02 -0.59794343785E+03  0.60186338321E+03  0.00000000000E+00 0. -1.
          1    1    1    2  502    0 -0.65356506895E+02 -0.13916672417E+03  0.11771200129E+04  0.11871185176E+04  0.00000000000E+00 0. -1.
         22    1    3    3    0    0  0.25294661948E+02  0.13335828188E+03 -0.28389400422E+03  0.31467452534E+03  0.00000000000E+00 0. -1.
         22    1    3    3    0    0 -0.25329891391E+02 -0.14857907276E+02 -0.23190024934E+02  0.37418418765E+02  0.00000000000E+00 0. -1.
</event>
<event>
 7    1  0.6358809E-006  0.1413147E+03  0.7818608E-02  0.1242357E+00
          2   -1    0    0  502    0  0.00000000000E+00  0.00000000000E+00  0.88785123275E+03  0.88785123275E+03  0.00000000000E+00 0. -1.
          1   -1    0    0  501    0 -0.00000000000E+00 -0.00000000000E+00 -0.18779807101E+03  0.18779807101E+03  0.00000000000E+00 0. -1.
         25    2    1    2    0    0  0.14061901069E+03 -0.13974736202E+03  0.24235081492E+03  0.33714706933E+03  0.12502478758E+03 0.  0.
          2    1    1    2  501    0 -0.38276975089E+02  0.13160683515E+03 -0.10112130827E+03  0.17032617199E+03  0.00000000000E+00 0. -1.
          1    1    1    2  502    0 -0.10234203560E+03  0.81405268731E+01  0.55882365509E+03  0.56817606243E+03  0.00000000000E+00 0. -1.
         22    1    3    3    0    0  0.14354165403E+03 -0.71782172034E+02  0.13335240808E+03  0.20866181108E+03  0.00000000000E+00 0.  1.
         22    1    3    3    0    0 -0.29226433417E+01 -0.67965189990E+02  0.10899840684E+03  0.12848525825E+03  0.00000000000E+00 0.  1.
</event>
<event>
 7    1  0.6358809E-006  0.3527153E+03  0.7818608E-02  0.1240373E+00
          2   -1    0    0  502    0  0.00000000000E+00  0.00000000000E+00  0.32565407706E+03  0.32565407706E+03  0.00000000000E+00 0. -1.
          1   -1    0    0  501    0 -0.00000000000E+00 -0.00000000000E+00 -0.77848629767E+03  0.77848629767E+03  0.00000000000E+00 0. -1.
         25    2    1    2    0    0  0.18027311994E+03 -0.26837078516E+03 -0.24739969869E+03  0.42585558939E+03  0.12500038402E+03 0.  0.
          2    1    1    2  501    0  0.26424392772E+02 -0.32604299724E+02 -0.29854690867E+03  0.30148224752E+03  0.00000000000E+00 0. -1.
          1    1    1    2  502    0 -0.20669751271E+03  0.30097508488E+03  0.93114386756E+02  0.37680253781E+03  0.00000000000E+00 0. -1.
         22    1    3    3    0    0  0.47300309693E+02 -0.16078461962E+03 -0.16791653544E+03  0.23724454910E+03  0.00000000000E+00 0.  1.
         22    1    3    3    0    0  0.13297281025E+03 -0.10758616554E+03 -0.79483163256E+02  0.18861104030E+03  0.00000000000E+00 0.  1.
</event>
<event>
 7    1  0.6358809E-006  0.2112441E+03  0.7818608E-02  0.1290555E+00
          2   -1    0    0  502    0  0.00000000000E+00  0.00000000000E+00  0.58138622733E+03  0.58138622733E+03  0.00000000000E+00 0. -1.
          1   -1    0    0  501    0 -0.00000000000E+00 -0.00000000000E+00 -0.30315475317E+03  0.30315475317E+03  0.00000000000E+00 0. -1.
         25    2    1    2    0    0  0.59098435182E+01 -0.18219168384E+03  0.28492322301E+03  0.36060486806E+03  0.12500356775E+03 0.  0.
          2    1    1    2  501    0 -0.36588637956E+02  0.21228176206E+03 -0.21908067048E+03  0.30724357619E+03  0.00000000000E+00 0. -1.
          1    1    1    2  502    0  0.30678794438E+02 -0.30090078228E+02  0.21238892163E+03  0.21669253625E+03  0.00000000000E+00 0. -1.
         22    1    3    3    0    0 -0.62132341094E+01 -0.17779229429E+03  0.17370214993E+03  0.24863857520E+03  0.00000000000E+00 0. -1.
         22    1    3    3    0    0  0.12123077628E+02 -0.43993895435E+01  0.11122107308E+03  0.11196629286E+03  0.00000000000E+00 0. -1.
</event>
<event>
 7    1  0.6358809E-006  0.1816814E+03  0.7818608E-02  0.1273939E+00
          2   -1    0    0  502    0  0.00000000000E+00  0.00000000000E+00  0.66916558649E+03  0.66916558649E+03  0.00000000000E+00 0. -1.
          1   -1    0    0  501    0 -0.00000000000E+00 -0.00000000000E+00 -0.25203115398E+04  0.25203115398E+04  0.00000000000E+00 0. -1.
         25    2    1    2    0    0 -0.46943566019E+02  0.13965392347E+03 -0.44887984025E+03  0.48869612821E+03  0.12499551198E+03 0.  0.
          2    1    1    2  501    0  0.10151755558E+03 -0.16069555226E+03 -0.20457917183E+04  0.20546027911E+04  0.00000000000E+00 0. -1.
          1    1    1    2  502    0 -0.54573989561E+02  0.21041628791E+02  0.64352560527E+03  0.64617820693E+03  0.00000000000E+00 0. -1.
         22    1    3    3    0    0 -0.84472951583E+02  0.55668764081E+02 -0.24098521161E+03  0.26135906921E+03  0.00000000000E+00 0. -1.
         22    1    3    3    0    0  0.37529385564E+02  0.83985159390E+02 -0.20789462865E+03  0.22733705901E+03  0.00000000000E+00 0. -1.
</event>
<event>
 7    1  0.6358809E-006  0.7977573E+02  0.7818608E-02  0.1344545E+00
          2   -1    0    0  502    0  0.00000000000E+00  0.00000000000E+00  0.11623839126E+04  0.11623839126E+04  0.00000000000E+00 0. -1.
          1   -1    0    0  501    0 -0.00000000000E+00 -0.00000000000E+00 -0.66504932366E+02  0.66504932366E+02  0.00000000000E+00 0. -1.
         25    2    1    2    0    0  0.21311562769E+02 -0.33412476727E+02  0.10210471841E+03  0.16619522034E+03  0.12499960574E+03 0.  0.
          2    1    1    2  501    0 -0.83141817398E+02  0.66448619180E+02  0.52256186345E+02  0.11856934596E+03  0.00000000000E+00 0. -1.
          1    1    1    2  502    0  0.61830254629E+02 -0.33036142453E+02  0.94151807548E+03  0.94412427866E+03  0.00000000000E+00 0. -1.
         22    1    3    3    0    0  0.10908601164E+02  0.95210424931E+01  0.11827114679E+03  0.11915415223E+03  0.00000000000E+00 0.  1.
         22    1    3    3    0    0  0.10402961605E+02 -0.42933519220E+02 -0.16166428384E+02  0.47041068115E+02  0.00000000000E+00 0.  1.
</event>
<event>
 7    1  0.6358809E-006  0.6257986E+02  0.7818608E-02  0.1426559E+00
          2   -1    0    0  502    0  0.00000000000E+00  0.00000000000E+00  0.34218593047E+03  0.34218593047E+03  0.00000000000E+00 0. -1.
          1   -1    0    0  501    0 -0.00000000000E+00 -0.00000000000E+00 -0.87805289995E+03  0.87805289995E+03  0.00000000000E+00 0. -1.
         25    2    1    2    0    0 -0.34626607748E+02 -0.65257441408E+02 -0.10288222844E+03  0.17795391773E+03  0.12500123312E+03 0.  0.
          2    1    1    2  501    0  0.57400979550E+02  0.25283574914E+02 -0.73455375632E+03  0.73722679858E+03  0.00000000000E+00 0. -1.
          1    1    1    2  502    0 -0.22774371802E+02  0.39973866495E+02  0.30156901528E+03  0.30505811412E+03  0.00000000000E+00 0. -1.
         22    1    3    3    0    0 -0.41848770400E+02  0.27252215571E+02 -0.52126309203E+02  0.72188329726E+02  0.00000000000E+00 0.  1.
         22    1    3    3    0    0  0.72221626514E+01 -0.92509656980E+02 -0.50755919240E+02  0.10576558800E+03  0.00000000000E+00 0.  1.
</event>
<event>
 7    1  0.6358809E-006  0.6019305E+02  0.7818608E-02  0.1398534E+00
          2   -1    0    0  502    0  0.00000000000E+00  0.00000000000E+00  0.20918884848E+03  0.20918884848E+03  0.00000000000E+00 0. -1.
          1   -1    0    0  501    0 -0.00000000000E+00 -0.00000000000E+00 -0.14340678798E+03  0.14340678798E+03  0.00000000000E+00 0. -1.
         25    2    1    2    0    0 -0.57981165345E+02  0.43767210638E+02 -0.47373009878E+02  0.15214015519E+03  0.12500016198E+03 0.  0.
          2    1    1    2  501    0  0.60048291000E+02  0.16390338508E+02 -0.10315490594E+02  0.63093975898E+02  0.00000000000E+00 0. -1.
          1    1    1    2  502    0 -0.20671256551E+01 -0.60157549146E+02  0.12347056098E+03  0.13736150536E+03  0.00000000000E+00 0. -1.
         22    1    3    3    0    0  0.58344382453E+01 -0.85561208089E+01  0.34423225057E+02  0.35947271054E+02  0.00000000000E+00 0.  1.
         22    1    3    3    0    0 -0.63815603590E+02  0.52323331447E+02 -0.81796234935E+02  0.11619288414E+03  0.00000000000E+00 0.  1.
</event>
<event>
 7    1  0.6358809E-006  0.8020552E+02  0.7818608E-02  0.1393482E+00
          2   -1    0    0  502    0  0.00000000000E+00  0.00000000000E+00  0.75759465006E+03  0.75759465006E+03  0.00000000000E+00 0. -1.
          1   -1    0    0  501    0 -0.00000000000E+00 -0.00000000000E+00 -0.88995213057E+03  0.88995213057E+03  0.00000000000E+00 0. -1.
         25    2    1    2    0    0  0.38094197748E+02  0.56272918266E+02 -0.89511796171E+02  0.16809319974E+03  0.12500061166E+03 0.  0.
          2    1    1    2  501    0  0.37309483216E+02 -0.27699295130E+02 -0.75817303832E+03  0.75959568490E+03  0.00000000000E+00 0. -1.
          1    1    1    2  502    0 -0.75403680964E+02 -0.28573623136E+02  0.71532735398E+03  0.71985789597E+03  0.00000000000E+00 0. -1.
         22    1    3    3    0    0  0.72166501531E+02 -0.46746492346E+01 -0.49199671180E+02  0.87466930510E+02  0.00000000000E+00 0.  1.
         22    1    3    3    0    0 -0.34072303783E+02  0.60947567500E+02 -0.40312124992E+02  0.80626269234E+02  0.00000000000E+00 0.  1.
</event>
<event>
 7    1  0.6358809E-006  0.1255688E+03  0.7818608E-02  0.1353267E+00
          2   -1    0    0  502    0  0.00000000000E+00  0.00000000000E+00  0.27286023058E+03  0.27286023058E+03  0.00000000000E+00 0. -1.
          1   -1    0    0  501    0 -0.00000000000E+00 -0.00000000000E+00 -0.65982252577E+03  0.65982252577E+03  0.00000000000E+00 0. -1.
         25    2    1    2    0    0  0.15912031491E+03 -0.25368347787E+02 -0.63191581237E+02  0.21349779883E+03  0.12500122591E+03 0.  0.
          2    1    1    2  501    0 -0.38786051327E+02  0.14299792622E+02 -0.50208346738E+03  0.50378234394E+03  0.00000000000E+00 0. -1.
          1    1    1    2  502    0 -0.12033426359E+03  0.11068555164E+02  0.17831275342E+03  0.21540261359E+03  0.00000000000E+00 0. -1.
         22    1    3    3    0    0  0.80609394745E+02  0.48839111675E+02 -0.15956128820E+02  0.95591481823E+02  0.00000000000E+00 0.  1.
         22    1    3    3    0    0  0.78510920169E+02 -0.74207459461E+02 -0.47235452417E+02  0.11790631701E+03  0.00000000000E+00 0.  1.
</event>
<event>
 7    1  0.6358809E-006  0.1008758E+03  0.7818608E-02  0.1364888E+00
          2   -1    0    0  502    0  0.00000000000E+00  0.00000000000E+00  0.16974267854E+04  0.16974267854E+04  0.00000000000E+00 0. -1.
          1   -1    0    0  501    0 -0.00000000000E+00 -0.00000000000E+00 -0.25792616705E+03  0.25792616705E+03  0.00000000000E+00 0. -1.
         25    2    1    2    0    0  0.26113312537E+01  0.10517886434E+03  0.65359839342E+02  0.17597219346E+03  0.12499956687E+03 0.  0.
          2    1    1    2  501    0 -0.44722534486E+02 -0.13318092878E+02 -0.19828977083E+03  0.20370643069E+03  0.00000000000E+00 0. -1.
          1    1    1    2  502    0  0.42111203232E+02 -0.91860771465E+02  0.15724305499E+04  0.15756743283E+04  0.00000000000E+00 0. -1.
         22    1    3    3    0    0  0.22939422779E+02  0.11846372874E+03  0.16997856026E+02  0.12185564925E+03  0.00000000000E+00 0.  1.
         22    1    3    3    0    0 -0.20328091525E+02 -0.13284864400E+02  0.48361983316E+02  0.54116544212E+02  0.00000000000E+00 0.  1.
</event>
<event>
 7    1  0.8819022E-006  0.1044833E+03  0.7818608E-02  0.1336498E+00
          2   -1    0    0  502    0  0.00000000000E+00  0.00000000000E+00  0.95066860708E+03  0.95066860708E+03  0.00000000000E+00 0. -1.
          1   -1    0    0  501    0 -0.00000000000E+00 -0.00000000000E+00 -0.17006905368E+04  0.17006905368E+04  0.00000000000E+00 0. -1.
         25    2    1    2    0    0  0.23987078938E+02 -0.15236966608E+03 -0.10512665600E+04  0.10698502000E+04  0.12500470070E+03 0.  0.
          2    1    1    2  501    0  0.14735928874E+02  0.55461998354E+02 -0.63594401207E+03  0.63852796912E+03  0.00000000000E+00 0. -1.
          1    1    1    2  502    0 -0.38723007812E+02  0.96907667722E+02  0.93718864234E+03  0.94298097475E+03  0.00000000000E+00 0. -1.
         22    1    3    3    0    0 -0.33496111315E+02 -0.46307435196E+02 -0.14953405886E+03  0.16008373680E+03  0.00000000000E+00 0. -1.
         22    1    3    3    0    0  0.57483190253E+02 -0.10606223088E+03 -0.90173250109E+03  0.90976646316E+03  0.00000000000E+00 0. -1.
</event>
<event>
 7    1  0.6358809E-006  0.8534559E+02  0.7818608E-02  0.1314681E+00
          2   -1    0    0  502    0  0.00000000000E+00  0.00000000000E+00  0.24455748495E+03  0.24455748495E+03  0.00000000000E+00 0. -1.
          1   -1    0    0  501    0 -0.00000000000E+00 -0.00000000000E+00 -0.16512796555E+04  0.16512796555E+04  0.00000000000E+00 0. -1.
         25    2    1    2    0    0  0.34023054008E+01 -0.83711321833E+02 -0.25057010920E+02  0.15256236039E+03  0.12501303502E+03 0.  0.
          2    1    1    2  501    0  0.75386169169E+02  0.40009930875E+02 -0.15499986575E+04  0.15523465165E+04  0.00000000000E+00 0. -1.
          1    1    1    2  502    0 -0.78788474570E+02  0.43701390957E+02  0.16833349790E+03  0.19092826352E+03  0.00000000000E+00 0. -1.
         22    1    3    3    0    0  0.43420087498E+00 -0.52755988220E+02  0.49148809476E+02  0.72104010266E+02  0.00000000000E+00 0.  1.
         22    1    3    3    0    0  0.29681045258E+01 -0.30955333612E+02 -0.74205820395E+02  0.80458350120E+02  0.00000000000E+00 0.  1.
</event>
<event>
 7    1  0.6358809E-006  0.7644787E+02  0.7818608E-02  0.1503570E+00
          2   -1    0    0  502    0  0.00000000000E+00  0.00000000000E+00  0.65146445836E+02  0.65146445836E+02  0.00000000000E+00 0. -1.
          1   -1    0    0  501    0 -0.00000000000E+00 -0.00000000000E+00 -0.31710843640E+03  0.31710843640E+03  0.00000000000E+00 0. -1.
         25    2    1    2    0    0 -0.59935227242E+02 -0.15007964649E+02 -0.10555046642E+03  0.17487844355E+03  0.12499639431E+03 0.  0.
          2    1    1    2  501    0  0.74393126471E+02  0.31058412996E+02 -0.16185597567E+03  0.18082123533E+03  0.00000000000E+00 0. -1.
          1    1    1    2  502    0 -0.14457899229E+02 -0.16050448347E+02  0.15444451532E+02  0.26555203358E+02  0.00000000000E+00 0. -1.
         22    1    3    3    0    0 -0.53507049758E+02  0.50048618998E+02 -0.46442879677E+02  0.86745661045E+02  0.00000000000E+00 0. -1.
         22    1    3    3    0    0 -0.64281774836E+01 -0.65056583646E+02 -0.59107586746E+02  0.88132782507E+02  0.00000000000E+00 0. -1.
</event>
<event>
 7    1  0.6358809E-006  0.1323134E+03  0.7818608E-02  0.1277380E+00
          2   -1    0    0  502    0  0.00000000000E+00  0.00000000000E+00  0.15906820949E+04  0.15906820949E+04  0.00000000000E+00 0. -1.
          1   -1    0    0  501    0 -0.00000000000E+00 -0.00000000000E+00 -0.11679982949E+04  0.11679982949E+04  0.00000000000E+00 0. -1.
         25    2    1    2    0    0 -0.17255275395E+03 -0.35209641610E+02 -0.10336089137E+03  0.23942073267E+03  0.12499856642E+03 0.  0.
          2    1    1    2  501    0  0.43922408162E+02  0.64105163745E+02 -0.99223178583E+03  0.99527009740E+03  0.00000000000E+00 0. -1.
          1    1    1    2  502    0  0.12863034579E+03 -0.28895522135E+02  0.15182764772E+04  0.15239895598E+04  0.00000000000E+00 0. -1.
         22    1    3    3    0    0 -0.63468721245E+02 -0.14522930843E+02  0.24964271652E+02  0.69730975584E+02  0.00000000000E+00 0.  1.
         22    1    3    3    0    0 -0.10908403270E+03 -0.20686710767E+02 -0.12832516303E+03  0.16968975708E+03  0.00000000000E+00 0.  1.
</event>
<event>
 7    1  0.6358809E-006  0.4013976E+02  0.7818608E-02  0.1529852E+00
          2   -1    0    0  502    0  0.00000000000E+00  0.00000000000E+00  0.11285034586E+03  0.11285034586E+03  0.00000000000E+00 0. -1.
          1   -1    0    0  501    0 -0.00000000000E+00 -0.00000000000E+00 -0.32471298057E+03  0.32471298057E+03  0.00000000000E+00 0. -1.
         25    2    1    2    0    0 -0.11402634504E+02  0.54986332073E+00 -0.15757273045E+03  0.20145710001E+03  0.12500190134E+03 0.  0.
          2    1    1    2  501    0 -0.17282443773E+02 -0.29840617103E+02 -0.13834925957E+03  0.14258212692E+03  0.00000000000E+00 0. -1.
          1    1    1    2  502    0  0.28685078277E+02  0.29290753782E+02  0.84059355309E+02  0.93524099503E+02  0.00000000000E+00 0. -1.
         22    1    3    3    0    0 -0.51632765398E+02 -0.16312325128E+02 -0.20984028056E+02  0.58072057370E+02  0.00000000000E+00 0.  1.
         22    1    3    3    0    0  0.40230130894E+02  0.16862188449E+02 -0.13658870240E+03  0.14338504264E+03  0.00000000000E+00 0.  1.
</event>
<event>
 7    1  0.6358809E-006  0.6889273E+02  0.7818608E-02  0.1509585E+00
          2   -1    0    0  502    0  0.00000000000E+00  0.00000000000E+00  0.24110796298E+03  0.24110796298E+03  0.00000000000E+00 0. -1.
          1   -1    0    0  501    0 -0.00000000000E+00 -0.00000000000E+00 -0.99769119437E+03  0.99769119437E+03  0.00000000000E+00 0. -1.
         25    2    1    2    0    0 -0.11319524647E+02  0.49928683343E+02 -0.15780268274E+03  0.20771404652E+03  0.12498973311E+03 0.  0.
          2    1    1    2  501    0 -0.19385979929E+02  0.12393476740E+02 -0.80918234089E+03  0.80950940408E+03  0.00000000000E+00 0. -1.
          1    1    1    2  502    0  0.30705504576E+02 -0.62322160083E+02  0.21040179224E+03  0.22157570676E+03  0.00000000000E+00 0. -1.
         22    1    3    3    0    0 -0.48932535294E+02  0.72955588694E+02 -0.82865555619E+02  0.12076262352E+03  0.00000000000E+00 0.  1.
         22    1    3    3    0    0  0.37613010647E+02 -0.23026905351E+02 -0.74937127117E+02  0.86951422993E+02  0.00000000000E+00 0.  1.
</event>
<event>
 7    1  0.6358809E-006  0.1112647E+03  0.7818608E-02  0.1336333E+00
          2   -1    0    0  502    0  0.00000000000E+00  0.00000000000E+00  0.51686992399E+03  0.51686992399E+03  0.00000000000E+00 0. -1.
          1   -1    0    0  501    0 -0.00000000000E+00 -0.00000000000E+00 -0.42622564482E+03  0.42622564482E+03  0.00000000000E+00 0. -1.
         25    2    1    2    0    0 -0.11836780901E+03  0.98239487394E+02  0.60500009097E+02  0.20723924676E+03  0.12500367676E+03 0.  0.
          2    1    1    2  501    0  0.23319830421E+02 -0.48667506501E+02 -0.34320505473E+03  0.34742200603E+03  0.00000000000E+00 0. -1.
          1    1    1    2  502    0  0.95047978593E+02 -0.49571980894E+02  0.37334932481E+03  0.38843431602E+03  0.00000000000E+00 0. -1.
         22    1    3    3    0    0 -0.12198488725E+03  0.89636618886E+02  0.55251816279E+01  0.15147793171E+03  0.00000000000E+00 0.  1.
         22    1    3    3    0    0  0.36170782343E+01  0.86028685081E+01  0.54974827469E+02  0.55761315056E+02  0.00000000000E+00 0.  1.
</event>
<event>
 7    1  0.6358809E-006  0.1241767E+03  0.7818608E-02  0.1339298E+00
          2   -1    0    0  502    0  0.00000000000E+00  0.00000000000E+00  0.20065076630E+04  0.20065076630E+04  0.00000000000E+00 0. -1.
          1   -1    0    0  501    0 -0.00000000000E+00 -0.00000000000E+00 -0.57840294456E+03  0.57840294456E+03  0.00000000000E+00 0. -1.
         25    2    1    2    0    0  0.23887074418E+02  0.16508747376E+03 -0.93518651417E+01  0.20865793803E+03  0.12500484551E+03 0.  0.
          2    1    1    2  501    0  0.92666420528E+01 -0.46204069801E+02 -0.46621194782E+03  0.46858752332E+03  0.00000000000E+00 0. -1.
          1    1    1    2  502    0 -0.33153716470E+02 -0.11888340396E+03  0.19036685314E+04  0.19076651462E+04  0.00000000000E+00 0. -1.
         22    1    3    3    0    0 -0.44181669696E+02  0.10896513541E+03 -0.21728307438E+02  0.11957232128E+03  0.00000000000E+00 0.  1.
         22    1    3    3    0    0  0.68068744113E+02  0.56122338354E+02  0.12376442296E+02  0.89085616748E+02  0.00000000000E+00 0.  1.
</event>
<event>
 7    1  0.6358809E-006  0.7024413E+02  0.7818608E-02  0.1384294E+00
          2   -1    0    0  502    0  0.00000000000E+00  0.00000000000E+00  0.40700672047E+03  0.40700672047E+03  0.00000000000E+00 0. -1.
          1   -1    0    0  501    0 -0.00000000000E+00 -0.00000000000E+00 -0.33888953726E+03  0.33888953726E+03  0.00000000000E+00 0. -1.
         25    2    1    2    0    0  0.44739575134E+02  0.11428710978E+03  0.17003833997E+03  0.24413163662E+03  0.12499618351E+03 0.  0.
          2    1    1    2  501    0 -0.10630182538E+02 -0.68457293562E+02 -0.29364682843E+03  0.30170823931E+03  0.00000000000E+00 0. -1.
          1    1    1    2  502    0 -0.34109392596E+02 -0.45829816222E+02  0.19172567167E+03  0.20005638179E+03  0.00000000000E+00 0. -1.
         22    1    3    3    0    0 -0.10806558870E+02  0.11787878838E+03  0.12825191883E+03  0.17453006947E+03  0.00000000000E+00 0. -1.
         22    1    3    3    0    0  0.55546134004E+02 -0.35916785981E+01  0.41786421143E+02  0.69601567151E+02  0.00000000000E+00 0. -1.
</event>
<event>
 7    1  0.6358809E-006  0.1213498E+03  0.7818608E-02  0.1361660E+00
          2   -1    0    0  502    0  0.00000000000E+00  0.00000000000E+00  0.26679668046E+03  0.26679668046E+03  0.00000000000E+00 0. -1.
          1   -1    0    0  501    0 -0.00000000000E+00 -0.00000000000E+00 -0.37225330613E+03  0.37225330613E+03  0.00000000000E+00 0. -1.
         25    2    1    2    0    0  0.11710473884E+03 -0.89935697622E+02 -0.13084162113E+03  0.23355172941E+03  0.12499972370E+03 0.  0.
          2    1    1    2  501    0 -0.78108419330E+02  0.81723439986E+02 -0.17106680467E+03  0.20504511083E+03  0.00000000000E+00 0. -1.
          1    1    1    2  502    0 -0.38996319509E+02  0.82122576366E+01  0.19645180013E+03  0.20045314636E+03  0.00000000000E+00 0. -1.
         22    1    3    3    0    0  0.14068101326E+03 -0.67370752316E+02 -0.86079632924E+02  0.17815630487E+03  0.00000000000E+00 0. -1.
         22    1    3    3    0    0 -0.23576274422E+02 -0.22564945306E+02 -0.44761988202E+02  0.55395424541E+02  0.00000000000E+00 0. -1.
</event>
<event>
 7    1  0.6358809E-006  0.6020973E+02  0.7818608E-02  0.1473370E+00
          2   -1    0    0  502    0  0.00000000000E+00  0.00000000000E+00  0.60278834071E+03  0.60278834071E+03  0.00000000000E+00 0. -1.
          1   -1    0    0  501    0 -0.00000000000E+00 -0.00000000000E+00 -0.33426385484E+03  0.33426385484E+03  0.00000000000E+00 0. -1.
         25    2    1    2    0    0  0.39004188547E+02 -0.60492582746E+02 -0.39173560391E+02  0.14946727140E+03  0.12500087238E+03 0.  0.
          2    1    1    2  501    0 -0.52269112059E+02  0.29332428089E+02 -0.23566499746E+03  0.24316751929E+03  0.00000000000E+00 0. -1.
          1    1    1    2  502    0  0.13264923513E+02  0.31160154657E+02  0.54336304371E+03  0.54441740485E+03  0.00000000000E+00 0. -1.
         22    1    3    3    0    0 -0.23928804355E+02 -0.17336121565E+02 -0.62949923366E+02  0.69540072193E+02  0.00000000000E+00 0. -1.
         22    1    3    3    0    0  0.62932992902E+02 -0.43156461180E+02  0.23776362975E+02  0.79927199210E+02  0.00000000000E+00 0. -1.
</event>
<event>
 7    1  0.6358809E-006  0.1331543E+03  0.7818608E-02  0.1378718E+00
          2   -1    0    0  502    0  0.00000000000E+00  0.00000000000E+00  0.16229620716E+04  0.16229620716E+04  0.00000000000E+00 0. -1.
          1   -1    0    0  501    0 -0.00000000000E+00 -0.00000000000E+00 -0.21160543512E+04  0.21160543512E+04  0.00000000000E+00 0. -1.
         25    2    1    2    0    0 -0.15505590296E+02  0.10130300141E+03 -0.78040448808E+02  0.17949373205E+03  0.12499986708E+03 0.  0.
          2    1    1    2  501    0 -0.87180523699E+00  0.31524892317E+02 -0.19843136471E+04  0.19845642416E+04  0.00000000000E+00 0. -1.
          1    1    1    2  502    0  0.16377395533E+02 -0.13282789373E+03  0.15692618163E+04  0.15749584492E+04  0.00000000000E+00 0. -1.
         22    1    3    3    0    0 -0.13215505439E+02  0.22090349943E+02 -0.95023625668E+02  0.98448578353E+02  0.00000000000E+00 0. -1.
         22    1    3    3    0    0 -0.22900848569E+01  0.79212651469E+02  0.16983176860E+02  0.81045153696E+02  0.00000000000E+00 0. -1.
</event>
<event>
 7    1  0.6358809E-006  0.4244953E+02  0.7818608E-02  0.1502213E+00
          2   -1    0    0  502    0  0.00000000000E+00  0.00000000000E+00  0.82004737040E+03  0.82004737040E+03  0.00000000000E+00 0. -1.
          1   -1    0    0  501    0 -0.00000000000E+00 -0.00000000000E+00 -0.12219875303E+04  0.12219875303E+04  0.00000000000E+00 0. -1.
         25    2    1    2    0    0 -0.22839416283E+02 -0.39199533239E+02 -0.29894861964E+03  0.32718993018E+03  0.12499892355E+03 0.  0.
          2    1    1    2  501    0  0.42641390220E+02  0.52920049528E+01 -0.90793157770E+03  0.90894776707E+03  0.00000000000E+00 0. -1.
          1    1    1    2  502    0 -0.19801973936E+02  0.33907528286E+02  0.80494003744E+03  0.80589720345E+03  0.00000000000E+00 0. -1.
         22    1    3    3    0    0 -0.17006319018E+02  0.14186120781E+02 -0.25977471822E+03  0.26071702118E+03  0.00000000000E+00 0.  1.
         22    1    3    3    0    0 -0.58330972652E+01 -0.53385654020E+02 -0.39173901420E+02  0.66472909003E+02  0.00000000000E+00 0.  1.
</event>
<event>
 7    1  0.6358809E-006  0.3699607E+02  0.7818608E-02  0.1600467E+00
          2   -1    0    0  502    0  0.00000000000E+00  0.00000000000E+00  0.14334310834E+04  0.14334310834E+04  0.00000000000E+00 0. -1.
          1   -1    0    0  501    0 -0.00000000000E+00 -0.00000000000E+00 -0.23638949956E+02  0.23638949956E+02  0.00000000000E+00 0. -1.
         25    2    1    2    0    0  0.48524166426E+01 -0.13790258493E+02  0.58502832968E+03  0.59840990700E+03  0.12499021194E+03 0.  0.
          2    1    1    2  501    0  0.11410046454E+02 -0.21092606653E+02 -0.77920566733E+01  0.25215141537E+02  0.00000000000E+00 0. -1.
          1    1    1    2  502    0 -0.16262463097E+02  0.34882865146E+02  0.83255586041E+03  0.83344498480E+03  0.00000000000E+00 0. -1.
         22    1    3    3    0    0 -0.56138396924E+02 -0.28104012711E+02  0.31707370776E+03  0.32322916219E+03  0.00000000000E+00 0. -1.
         22    1    3    3    0    0  0.60990813567E+02  0.14313754218E+02  0.26795462192E+03  0.27518074480E+03  0.00000000000E+00 0. -1.
</event>
<event>
 7    1  0.6358809E-006  0.2221004E+03  0.7818608E-02  0.1214360E+00
          2   -1    0    0  502    0  0.00000000000E+00  0.00000000000E+00  0.18607609242E+03  0.18607609242E+03  0.00000000000E+00 0. -1.
          1   -1    0    0  501    0 -0.00000000000E+00 -0.00000000000E+00 -0.15313237596E+04  0.15313237596E+04  0.00000000000E+00 0. -1.
         25    2    1    2    0    0  0.92308086444E+02 -0.20080180101E+03 -0.33809220797E+03  0.42281561680E+03  0.12499823443E+03 0.  0.
          2    1    1    2  501    0 -0.16572537161E+03  0.15358809424E+03 -0.11252615190E+04  0.11477228270E+04  0.00000000000E+00 0. -1.
          1    1    1    2  502    0  0.73417285164E+02  0.47213706771E+02  0.11810605978E+03  0.14686140822E+03  0.00000000000E+00 0. -1.
         22    1    3    3    0    0  0.99601035295E+02 -0.21514061947E+03 -0.32368429232E+03  0.40121985678E+03  0.00000000000E+00 0. -1.
         22    1    3    3    0    0 -0.72929488509E+01  0.14338818459E+02 -0.14407915650E+02  0.21595760026E+02  0.00000000000E+00 0. -1.
</event>
<event>
 7    1  0.6358809E-006  0.4512382E+02  0.7818608E-02  0.1566886E+00
          2   -1    0    0  502    0  0.00000000000E+00  0.00000000000E+00  0.34693809011E+04  0.34693809011E+04  0.00000000000E+00 0. -1.
          1   -1    0    0  501    0 -0.00000000000E+00 -0.00000000000E+00 -0.44781910742E+03  0.44781910742E+03  0.00000000000E+00 0. -1.
         25    2    1    2    0    0  0.22571590503E+02  0.25156724512E+01  0.12449607160E+04  0.12514269642E+04  0.12500582805E+03 0.  0.
          2    1    1    2  501    0  0.23705686265E+02  0.47055332006E+01 -0.44401040181E+03  0.44466767199E+03  0.00000000000E+00 0. -1.
          1    1    1    2  502    0 -0.46277276768E+02 -0.72212056518E+01  0.22206114795E+04  0.22211053724E+04  0.00000000000E+00 0. -1.
         22    1    3    3    0    0  0.61325155259E+01 -0.60494563235E+02  0.51837483343E+03  0.52192879578E+03  0.00000000000E+00 0. -1.
         22    1    3    3    0    0  0.16439074977E+02  0.63010235686E+02  0.72658588254E+03  0.72949816840E+03  0.00000000000E+00 0. -1.
</event>
<event>
 7    1  0.6358809E-006  0.1439531E+03  0.7818608E-02  0.1400170E+00
          2   -1    0    0  502    0  0.00000000000E+00  0.00000000000E+00  0.31593298404E+04  0.31593298404E+04  0.00000000000E+00 0. -1.
          1   -1    0    0  501    0 -0.00000000000E+00 -0.00000000000E+00 -0.10915245897E+03  0.10915245897E+03  0.00000000000E+00 0. -1.
         25    2    1    2    0    0  0.13978812630E+03  0.30344671933E+02  0.30639237539E+03  0.36050283743E+03  0.12499795488E+03 0.  0.
          2    1    1    2  501    0  0.42279082750E+01 -0.24181977937E+02 -0.78380554511E+02  0.82134977877E+02  0.00000000000E+00 0. -1.
          1    1    1    2  502    0 -0.14401603458E+03 -0.61626939960E+01  0.28221655605E+04  0.28258444840E+04  0.00000000000E+00 0. -1.
         22    1    3    3    0    0  0.56616653760E+02  0.41772572263E+02  0.39436930660E+02  0.80657701284E+02  0.00000000000E+00 0.  1.
         22    1    3    3    0    0  0.83171472543E+02 -0.11427900330E+02  0.26695544473E+03  0.27984513614E+03  0.00000000000E+00 0.  1.
</event>
<event>
 7    1  0.6358809E-006  0.1617357E+03  0.7818608E-02  0.1277900E+00
          2   -1    0    0  502    0  0.00000000000E+00  0.00000000000E+00  0.30766448138E+03  0.30766448138E+03  0.00000000000E+00 0. -1.
          1   -1    0    0  501    0 -0.00000000000E+00 -0.00000000000E+00 -0.75416339703E+03  0.75416339703E+03  0.00000000000E+00 0. -1.
         25    2    1    2    0    0 -0.13940305939E+03  0.13166060332E+03 -0.23014200757E+03  0.32458550357E+03  0.12499071183E+03 0.  0.
          2    1    1    2  501    0  0.13950888968E+03 -0.68403574377E+02 -0.45999425150E+03  0.48552702365E+03  0.00000000000E+00 0. -1.
          1    1    1    2  502    0 -0.10583028813E+00 -0.63257028945E+02  0.24363734343E+03  0.25171535119E+03  0.00000000000E+00 0. -1.
         22    1    3    3    0    0 -0.16163182151E+03  0.12141025360E+03 -0.21785297064E+03  0.29719557908E+03  0.00000000000E+00 0.  1.
         22    1    3    3    0    0  0.22228762124E+02  0.10250349724E+02 -0.12289036930E+02  0.27389924492E+02  0.00000000000E+00 0.  1.
</event>
<event>
 7    1  0.6358809E-006  0.2041695E+03  0.7818608E-02  0.1196971E+00
          2   -1    0    0  502    0  0.00000000000E+00  0.00000000000E+00  0.21942161642E+03  0.21942161642E+03  0.00000000000E+00 0. -1.
          1   -1    0    0  501    0 -0.00000000000E+00 -0.00000000000E+00 -0.27364413287E+04  0.27364413287E+04  0.00000000000E+00 0. -1.
         25    2    1    2    0    0 -0.47616486079E+02  0.24805342683E+03 -0.65507722791E+03  0.71312664136E+03  0.12500239906E+03 0.  0.
          2    1    1    2  501    0 -0.52530145194E+02 -0.19258108739E+03 -0.20297797226E+04  0.20395716741E+04  0.00000000000E+00 0. -1.
          1    1    1    2  502    0  0.10014663127E+03 -0.55472339443E+02  0.16783723827E+03  0.20316462967E+03  0.00000000000E+00 0. -1.
         22    1    3    3    0    0 -0.67323394250E+02  0.63475778445E+02 -0.16663970500E+03  0.19060536494E+03  0.00000000000E+00 0. -1.
         22    1    3    3    0    0  0.19706908171E+02  0.18457764839E+03 -0.48843752291E+03  0.52252127641E+03  0.00000000000E+00 0. -1.
</event>
<event>
 7    1  0.6358809E-006  0.1093019E+03  0.7818608E-02  0.1307741E+00
          2   -1    0    0  502    0  0.00000000000E+00  0.00000000000E+00  0.14597408668E+04  0.14597408668E+04  0.00000000000E+00 0. -1.
          1   -1    0    0  501    0 -0.00000000000E+00 -0.00000000000E+00 -0.21540261327E+03  0.21540261327E+03  0.00000000000E+00 0. -1.
         25    2    1    2    0    0 -0.93673225085E+02 -0.91415231886E+02  0.10705782090E+03  0.21027418239E+03  0.12498974776E+03 0.  0.
          2    1    1    2  501    0 -0.13350555198E+02  0.69598473474E+02 -0.15371346178E+03  0.16926314769E+03  0.00000000000E+00 0. -1.
          1    1    1    2  502    0  0.10702378028E+03  0.21816758412E+02  0.12909938945E+04  0.12956061500E+04  0.00000000000E+00 0. -1.
         22    1    3    3    0    0 -0.33659621050E+01 -0.68788576358E+02  0.63080346685E+00  0.68873767512E+02  0.00000000000E+00 0. -1.
         22    1    3    3    0    0 -0.90307262980E+02 -0.22626655528E+02  0.10642701743E+03  0.14140041487E+03  0.00000000000E+00 0. -1.
</event>
<event>
 7    1  0.6358809E-006  0.4749981E+02  0.7818608E-02  0.1535932E+00
          2   -1    0    0  502    0  0.00000000000E+00  0.00000000000E+00  0.14526419344E+04  0.14526419344E+04  0.00000000000E+00 0. -1.
          1   -1    0    0  501    0 -0.00000000000E+00 -0.00000000000E+00 -0.14128146957E+02  0.14128146957E+02  0.00000000000E+00 0. -1.
         25    2    1    2    0    0 -0.20218273824E+02 -0.22744597525E+02  0.39255951380E+03  0.41310213245E+03  0.12499721854E+03 0.  0.
          2    1    1    2  501    0  0.29596871118E+02  0.49126472160E+02  0.22363886697E+03  0.23087600106E+03  0.00000000000E+00 0. -1.
          1    1    1    2  502    0 -0.93785972940E+01 -0.26381874635E+02  0.82231540672E+03  0.82279194790E+03  0.00000000000E+00 0. -1.
         22    1    3    3    0    0 -0.64709070668E+02 -0.39011399605E+02  0.29679034150E+03  0.30625750592E+03  0.00000000000E+00 0.  1.
         22    1    3    3    0    0  0.44490796844E+02  0.16266802080E+02  0.95769172298E+02  0.10684462652E+03  0.00000000000E+00 0.  1.
</event>
<event>
 7    1  0.6358809E-006  0.8326548E+02  0.7818608E-02  0.1360419E+00
          2   -1    0    0  502    0  0.00000000000E+00  0.00000000000E+00  0.36811073910E+04  0.36811073910E+04  0.00000000000E+00 0. -1.
          1   -1    0    0  501    0 -0.00000000000E+00 -0.00000000000E+00 -0.11084595149E+03  0.11084595149E+03  0.00000000000E+00 0. -1.
         25    2    1    2    0    0 -0.13812377829E+03 -0.48520236160E+01  0.63380038509E+03  0.66062809970E+03  0.12499935083E+03 0.  0.
          2    1    1    2  501    0  0.57384170997E+02  0.12297914634E+02 -0.88001814089E+02  0.10577571115E+03  0.00000000000E+00 0. -1.
          1    1    1    2  502    0  0.80739607292E+02 -0.74458910184E+01  0.30244628685E+04  0.30255495317E+04  0.00000000000E+00 0. -1.
         22    1    3    3    0    0 -0.71940363835E+02  0.39091699237E+02  0.48582340056E+03  0.49267428737E+03  0.00000000000E+00 0. -1.
         22    1    3    3    0    0 -0.66183414455E+02 -0.43943722853E+02  0.14797698453E+03  0.16795381233E+03  0.00000000000E+00 0. -1.
</event>
<event>
 7    1  0.6358809E-006  0.2931723E+03  0.7818608E-02  0.1167430E+00
          2   -1    0    0  502    0  0.00000000000E+00  0.00000000000E+00  0.95061497161E+03  0.95061497161E+03  0.00000000000E+00 0. -1.
          1   -1    0    0  501    0 -0.00000000000E+00 -0.00000000000E+00 -0.13447740678E+04  0.13447740678E+04  0.00000000000E+00 0. -1.
         25    2    1    2    0    0 -0.29302609014E+03  0.18345417925E+03  0.12243595696E+03  0.38747294638E+03  0.12499998094E+03 0.  0.
          2    1    1    2  501    0  0.10655464961E+03  0.31060926426E+02 -0.11805105521E+04  0.11857165927E+04  0.00000000000E+00 0. -1.
          1    1    1    2  502    0  0.18647144053E+03 -0.21451510568E+03  0.66391549891E+03  0.72219950041E+03  0.00000000000E+00 0. -1.
         22    1    3    3    0    0 -0.27197368414E+03  0.11697671774E+03  0.11391850637E+03  0.31722336524E+03  0.00000000000E+00 0.  1.
         22    1    3    3    0    0 -0.21052406001E+02  0.66477461505E+02  0.85174505810E+01  0.70249581145E+02  0.00000000000E+00 0.  1.
</event>
<event>
 7    1  0.6358809E-006  0.9638644E+02  0.7818608E-02  0.1427243E+00
          2   -1    0    0  502    0  0.00000000000E+00  0.00000000000E+00  0.16063277972E+04  0.16063277972E+04  0.00000000000E+00 0. -1.
          1   -1    0    0  501    0 -0.00000000000E+00 -0.00000000000E+00 -0.13418499479E+03  0.13418499479E+03  0.00000000000E+00 0. -1.
         25    2    1    2    0    0 -0.54003499948E+02  0.41920708016E+02  0.36815464024E+03  0.39476160891E+03  0.12500065988E+03 0.  0.
          2    1    1    2  501    0  0.74489659197E+02 -0.63445007192E+02 -0.10086793850E+03  0.14052871337E+03  0.00000000000E+00 0. -1.
          1    1    1    2  502    0 -0.20486159249E+02  0.21524299177E+02  0.12048561007E+04  0.12052224697E+04  0.00000000000E+00 0. -1.
         22    1    3    3    0    0 -0.53387612036E+02  0.38413556391E+02  0.68063128488E+02  0.94648971959E+02  0.00000000000E+00 0. -1.
         22    1    3    3    0    0 -0.61588791247E+00  0.35071516252E+01  0.30009151176E+03  0.30011263695E+03  0.00000000000E+00 0. -1.
</event>
<event>
 7    1  0.6358809E-006  0.1678996E+03  0.7818608E-02  0.1357792E+00
          2   -1    0    0  502    0  0.00000000000E+00  0.00000000000E+00  0.30150618218E+03  0.30150618218E+03  0.00000000000E+00 0. -1.
          1   -1    0    0  501    0 -0.00000000000E+00 -0.00000000000E+00 -0.47373474372E+03  0.47373474372E+03  0.00000000000E+00 0. -1.
         25    2    1    2    0    0 -0.14601541565E+03 -0.81725649138E+02 -0.17870911609E+03  0.27488667210E+03  0.12500460387E+03 0.  0.
          2    1    1    2  501    0 -0.13012579044E+02  0.26758508198E+02 -0.21788430829E+03  0.21990660921E+03  0.00000000000E+00 0. -1.
          1    1    1    2  502    0  0.15902799469E+03  0.54967140940E+02  0.22436486284E+03  0.28044764459E+03  0.00000000000E+00 0. -1.
         22    1    3    3    0    0 -0.11475375668E+03 -0.79872583501E+02 -0.19471862449E+03  0.23971524146E+03  0.00000000000E+00 0. -1.
         22    1    3    3    0    0 -0.31261658971E+02 -0.18530656368E+01  0.16009508396E+02  0.35171430635E+02  0.00000000000E+00 0. -1.
</event>
<event>
 7    1  0.6358809E-006  0.7529636E+02  0.7818608E-02  0.1454933E+00
          2   -1    0    0  502    0  0.00000000000E+00  0.00000000000E+00  0.11475761068E+04  0.11475761068E+04  0.00000000000E+00 0. -1.
          1   -1    0    0  501    0 -0.00000000000E+00 -0.00000000000E+00 -0.17104264592E+04  0.17104264592E+04  0.00000000000E+00 0. -1.
         25    2    1    2    0    0  0.77184494593E+02  0.31495626435E+02 -0.30246407578E+03  0.33772598956E+03  0.12499962480E+03 0.  0.
          2    1    1    2  501    0 -0.54133452194E+02 -0.52129772227E+02 -0.13891037439E+04  0.13911352038E+04  0.00000000000E+00 0. -1.
          1    1    1    2  502    0 -0.23051042400E+02  0.20634145791E+02  0.11287174673E+04  0.11291413726E+04  0.00000000000E+00 0. -1.
         22    1    3    3    0    0  0.10799973670E+03  0.12243292541E+02 -0.26020608486E+03  0.28199476580E+03  0.00000000000E+00 0. -1.
         22    1    3    3    0    0 -0.30815242102E+02  0.19252333895E+02 -0.42257990914E+02  0.55731223764E+02  0.00000000000E+00 0. -1.
</event>
<event>
 7    1  0.6358809E-006  0.3468688E+02  0.7818608E-02  0.1615486E+00
          2   -1    0    0  502    0  0.00000000000E+00  0.00000000000E+00  0.14616474195E+03  0.14616474195E+03  0.00000000000E+00 0. -1.
          1   -1    0    0  501    0 -0.00000000000E+00 -0.00000000000E+00 -0.28018984336E+04  0.28018984336E+04  0.00000000000E+00 0. -1.
         25    2    1    2    0    0 -0.62133513030E+01 -0.15333828543E+02 -0.71418636100E+03  0.72523206129E+03  0.12500260981E+03 0.  0.
          2    1    1    2  501    0 -0.71709743837E+01  0.34514855617E+02 -0.20810664937E+04  0.20813650447E+04  0.00000000000E+00 0. -1.
          1    1    1    2  502    0  0.13384325687E+02 -0.19181027074E+02  0.13951916306E+03  0.14146606955E+03  0.00000000000E+00 0. -1.
         22    1    3    3    0    0 -0.23009353654E+02 -0.67337092155E+02 -0.42788769159E+03  0.43376444178E+03  0.00000000000E+00 0.  1.
         22    1    3    3    0    0  0.16796002351E+02  0.52003263612E+02 -0.28629866941E+03  0.29146761952E+03  0.00000000000E+00 0.  1.
</event>
<event>
 7    1  0.6358809E-006  0.7802296E+02  0.7818608E-02  0.1508988E+00
          2   -1    0    0  502    0  0.00000000000E+00  0.00000000000E+00  0.53420736025E+03  0.53420736025E+03  0.00000000000E+00 0. -1.
          1   -1    0    0  501    0 -0.00000000000E+00 -0.00000000000E+00 -0.30399944738E+03  0.30399944738E+03  0.00000000000E+00 0. -1.
         25    2    1    2    0    0  0.83170808514E+02 -0.11207213644E+02  0.53299575687E+02  0.15971676591E+03  0.12500246204E+03 0.  0.
          2    1    1    2  501    0 -0.58374621103E+01  0.19545801970E+02 -0.24683027785E+03  0.24767175940E+03  0.00000000000E+00 0. -1.
          1    1    1    2  502    0 -0.77333346404E+02 -0.83385883263E+01  0.42373861503E+03  0.43081828233E+03  0.00000000000E+00 0. -1.
         22    1    3    3    0    0  0.84343296657E+02  0.38641451099E+02  0.58352216637E+02  0.10959897180E+03  0.00000000000E+00 0. -1.
         22    1    3    3    0    0 -0.11724881429E+01 -0.49848664743E+02 -0.50526409497E+01  0.50117794102E+02  0.00000000000E+00 0. -1.
</event>
<event>
 7    1  0.6358809E-006  0.4801825E+02  0.7818608E-02  0.1545532E+00
          2   -1    0    0  502    0  0.00000000000E+00  0.00000000000E+00  0.12991575762E+04  0.12991575762E+04  0.00000000000E+00 0. -1.
          1   -1    0    0  501    0 -0.00000000000E+00 -0.00000000000E+00 -0.65874411763E+03  0.65874411763E+03  0.00000000000E+00 0. -1.
         25    2    1    2    0    0  0.39022632023E+02  0.50938653312E+02 -0.64463824694E+02  0.15459348569E+03  0.12500419557E+03 0.  0.
          2    1    1    2  501    0 -0.13516422774E+02 -0.45788409821E+02 -0.54804260625E+03  0.55011814225E+03  0.00000000000E+00 0. -1.
          1    1    1    2  502    0 -0.25506209249E+02 -0.51502434901E+01  0.12529198895E+04  0.12531900659E+04  0.00000000000E+00 0. -1.
         22    1    3    3    0    0  0.30915450706E+01  0.75275678384E+02  0.18265185945E+01  0.75361273724E+02  0.00000000000E+00 0.  1.
         22    1    3    3    0    0  0.35931086953E+02 -0.24337025073E+02 -0.66290343289E+02  0.79232211962E+02  0.00000000000E+00 0.  1.
</event>
<event>
 7    1  0.6358809E-006  0.3083761E+02  0.7818608E-02  0.1603535E+00
          2   -1    0    0  502    0  0.00000000000E+00  0.00000000000E+00  0.85966363583E+03  0.85966363583E+03  0.00000000000E+00 0. -1.
          1   -1    0    0  501    0 -0.00000000000E+00 -0.00000000000E+00 -0.55899823308E+02  0.55899823308E+02  0.00000000000E+00 0. -1.
         25    2    1    2    0    0  0.24572615196E+01  0.30231594014E+02  0.80401977022E+02  0.15169122413E+03  0.12500304859E+03 0.  0.
          2    1    1    2  501    0 -0.27361519862E+02 -0.16905833747E+02 -0.70399869367E+01  0.32924480252E+02  0.00000000000E+00 0. -1.
          1    1    1    2  502    0  0.24904258342E+02 -0.13325760267E+02  0.73040182244E+03  0.73094775476E+03  0.00000000000E+00 0. -1.
         22    1    3    3    0    0  0.51056049511E+02 -0.21048050871E+02  0.50985820476E+02  0.75161789007E+02  0.00000000000E+00 0. -1.
         22    1    3    3    0    0 -0.48598787991E+02  0.51279644885E+02  0.29416156547E+02  0.76529435120E+02  0.00000000000E+00 0. -1.
</event>
<event>
 7    1  0.6358809E-006  0.5451906E+02  0.7818608E-02  0.1485559E+00
          2   -1    0    0  502    0  0.00000000000E+00  0.00000000000E+00  0.98062939461E+03  0.98062939461E+03  0.00000000000E+00 0. -1.
          1   -1    0    0  501    0 -0.00000000000E+00 -0.00000000000E+00 -0.25737985871E+03  0.25737985871E+03  0.00000000000E+00 0. -1.
         25    2    1    2    0    0 -0.28116792828E+02  0.81865088433E+02  0.91704522147E+02  0.17755657991E+03  0.12499669174E+03 0.  0.
          2    1    1    2  501    0  0.98259832516E+01 -0.52833074605E+02 -0.21073245285E+03  0.21747655139E+03  0.00000000000E+00 0. -1.
          1    1    1    2  502    0  0.18290809577E+02 -0.29032013828E+02  0.84227746661E+03  0.84297612202E+03  0.00000000000E+00 0. -1.
         22    1    3    3    0    0  0.10748666956E+02 -0.26386251417E+02  0.45334554917E+02  0.53544280504E+02  0.00000000000E+00 0.  1.
         22    1    3    3    0    0 -0.38865459785E+02  0.10825133985E+03  0.46369967230E+02  0.12401229941E+03  0.00000000000E+00 0.  1.
</event>
<event>
 7    1  0.6358809E-006  0.5709813E+02  0.7818608E-02  0.1481889E+00
          2   -1    0    0  502    0  0.00000000000E+00  0.00000000000E+00  0.17268294016E+04  0.17268294016E+04  0.00000000000E+00 0. -1.
          1   -1    0    0  501    0 -0.00000000000E+00 -0.00000000000E+00 -0.40221894830E+03  0.40221894830E+03  0.00000000000E+00 0. -1.
         25    2    1    2    0    0 -0.64767155507E+01  0.37483512127E+02  0.12187720153E+04  0.12257555946E+04  0.12499836289E+03 0.  0.
          2    1    1    2  501    0 -0.15039998222E+02  0.30067636785E+02 -0.39552017972E+03  0.39694644083E+03  0.00000000000E+00 0. -1.
          1    1    1    2  502    0  0.21516713772E+02 -0.67551148913E+02  0.50135861764E+03  0.50634631446E+03  0.00000000000E+00 0. -1.
         22    1    3    3    0    0  0.28696155061E+02 -0.14183790743E+02  0.95023616504E+02  0.10027031928E+03  0.00000000000E+00 0. -1.
         22    1    3    3    0    0 -0.35172870611E+02  0.51667302871E+02  0.11237483988E+04  0.11254852753E+04  0.00000000000E+00 0. -1.
</event>
<event>
 7    1  0.6358809E-006  0.1361440E+03  0.7818608E-02  0.1362772E+00
          2   -1    0    0  502    0  0.00000000000E+00  0.00000000000E+00  0.23215072537E+04  0.23215072537E+04  0.00000000000E+00 0. -1.
          1   -1    0    0  501    0 -0.00000000000E+00 -0.00000000000E+00 -0.84361954604E+02  0.84361954604E+02  0.00000000000E+00 0. -1.
         25    2    1    2    0    0  0.10752361367E+03  0.56981383294E+02  0.62124646933E+03  0.64527544193E+03  0.12500005905E+03 0.  0.
          2    1    1    2  501    0 -0.13383140808E+03 -0.33606986815E+02 -0.61880449085E+01  0.13812518688E+03  0.00000000000E+00 0. -1.
          1    1    1    2  502    0  0.26307794411E+02 -0.23374396479E+02  0.16220868747E+04  0.16224685795E+04  0.00000000000E+00 0. -1.
         22    1    3    3    0    0  0.10751182390E+03  0.57177429374E+02  0.62740552896E+03  0.63911325168E+03  0.00000000000E+00 0. -1.
         22    1    3    3    0    0  0.11789772505E-01 -0.19604608052E+00 -0.61590596311E+01  0.61621902440E+01  0.00000000000E+00 0. -1.
</event>
<event>
 7    1  0.6358809E-006  0.7454216E+02  0.7818608E-02  0.1374193E+00
          2   -1    0    0  502    0  0.00000000000E+00  0.00000000000E+00  0.47156275220E+03  0.47156275220E+03  0.00000000000E+00 0. -1.
          1   -1    0    0  501    0 -0.00000000000E+00 -0.00000000000E+00 -0.59296548439E+03  0.59296548439E+03  0.00000000000E+00 0. -1.
         25    2    1    2    0    0  0.58617015059E+02 -0.23628055946E+02 -0.19133076365E+03  0.23712056289E+03  0.12499784296E+03 0.  0.
          2    1    1    2  501    0  0.81273205095E+01  0.57895946054E+02 -0.37331217555E+03  0.37786237484E+03  0.00000000000E+00 0. -1.
          1    1    1    2  502    0 -0.66744335568E+02 -0.34267890108E+02  0.44324020701E+03  0.44954529886E+03  0.00000000000E+00 0. -1.
         22    1    3    3    0    0  0.34667307092E+02 -0.12212103147E+02  0.66652816309E+01  0.37354834004E+02  0.00000000000E+00 0.  1.
         22    1    3    3    0    0  0.23949707967E+02 -0.11415952799E+02 -0.19799604528E+03  0.19976572888E+03  0.00000000000E+00 0.  1.
</event>
<event>
 7    1  0.6358809E-006  0.7561167E+02  0.7818608E-02  0.1426293E+00
          2   -1    0    0  502    0  0.00000000000E+00  0.00000000000E+00  0.53125240487E+03  0.53125240487E+03  0.00000000000E+00 0. -1.
          1   -1    0    0  501    0 -0.00000000000E+00 -0.00000000000E+00 -0.46459384707E+03  0.46459384707E+03  0.00000000000E+00 0. -1.
         25    2    1    2    0    0  0.23287172233E+02 -0.50616400615E+02 -0.29470429139E+03  0.32493143658E+03  0.12500202684E+03 0.  0.
          2    1    1    2  501    0  0.37744950012E+02  0.55735819787E+01 -0.14958136404E+03  0.15437075674E+03  0.00000000000E+00 0. -1.
          1    1    1    2  502    0 -0.61032122245E+02  0.45042818636E+02  0.51094421324E+03  0.51654405862E+03  0.00000000000E+00 0. -1.
         22    1    3    3    0    0 -0.59174964752E+00  0.39867783046E+02 -0.12407612044E+03  0.13032526216E+03  0.00000000000E+00 0. -1.
         22    1    3    3    0    0  0.23878921881E+02 -0.90484183661E+02 -0.17062817095E+03  0.19460617443E+03  0.00000000000E+00 0. -1.
</event>
<event>
 7    1  0.6358809E-006  0.7875218E+02  0.7818608E-02  0.1388408E+00
          2   -1    0    0  502    0  0.00000000000E+00  0.00000000000E+00  0.28533908898E+03  0.28533908898E+03  0.00000000000E+00 0. -1.
          1   -1    0    0  501    0 -0.00000000000E+00 -0.00000000000E+00 -0.13635020689E+04  0.13635020689E+04  0.00000000000E+00 0. -1.
         25    2    1    2    0    0  0.75666689417E+02  0.59080675817E+02 -0.27128241534E+03  0.31374536618E+03  0.12500412706E+03 0.  0.
          2    1    1    2  501    0 -0.77814531011E+02 -0.98356236054E+01 -0.10672365463E+04  0.10701148006E+04  0.00000000000E+00 0. -1.
          1    1    1    2  502    0  0.21478415946E+01 -0.49245052211E+02  0.26035598175E+03  0.26498099106E+03  0.00000000000E+00 0. -1.
         22    1    3    3    0    0  0.13791101295E+02 -0.28238330584E+02 -0.12706420780E+02  0.33897653578E+02  0.00000000000E+00 0. -1.
         22    1    3    3    0    0  0.61875588122E+02  0.87319006400E+02 -0.25857599456E+03  0.27984771260E+03  0.00000000000E+00 0. -1.
</event>
<event>
 7    1  0.6358809E-006  0.5522674E+02  0.7818608E-02  0.1547293E+00
          2   -1    0    0  502    0  0.00000000000E+00  0.00000000000E+00  0.31447720787E+04  0.31447720787E+04  0.00000000000E+00 0. -1.
          1   -1    0    0  501    0 -0.00000000000E+00 -0.00000000000E+00 -0.15594941416E+02  0.15594941416E+02  0.00000000000E+00 0. -1.
         25    2    1    2    0    0 -0.47669292259E+02 -0.27266000298E+02  0.65416038227E+03  0.66825626991E+03  0.12499936138E+03 0.  0.
          2    1    1    2  501    0 -0.74186227789E+01  0.21102884420E+02  0.69530158295E+01  0.23424605096E+02  0.00000000000E+00 0. -1.
          1    1    1    2  502    0  0.55087915038E+02  0.61631158780E+01  0.24680637392E+04  0.24686861451E+04  0.00000000000E+00 0. -1.
         22    1    3    3    0    0 -0.78303446783E+02 -0.12935532306E+02  0.24137827058E+03  0.25409098229E+03  0.00000000000E+00 0.  1.
         22    1    3    3    0    0  0.30634154524E+02 -0.14330467992E+02  0.41278211169E+03  0.41416528762E+03  0.00000000000E+00 0.  1.
</event>
<event>
 7    1  0.6358809E-006  0.1696802E+03  0.7818608E-02  0.1316831E+00
          2   -1    0    0  502    0  0.00000000000E+00  0.00000000000E+00  0.32461430613E+04  0.32461430613E+04  0.00000000000E+00 0. -1.
          1   -1    0    0  501    0 -0.00000000000E+00 -0.00000000000E+00 -0.13913771292E+03  0.13913771292E+03  0.00000000000E+00 0. -1.
         25    2    1    2    0    0 -0.15849960720E+03 -0.12729543369E+03  0.24426721423E+03  0.34149281518E+03  0.12499847181E+03 0.  0.
          2    1    1    2  501    0  0.12367188534E+03  0.10373489458E+03 -0.18292179221E+02  0.16245081532E+03  0.00000000000E+00 0. -1.
          1    1    1    2  502    0  0.34827721859E+02  0.23560539116E+02  0.28810303134E+04  0.28813371437E+04  0.00000000000E+00 0. -1.
         22    1    3    3    0    0 -0.70409126980E+02 -0.96061912490E+00  0.27528521145E+02  0.75605472207E+02  0.00000000000E+00 0.  1.
         22    1    3    3    0    0 -0.88090480218E+02 -0.12633481457E+03  0.21673869308E+03  0.26588734298E+03  0.00000000000E+00 0.  1.
</event>
<event>
 7    1  0.6358809E-006  0.2383035E+03  0.7818608E-02  0.1277806E+00
          2   -1    0    0  502    0  0.00000000000E+00  0.00000000000E+00  0.56380622860E+03  0.56380622860E+03  0.00000000000E+00 0. -1.
          1   -1    0    0  501    0 -0.00000000000E+00 -0.00000000000E+00 -0.85827231242E+03  0.85827231242E+03  0.00000000000E+00 0. -1.
         25    2    1    2    0    0  0.15897538429E+03  0.17698990048E+03 -0.10356846534E+03  0.28800986313E+03  0.12499862625E+03 0.  0.
          2    1    1    2  501    0 -0.18911131613E+03 -0.14635776266E+03 -0.63984448498E+03  0.68307001804E+03  0.00000000000E+00 0. -1.
          1    1    1    2  502    0  0.30135931848E+02 -0.30632137820E+02  0.44894686650E+03  0.45099865986E+03  0.00000000000E+00 0. -1.
         22    1    3    3    0    0  0.46617546290E+02  0.27422567028E+02 -0.84019833454E+02  0.99922596134E+02  0.00000000000E+00 0. -1.
         22    1    3    3    0    0  0.11235783800E+03  0.14956733346E+03 -0.19548631885E+02  0.18808726699E+03  0.00000000000E+00 0. -1.
</event>
<event>
 7    1  0.6358809E-006  0.1782183E+03  0.7818608E-02  0.1232029E+00
          2   -1    0    0  502    0  0.00000000000E+00  0.00000000000E+00  0.10674762816E+04  0.10674762816E+04  0.00000000000E+00 0. -1.
          1   -1    0    0  501    0 -0.00000000000E+00 -0.00000000000E+00 -0.11964315802E+03  0.11964315802E+03  0.00000000000E+00 0. -1.
         25    2    1    2    0    0  0.17175294423E+03  0.16907420838E+03  0.56853554347E+03  0.63003383251E+03  0.12499921653E+03 0.  0.
          2    1    1    2  501    0 -0.55766540851E+02 -0.71216477862E+02 -0.48877405266E+02  0.10281388303E+03  0.00000000000E+00 0. -1.
          1    1    1    2  502    0 -0.11598640338E+03 -0.97857730520E+02  0.42817498538E+03  0.45427172408E+03  0.00000000000E+00 0. -1.
         22    1    3    3    0    0  0.15161036030E+03  0.73064794494E+02  0.29769212962E+03  0.34197188420E+03  0.00000000000E+00 0.  1.
         22    1    3    3    0    0  0.20142583933E+02  0.96009413888E+02  0.27084341384E+03  0.28806194831E+03  0.00000000000E+00 0.  1.
</event>
<event>
 7    1  0.6358809E-006  0.1153858E+03  0.7818608E-02  0.1372439E+00
          2   -1    0    0  502    0  0.00000000000E+00  0.00000000000E+00  0.31061386951E+03  0.31061386951E+03  0.00000000000E+00 0. -1.
          1   -1    0    0  501    0 -0.00000000000E+00 -0.00000000000E+00 -0.62279588670E+03  0.62279588670E+03  0.00000000000E+00 0. -1.
         25    2    1    2    0    0 -0.20232384143E+02  0.13375559679E+03 -0.92564342981E+01  0.18441865625E+03  0.12499860063E+03 0.  0.
          2    1    1    2  501    0  0.31806057579E+02 -0.21370465077E+02 -0.51088692814E+03  0.51232194509E+03  0.00000000000E+00 0. -1.
          1    1    1    2  502    0 -0.11573673436E+02 -0.11238513171E+03  0.20796134525E+03  0.23666915486E+03  0.00000000000E+00 0. -1.
         22    1    3    3    0    0 -0.18139206231E+02 -0.47713660062E+01 -0.38497629766E+02  0.42823641063E+02  0.00000000000E+00 0.  1.
         22    1    3    3    0    0 -0.20931779121E+01  0.13852696279E+03  0.29241195468E+02  0.14159501519E+03  0.00000000000E+00 0.  1.
</event>
<event>
 7    1  0.6358809E-006  0.1508872E+03  0.7818608E-02  0.1282067E+00
          2   -1    0    0  502    0  0.00000000000E+00  0.00000000000E+00  0.15080460401E+04  0.15080460401E+04  0.00000000000E+00 0. -1.
          1   -1    0    0  501    0 -0.00000000000E+00 -0.00000000000E+00 -0.29873028180E+03  0.29873028180E+03  0.00000000000E+00 0. -1.
         25    2    1    2    0    0  0.91885285164E+02 -0.22901769608E+02  0.23879440075E+03  0.28568506802E+03  0.12500318227E+03 0.  0.
          2    1    1    2  501    0 -0.14144253599E+03  0.65223429473E+02 -0.25231583083E+03  0.29651874346E+03  0.00000000000E+00 0. -1.
          1    1    1    2  502    0  0.49557250831E+02 -0.42321659865E+02  0.12228371884E+04  0.12245725105E+04  0.00000000000E+00 0. -1.
         22    1    3    3    0    0  0.36352283134E+02  0.21717707094E+02  0.66603673853E+01  0.42866161295E+02  0.00000000000E+00 0.  1.
         22    1    3    3    0    0  0.55533002030E+02 -0.44619476702E+02  0.23213403336E+03  0.24281890672E+03  0.00000000000E+00 0.  1.
</event>
<event>
 7    1  0.6358809E-006  0.6398465E+02  0.7818608E-02  0.1509240E+00
          2   -1    0    0  502    0  0.00000000000E+00  0.00000000000E+00  0.31354429720E+03  0.31354429720E+03  0.00000000000E+00 0. -1.
          1   -1    0    0  501    0 -0.00000000000E+00 -0.00000000000E+00 -0.53781407721E+03  0.53781407721E+03  0.00000000000E+00 0. -1.
         25    2    1    2    0    0  0.14050242199E+02  0.61396991213E+02  0.99247020360E+02  0.17159059908E+03  0.12500545110E+03 0.  0.
          2    1    1    2  501    0 -0.37124355694E+02 -0.52220043915E+02 -0.49871733728E+03  0.50281620228E+03  0.00000000000E+00 0. -1.
          1    1    1    2  502    0  0.23074113496E+02 -0.91769472974E+01  0.17520053690E+03  0.17695157305E+03  0.00000000000E+00 0. -1.
         22    1    3    3    0    0  0.40071011672E+02 -0.73377359754E+01 -0.80607519333E+01  0.41527148559E+02  0.00000000000E+00 0.  1.
         22    1    3    3    0    0 -0.26020769474E+02  0.68734727188E+02  0.10730777229E+03  0.13006345052E+03  0.00000000000E+00 0.  1.
</event>
<event>
 7    1  0.7001314E-006  0.1457098E+03  0.7818608E-02  0.1337230E+00
          2   -1    0    0  502    0  0.00000000000E+00  0.00000000000E+00  0.17032568180E+04  0.17032568180E+04  0.00000000000E+00 0. -1.
          1   -1    0    0  501    0 -0.00000000000E+00 -0.00000000000E+00 -0.85162565278E+03  0.85162565278E+03  0.00000000000E+00 0. -1.
         25    2    1    2    0    0  0.26791072872E+00 -0.15301596490E+03 -0.21002915093E+03  0.28835997293E+03  0.12500108981E+03 0.  0.
          2    1    1    2  501    0  0.38870539064E+02  0.12685180725E+02 -0.59854366578E+03  0.59993862391E+03  0.00000000000E+00 0. -1.
          1    1    1    2  502    0 -0.39138449793E+02  0.14033078418E+03  0.16602039819E+04  0.16665838739E+04  0.00000000000E+00 0. -1.
         22    1    3    3    0    0 -0.45028198120E+02 -0.65774793020E+02 -0.33824608787E+02  0.86590797331E+02  0.00000000000E+00 0.  1.
         22    1    3    3    0    0  0.45296108849E+02 -0.87241171884E+02 -0.17620454215E+03  0.20176917560E+03  0.00000000000E+00 0.  1.
</event>
<event>
 7    1  0.6358809E-006  0.8247974E+02  0.7818608E-02  0.1343925E+00
          2   -1    0    0  502    0  0.00000000000E+00  0.00000000000E+00  0.19414436133E+03  0.19414436133E+03  0.00000000000E+00 0. -1.
          1   -1    0    0  501    0 -0.00000000000E+00 -0.00000000000E+00 -0.14130405914E+04  0.14130405914E+04  0.00000000000E+00 0. -1.
         25    2    1    2    0    0 -0.22922367916E+02  0.53135880112E+02 -0.61122264951E+03  0.62655102189E+03  0.12499679618E+03 0.  0.
          2    1    1    2  501    0 -0.58345322528E+02 -0.35250045328E+02 -0.78331629760E+03  0.78627677344E+03  0.00000000000E+00 0. -1.
          1    1    1    2  502    0  0.81267690444E+02 -0.17885834784E+02  0.17564271702E+03  0.19435715742E+03  0.00000000000E+00 0. -1.
         22    1    3    3    0    0 -0.64762271414E+02 -0.43891646921E+01 -0.24295921854E+03  0.25148081127E+03  0.00000000000E+00 0.  1.
         22    1    3    3    0    0  0.41839903498E+02  0.57525044804E+02 -0.36826343098E+03  0.37507021062E+03  0.00000000000E+00 0.  1.
</event>
<event>
 7    1  0.7888276E-006  0.8362197E+02  0.7818608E-02  0.1480123E+00
          2   -1    0    0  502    0  0.00000000000E+00  0.00000000000E+00  0.13066125328E+04  0.13066125328E+04  0.00000000000E+00 0. -1.
          1   -1    0    0  501    0 -0.00000000000E+00 -0.00000000000E+00 -0.16950341099E+04  0.16950341099E+04  0.00000000000E+00 0. -1.
         25    2    1    2    0    0  0.68136391911E+02  0.76341820199E+02 -0.50133787976E+03  0.52672110766E+03  0.12499925666E+03 0.  0.
          2    1    1    2  501    0 -0.38631401590E+01 -0.22920234375E+02 -0.11795404371E+04  0.11797694283E+04  0.00000000000E+00 0. -1.
          1    1    1    2  502    0 -0.64273251752E+02 -0.53421585824E+02  0.12924567397E+04  0.12951561067E+04  0.00000000000E+00 0. -1.
         22    1    3    3    0    0  0.47742852471E+02  0.86998460467E+02 -0.18839796979E+03  0.21293639216E+03  0.00000000000E+00 0.  1.
         22    1    3    3    0    0  0.20393539440E+02 -0.10656640268E+02 -0.31293990997E+03  0.31378471550E+03  0.00000000000E+00 0.  1.
</event>
<event>
 7    1  0.6358809E-006  0.6929339E+02  0.7818608E-02  0.1437687E+00
          2   -1    0    0  502    0  0.00000000000E+00  0.00000000000E+00  0.14334615848E+04  0.14334615848E+04  0.00000000000E+00 0. -1.
          1   -1    0    0  501    0 -0.00000000000E+00 -0.00000000000E+00 -0.14420489967E+04  0.14420489967E+04  0.00000000000E+00 0. -1.
         25    2    1    2    0    0 -0.11191952374E+02  0.84555831110E+02  0.26021567852E+03  0.30101857343E+03  0.12500013533E+03 0.  0.
          2    1    1    2  501    0 -0.22015755357E+02 -0.65679655310E+02 -0.14204868956E+04  0.14221749299E+04  0.00000000000E+00 0. -1.
          1    1    1    2  502    0  0.33207707731E+02 -0.18876175800E+02  0.11516838052E+04  0.11523170783E+04  0.00000000000E+00 0. -1.
         22    1    3    3    0    0  0.10881116279E+02  0.11379680465E+03  0.18764428139E+03  0.21972366231E+03  0.00000000000E+00 0. -1.
         22    1    3    3    0    0 -0.22073068653E+02 -0.29240973540E+02  0.72571397126E+02  0.81294911121E+02  0.00000000000E+00 0. -1.
</event>
<event>
 7    1  0.6358809E-006  0.1090848E+03  0.7818608E-02  0.1373447E+00
          2   -1    0    0  502    0  0.00000000000E+00  0.00000000000E+00  0.55855036549E+03  0.55855036549E+03  0.00000000000E+00 0. -1.
          1   -1    0    0  501    0 -0.00000000000E+00 -0.00000000000E+00 -0.35880533289E+03  0.35880533289E+03  0.00000000000E+00 0. -1.
         25    2    1    2    0    0 -0.31252065540E+02  0.75548080515E+02  0.19183970231E+03  0.24312780271E+03  0.12499781196E+03 0.  0.
          2    1    1    2  501    0  0.10373559115E+02 -0.10989704827E+03 -0.32276721525E+03  0.34112116203E+03  0.00000000000E+00 0. -1.
          1    1    1    2  502    0  0.20878506425E+02  0.34348967756E+02  0.33067254554E+03  0.33310673364E+03  0.00000000000E+00 0. -1.
         22    1    3    3    0    0  0.24451407363E+02 -0.14000842434E+02  0.50529471379E+01  0.28625638607E+02  0.00000000000E+00 0. -1.
         22    1    3    3    0    0 -0.55703472903E+02  0.89548922949E+02  0.18678675518E+03  0.21450216410E+03  0.00000000000E+00 0. -1.
</event>
<event>
 7    1  0.6358809E-006  0.6671573E+02  0.7818608E-02  0.1375310E+00
          2   -1    0    0  502    0  0.00000000000E+00  0.00000000000E+00  0.62617257860E+03  0.62617257860E+03  0.00000000000E+00 0. -1.
          1   -1    0    0  501    0 -0.00000000000E+00 -0.00000000000E+00 -0.19458808907E+04  0.19458808907E+04  0.00000000000E+00 0. -1.
         25    2    1    2    0    0  0.65429994833E+02 -0.11321539272E+03 -0.19589047847E+03  0.26663956521E+03  0.12499907523E+03 0.  0.
          2    1    1    2  501    0 -0.35194522077E+02  0.54320277881E+02 -0.17121478385E+04  0.17133708203E+04  0.00000000000E+00 0. -1.
          1    1    1    2  502    0 -0.30235472756E+02  0.58895114842E+02  0.58833000490E+03  0.59204308376E+03  0.00000000000E+00 0. -1.
         22    1    3    3    0    0  0.37193508340E+02 -0.12537414023E+03 -0.96283728595E+02  0.16239639311E+03  0.00000000000E+00 0. -1.
         22    1    3    3    0    0  0.28236486493E+02  0.12158747508E+02 -0.99606749873E+02  0.10424317211E+03  0.00000000000E+00 0. -1.
</event>
<event>
 7    1  0.6358809E-006  0.4974165E+02  0.7818608E-02  0.1479972E+00
          2   -1    0    0  502    0  0.00000000000E+00  0.00000000000E+00  0.25740688370E+04  0.25740688370E+04  0.00000000000E+00 0. -1.
          1   -1    0    0  501    0 -0.00000000000E+00 -0.00000000000E+00 -0.13413726841E+02  0.13413726841E+02  0.00000000000E+00 0. -1.
         25    2    1    2    0    0 -0.55612242262E+02 -0.58268406182E+02  0.18338969531E+04  0.18399160318E+04  0.12500016320E+03 0.  0.
          2    1    1    2  501    0  0.20333531271E+02  0.33416813526E+02  0.29549153702E+02  0.49023345507E+02  0.00000000000E+00 0. -1.
          1    1    1    2  502    0  0.35278710991E+02  0.24851592656E+02  0.69720900340E+03  0.69854318659E+03  0.00000000000E+00 0. -1.
         22    1    3    3    0    0 -0.45658577959E+02 -0.57030197810E+02  0.18251381301E+04  0.18265996669E+04  0.00000000000E+00 0. -1.
         22    1    3    3    0    0 -0.99536643039E+01 -0.12382083719E+01  0.87588229698E+01  0.13316364852E+02  0.00000000000E+00 0. -1.
</event>
<event>
 7    1  0.6358809E-006  0.1657684E+03  0.7818608E-02  0.1330875E+00
          2   -1    0    0  502    0  0.00000000000E+00  0.00000000000E+00  0.32522802760E+04  0.32522802760E+04  0.00000000000E+00 0. -1.
          1   -1    0    0  501    0 -0.00000000000E+00 -0.00000000000E+00 -0.23891247164E+02  0.23891247164E+02  0.00000000000E+00 0. -1.
         25    2    1    2    0    0  0.38431241160E+02  0.17965838766E+03  0.12774163578E+04  0.12965996311E+04  0.12499582263E+03 0.  0.
          2    1    1    2  501    0 -0.60054320183E+02 -0.14841811315E+03  0.44172678365E+03  0.46984785737E+03  0.00000000000E+00 0. -1.
          1    1    1    2  502    0  0.21623079024E+02 -0.31240274515E+02  0.15092458874E+04  0.15097240347E+04  0.00000000000E+00 0. -1.
         22    1    3    3    0    0  0.34419711789E+02  0.21962550047E+02  0.90972994120E+02  0.99715374057E+02  0.00000000000E+00 0. -1.
         22    1    3    3    0    0  0.40115293706E+01  0.15769583761E+03  0.11864433636E+04  0.11968842570E+04  0.00000000000E+00 0. -1.
</event>
<event>
 7    1  0.6358809E-006  0.9190613E+02  0.7818608E-02  0.1414692E+00
          2   -1    0    0  502    0  0.00000000000E+00  0.00000000000E+00  0.17347410631E+03  0.17347410631E+03  0.00000000000E+00 0. -1.
          1   -1    0    0  501    0 -0.00000000000E+00 -0.00000000000E+00 -0.56325804487E+03  0.56325804487E+03  0.00000000000E+00 0. -1.
         25    2    1    2    0    0 -0.66780897657E+02 -0.21668405565E+02 -0.41056995571E+02  0.14913021144E+03  0.12499973995E+03 0.  0.
          2    1    1    2  501    0  0.76666337007E+02  0.54530623247E+02 -0.46084463594E+03  0.47034997032E+03  0.00000000000E+00 0. -1.
          1    1    1    2  502    0 -0.98854393498E+01 -0.32862217682E+02  0.11211769294E+03  0.11725196942E+03  0.00000000000E+00 0. -1.
         22    1    3    3    0    0  0.20411779232E+02 -0.40696752457E+02  0.95725792256E+01  0.46524194405E+02  0.00000000000E+00 0. -1.
         22    1    3    3    0    0 -0.87192676889E+02  0.19028346893E+02 -0.50629574797E+02  0.10260601704E+03  0.00000000000E+00 0. -1.
</event>
<event>
 7    1  0.6358809E-006  0.8789790E+02  0.7818608E-02  0.1346694E+00
          2   -1    0    0  502    0  0.00000000000E+00  0.00000000000E+00  0.14600968837E+04  0.14600968837E+04  0.00000000000E+00 0. -1.
          1   -1    0    0  501    0 -0.00000000000E+00 -0.00000000000E+00 -0.60009767250E+02  0.60009767250E+02  0.00000000000E+00 0. -1.
         25    2    1    2    0    0  0.94492128502E+02  0.23374995828E+02  0.86006596564E+03  0.87453612387E+03  0.12499925564E+03 0.  0.
          2    1    1    2  501    0 -0.39595444371E+02  0.48307275313E+02 -0.29400879918E+02  0.69034801391E+02  0.00000000000E+00 0. -1.
          1    1    1    2  502    0 -0.54896684130E+02 -0.71682271141E+02  0.56942203069E+03  0.57653572565E+03  0.00000000000E+00 0. -1.
         22    1    3    3    0    0  0.10213093656E+03  0.59961391580E+00  0.36872967334E+03  0.38261293724E+03  0.00000000000E+00 0. -1.
         22    1    3    3    0    0 -0.76388080584E+01  0.22775381912E+02  0.49133629230E+03  0.49192318663E+03  0.00000000000E+00 0. -1.
</event>
<event>
 7    1  0.6358809E-006  0.3834398E+02  0.7818608E-02  0.1557636E+00
          2   -1    0    0  502    0  0.00000000000E+00  0.00000000000E+00  0.80429945671E+02  0.80429945671E+02  0.00000000000E+00 0. -1.
          1   -1    0    0  501    0 -0.00000000000E+00 -0.00000000000E+00 -0.11887025460E+04  0.11887025460E+04  0.00000000000E+00 0. -1.
         25    2    1    2    0    0 -0.95139340742E+01 -0.37017048449E+01 -0.10107945651E+04  0.10185451271E+04  0.12499722229E+03 0.  0.
          2    1    1    2  501    0  0.37973699393E+02  0.29398063308E+02 -0.16559595770E+03  0.17241887710E+03  0.00000000000E+00 0. -1.
          1    1    1    2  502    0 -0.28459765319E+02 -0.25696358463E+02  0.68117922435E+02  0.78168487495E+02  0.00000000000E+00 0. -1.
         22    1    3    3    0    0 -0.25150335241E+02 -0.42070672389E+02 -0.17529138434E+03  0.18201524734E+03  0.00000000000E+00 0.  1.
         22    1    3    3    0    0  0.15636401167E+02  0.38368967544E+02 -0.83550318076E+03  0.83652987979E+03  0.00000000000E+00 0.  1.
</event>
<event>
 7    1  0.6358809E-006  0.6913168E+02  0.7818608E-02  0.1363807E+00
          2   -1    0    0  502    0  0.00000000000E+00  0.00000000000E+00  0.25837568185E+03  0.25837568185E+03  0.00000000000E+00 0. -1.
          1   -1    0    0  501    0 -0.00000000000E+00 -0.00000000000E+00 -0.93202153882E+02  0.93202153882E+02  0.00000000000E+00 0. -1.
         25    2    1    2    0    0 -0.21704533320E+02  0.42514644442E+02  0.70335122722E+02  0.15117400182E+03  0.12501186976E+03 0.  0.
          2    1    1    2  501    0  0.82795352489E+02 -0.10155710799E+02  0.46313292571E+00  0.83417164587E+02  0.00000000000E+00 0. -1.
          1    1    1    2  502    0 -0.61090819169E+02 -0.32358933643E+02  0.94375272325E+02  0.11698666932E+03  0.00000000000E+00 0. -1.
         22    1    3    3    0    0 -0.14399647116E+00  0.53665166379E+02 -0.20276000940E+02  0.57367996580E+02  0.00000000000E+00 0. -1.
         22    1    3    3    0    0 -0.21560536849E+02 -0.11150521937E+02  0.90611123662E+02  0.93806005245E+02  0.00000000000E+00 0. -1.
</event>
<event>
 7    1  0.6358809E-006  0.8793686E+02  0.7818608E-02  0.1360606E+00
          2   -1    0    0  502    0  0.00000000000E+00  0.00000000000E+00  0.12781015471E+04  0.12781015471E+04  0.00000000000E+00 0. -1.
          1   -1    0    0  501    0 -0.00000000000E+00 -0.00000000000E+00 -0.20788220382E+03  0.20788220382E+03  0.00000000000E+00 0. -1.
         25    2    1    2    0    0  0.63117602012E+02 -0.97732809700E+02  0.12827330601E+03  0.21357514091E+03  0.12499906402E+03 0.  0.
          2    1    1    2  501    0 -0.75099409842E+02  0.43559927692E+02 -0.15307596844E+03  0.17598193309E+03  0.00000000000E+00 0. -1.
          1    1    1    2  502    0  0.11981807830E+02  0.54172882009E+02  0.10950220057E+04  0.10964266769E+04  0.00000000000E+00 0. -1.
         22    1    3    3    0    0  0.18860581073E+02 -0.33376752599E+02 -0.22010964249E+02  0.44206466491E+02  0.00000000000E+00 0. -1.
         22    1    3    3    0    0  0.44257020939E+02 -0.64356057102E+02  0.15028427026E+03  0.16936867442E+03  0.00000000000E+00 0. -1.
</event>
<event>
 7    1  0.6358809E-006  0.1013335E+03  0.7818608E-02  0.1328569E+00
          2   -1    0    0  502    0  0.00000000000E+00  0.00000000000E+00  0.15748692113E+03  0.15748692113E+03  0.00000000000E+00 0. -1.
          1   -1    0    0  501    0 -0.00000000000E+00 -0.00000000000E+00 -0.10002009534E+04  0.10002009534E+04  0.00000000000E+00 0. -1.
         25    2    1    2    0    0  0.96291168306E+02 -0.10275343924E+03 -0.67912716313E+01  0.18841996491E+03  0.12500281373E+03 0.  0.
          2    1    1    2  501    0 -0.60267925984E+02  0.19767619925E+02 -0.87021200779E+03  0.87252044113E+03  0.00000000000E+00 0. -1.
          1    1    1    2  502    0 -0.36023242322E+02  0.82985819312E+02  0.34289247118E+02  0.96747468506E+02  0.00000000000E+00 0. -1.
         22    1    3    3    0    0 -0.19552261875E+02 -0.42817214755E+02 -0.30172625303E+02  0.55910572716E+02  0.00000000000E+00 0.  1.
         22    1    3    3    0    0  0.11584343018E+03 -0.59936224483E+02  0.23381353672E+02  0.13250939220E+03  0.00000000000E+00 0.  1.
</event>
<event>
 7    1  0.6358809E-006  0.6142309E+02  0.7818608E-02  0.1421199E+00
          2   -1    0    0  502    0  0.00000000000E+00  0.00000000000E+00  0.23780891808E+04  0.23780891808E+04  0.00000000000E+00 0. -1.
          1   -1    0    0  501    0 -0.00000000000E+00 -0.00000000000E+00 -0.10262620574E+03  0.10262620574E+03  0.00000000000E+00 0. -1.
         25    2    1    2    0    0 -0.64308460748E+02 -0.29857850837E+02  0.98561244585E+03  0.99603464269E+03  0.12500418654E+03 0.  0.
          2    1    1    2  501    0  0.40246462575E+02 -0.27658723228E+02 -0.90546793530E+02  0.10287616118E+03  0.00000000000E+00 0. -1.
          1    1    1    2  502    0  0.24061998173E+02  0.57516574065E+02  0.13803973227E+04  0.13818045827E+04  0.00000000000E+00 0. -1.
         22    1    3    3    0    0  0.25554318832E+02 -0.32029398388E+02  0.53360842096E+03  0.53517927136E+03  0.00000000000E+00 0.  1.
         22    1    3    3    0    0 -0.89862779580E+02  0.21715475510E+01  0.45200402488E+03  0.46085537133E+03  0.00000000000E+00 0.  1.
</event>
<event>
 7    1  0.6358809E-006  0.3556711E+03  0.7818608E-02  0.1273219E+00
          2   -1    0    0  502    0  0.00000000000E+00  0.00000000000E+00  0.18332056325E+03  0.18332056325E+03  0.00000000000E+00 0. -1.
          1   -1    0    0  501    0 -0.00000000000E+00 -0.00000000000E+00 -0.19382269367E+04  0.19382269367E+04  0.00000000000E+00 0. -1.
         25    2    1    2    0    0  0.21119225874E+03 -0.26419441896E+03 -0.52534735348E+03  0.63718947853E+03  0.12497891253E+03 0.  0.
          2    1    1    2  501    0 -0.21328943180E+03  0.29420616848E+03 -0.13303946686E+04  0.13791300248E+04  0.00000000000E+00 0. -1.
          1    1    1    2  502    0  0.20971730593E+01 -0.30011749525E+02  0.10083564857E+03  0.10522799660E+03  0.00000000000E+00 0. -1.
         22    1    3    3    0    0  0.18604415257E+03 -0.22171022503E+03 -0.50836475610E+03  0.58498083373E+03  0.00000000000E+00 0. -1.
         22    1    3    3    0    0  0.25148106172E+02 -0.42484193930E+02 -0.16982597382E+02  0.52208644799E+02  0.00000000000E+00 0. -1.
</event>
<event>
 7    1  0.6358809E-006  0.1149075E+03  0.7818608E-02  0.1283102E+00
          2   -1    0    0  502    0  0.00000000000E+00  0.00000000000E+00  0.77221792904E+02  0.77221792904E+02  0.00000000000E+00 0. -1.
          1   -1    0    0  501    0 -0.00000000000E+00 -0.00000000000E+00 -0.32887410548E+04  0.32887410548E+04  0.00000000000E+00 0. -1.
         25    2    1    2    0    0  0.92072247301E+02 -0.69342765486E+02 -0.52697937839E+03  0.55372960599E+03  0.12499397367E+03 0.  0.
          2    1    1    2  501    0  0.25069972223E+02  0.80946492091E+02 -0.26928890288E+04  0.26942219953E+04  0.00000000000E+00 0. -1.
          1    1    1    2  502    0 -0.11714221952E+03 -0.11603726604E+02  0.83491453178E+01  0.11801124647E+03  0.00000000000E+00 0. -1.
         22    1    3    3    0    0  0.11134862527E+03 -0.15092008148E+02 -0.35672829506E+03  0.37400716779E+03  0.00000000000E+00 0.  1.
         22    1    3    3    0    0 -0.19276377965E+02 -0.54250757339E+02 -0.17025108333E+03  0.17972243820E+03  0.00000000000E+00 0.  1.
</event>
<event>
 7    1  0.6358809E-006  0.1082235E+03  0.7818608E-02  0.1405337E+00
          2   -1    0    0  502    0  0.00000000000E+00  0.00000000000E+00  0.20860669710E+04  0.20860669710E+04  0.00000000000E+00 0. -1.
          1   -1    0    0  501    0 -0.00000000000E+00 -0.00000000000E+00 -0.71521828207E+03  0.71521828207E+03  0.00000000000E+00 0. -1.
         25    2    1    2    0    0 -0.60599388042E+02 -0.89858281812E+02  0.13050169791E+04  0.13154626597E+04  0.12500358686E+03 0.  0.
          2    1    1    2  501    0  0.32282871224E+02  0.10331076136E+03 -0.70555007389E+03  0.71380403750E+03  0.00000000000E+00 0. -1.
          1    1    1    2  502    0  0.28316516819E+02 -0.13452479551E+02  0.77138178370E+03  0.77201855583E+03  0.00000000000E+00 0. -1.
         22    1    3    3    0    0 -0.91807740038E+02 -0.68779750610E+02  0.70562615976E+03  0.71488991640E+03  0.00000000000E+00 0. -1.
         22    1    3    3    0    0  0.31208351996E+02 -0.21078531202E+02  0.59939081932E+03  0.60057274330E+03  0.00000000000E+00 0. -1.
</event>
<event>
 7    1  0.6358809E-006  0.1815804E+03  0.7818608E-02  0.1380757E+00
          2   -1    0    0  502    0  0.00000000000E+00  0.00000000000E+00  0.11556405656E+04  0.11556405656E+04  0.00000000000E+00 0. -1.
          1   -1    0    0  501    0 -0.00000000000E+00 -0.00000000000E+00 -0.30166621570E+04  0.30166621570E+04  0.00000000000E+00 0. -1.
         25    2    1    2    0    0 -0.75977401442E+02 -0.18196313650E+03 -0.14318211565E+04  0.14507302489E+04  0.12499312823E+03 0.  0.
          2    1    1    2  501    0 -0.82642035287E+01  0.21190324053E+02 -0.15681177768E+04  0.15682827196E+04  0.00000000000E+00 0. -1.
          1    1    1    2  502    0  0.84241604971E+02  0.16077281245E+03  0.11389173419E+04  0.11532897541E+04  0.00000000000E+00 0. -1.
         22    1    3    3    0    0 -0.56281180244E+00 -0.15170988760E+03 -0.97666958367E+03  0.98838235639E+03  0.00000000000E+00 0.  1.
         22    1    3    3    0    0 -0.75414589639E+02 -0.30253248901E+02 -0.45515157285E+03  0.46234789246E+03  0.00000000000E+00 0.  1.
</event>
<event>
 7    1  0.6358809E-006  0.5311887E+02  0.7818608E-02  0.1435840E+00
          2   -1    0    0  502    0  0.00000000000E+00  0.00000000000E+00  0.66075997280E+03  0.66075997280E+03  0.00000000000E+00 0. -1.
          1   -1    0    0  501    0 -0.00000000000E+00 -0.00000000000E+00 -0.26579672501E+02  0.26579672501E+02  0.00000000000E+00 0. -1.
         25    2    1    2    0    0 -0.28361387398E+02  0.50401350555E+02  0.30559318436E+03  0.33520755675E+03  0.12502898600E+03 0.  0.
          2    1    1    2  501    0 -0.22127276178E+02 -0.52302852405E+02  0.77895307737E+02  0.96399604191E+02  0.00000000000E+00 0. -1.
          1    1    1    2  502    0  0.50488663576E+02  0.19015018500E+01  0.25069180821E+03  0.25573248437E+03  0.00000000000E+00 0. -1.
         22    1    3    3    0    0 -0.87310032448E+01  0.46774303839E+02  0.31092528038E+03  0.31454506179E+03  0.00000000000E+00 0. -1.
         22    1    3    3    0    0 -0.19630384153E+02  0.36270467168E+01 -0.53320960189E+01  0.20662494957E+02  0.00000000000E+00 0. -1.
</event>
<event>
 7    1  0.6358809E-006  0.2615552E+02  0.7818608E-02  0.1684499E+00
          2   -1    0    0  502    0  0.00000000000E+00  0.00000000000E+00  0.17383284212E+04  0.17383284212E+04  0.00000000000E+00 0. -1.
          1   -1    0    0  501    0 -0.00000000000E+00 -0.00000000000E+00 -0.21497862452E+02  0.21497862452E+02  0.00000000000E+00 0. -1.
         25    2    1    2    0    0 -0.44062269494E+01 -0.43530401856E+01  0.53915813414E+03  0.55349395766E+03  0.12500281498E+03 0.  0.
          2    1    1    2  501    0 -0.20249083328E+02 -0.55795923821E+01 -0.64034218686E+01  0.21958165643E+02  0.00000000000E+00 0. -1.
          1    1    1    2  502    0  0.24655310278E+02  0.99326325677E+01  0.11840758465E+04  0.11843741604E+04  0.00000000000E+00 0. -1.
         22    1    3    3    0    0 -0.20911674933E+02  0.13104134832E+02  0.52505721096E+03  0.52563684353E+03  0.00000000000E+00 0.  1.
         22    1    3    3    0    0  0.16505447984E+02 -0.17457175017E+02  0.14100923189E+02  0.27857114127E+02  0.00000000000E+00 0.  1.
</event>
<event>
 7    1  0.6358809E-006  0.4136897E+02  0.7818608E-02  0.1589035E+00
          2   -1    0    0  502    0  0.00000000000E+00  0.00000000000E+00  0.33350799719E+03  0.33350799719E+03  0.00000000000E+00 0. -1.
          1   -1    0    0  501    0 -0.00000000000E+00 -0.00000000000E+00 -0.75780891109E+02  0.75780891109E+02  0.00000000000E+00 0. -1.
         25    2    1    2    0    0 -0.58033419278E+02  0.19067425986E+02  0.84868190940E+02  0.16296944954E+03  0.12499994865E+03 0.  0.
          2    1    1    2  501    0  0.22960424163E+02  0.10356445192E+01 -0.30943967030E+02  0.38545852344E+02  0.00000000000E+00 0. -1.
          1    1    1    2  502    0  0.35072995115E+02 -0.20103070505E+02  0.20380288217E+03  0.20777358641E+03  0.00000000000E+00 0. -1.
         22    1    3    3    0    0  0.25140123769E+02  0.22048474074E+02  0.71154647579E+02  0.78620257594E+02  0.00000000000E+00 0. -1.
         22    1    3    3    0    0 -0.83173543047E+02 -0.29810480877E+01  0.13713543361E+02  0.84349191947E+02  0.00000000000E+00 0. -1.
</event>
<event>
 7    1  0.6358809E-006  0.3206459E+02  0.7818608E-02  0.1611911E+00
          2   -1    0    0  502    0  0.00000000000E+00  0.00000000000E+00  0.11372457088E+03  0.11372457088E+03  0.00000000000E+00 0. -1.
          1   -1    0    0  501    0 -0.00000000000E+00 -0.00000000000E+00 -0.14473961538E+03  0.14473961538E+03  0.00000000000E+00 0. -1.
         25    2    1    2    0    0 -0.22201127970E+02 -0.30663444072E+01  0.73691522830E+01  0.12723846139E+03  0.12503211227E+03 0.  0.
          2    1    1    2  501    0 -0.30992602624E+01  0.25655841577E+02 -0.76179281701E+02  0.80443213397E+02  0.00000000000E+00 0. -1.
          1    1    1    2  502    0  0.25300388232E+02 -0.22589497170E+02  0.37795084927E+02  0.50782511475E+02  0.00000000000E+00 0. -1.
         22    1    3    3    0    0 -0.72149498407E+02 -0.89682397198E+01 -0.11323657027E+02  0.73581279226E+02  0.00000000000E+00 0.  1.
         22    1    3    3    0    0  0.49948370437E+02  0.59018953126E+01  0.18692809310E+02  0.53657182162E+02  0.00000000000E+00 0.  1.
</event>
<event>
 7    1  0.6358809E-006  0.1012708E+03  0.7818608E-02  0.1338200E+00
          2   -1    0    0  502    0  0.00000000000E+00  0.00000000000E+00  0.95276220923E+03  0.95276220923E+03  0.00000000000E+00 0. -1.
          1   -1    0    0  501    0 -0.00000000000E+00 -0.00000000000E+00 -0.24399459222E+03  0.24399459222E+03  0.00000000000E+00 0. -1.
         25    2    1    2    0    0  0.43401489940E+02  0.10043321378E+03  0.19331686536E+03  0.25489414039E+03  0.12501636938E+03 0.  0.
          2    1    1    2  501    0 -0.58334325352E+02  0.50380032408E+00 -0.20555504020E+03  0.21367269803E+03  0.00000000000E+00 0. -1.
          1    1    1    2  502    0  0.14932835411E+02 -0.10093701411E+03  0.72100579185E+03  0.72818996304E+03  0.00000000000E+00 0. -1.
         22    1    3    3    0    0 -0.11560769962E+02 -0.93998503587E+01  0.98802209657E+02  0.99919393623E+02  0.00000000000E+00 0. -1.
         22    1    3    3    0    0  0.54962259902E+02  0.10983306414E+03  0.94514655708E+02  0.15497474677E+03  0.00000000000E+00 0. -1.
</event>
<event>
 7    1  0.6358809E-006  0.1781623E+03  0.7818608E-02  0.1305044E+00
          2   -1    0    0  502    0  0.00000000000E+00  0.00000000000E+00  0.34947548364E+03  0.34947548364E+03  0.00000000000E+00 0. -1.
          1   -1    0    0  501    0 -0.00000000000E+00 -0.00000000000E+00 -0.16988143859E+03  0.16988143859E+03  0.00000000000E+00 0. -1.
         25    2    1    2    0    0 -0.44567946332E+02 -0.19028879201E+03  0.16466189761E+03  0.28448961142E+03  0.12499868909E+03 0.  0.
          2    1    1    2  501    0 -0.18963525825E+02  0.40323551223E+02 -0.43076843053E+02  0.61977564508E+02  0.00000000000E+00 0. -1.
          1    1    1    2  502    0  0.63531472156E+02  0.14996524079E+03  0.58008990487E+02  0.17288974630E+03  0.00000000000E+00 0. -1.
         22    1    3    3    0    0 -0.64323017960E+02 -0.16195378522E+03  0.77468505634E+02  0.19070356198E+03  0.00000000000E+00 0. -1.
         22    1    3    3    0    0  0.19755071628E+02 -0.28335006793E+02  0.87193391980E+02  0.93786049442E+02  0.00000000000E+00 0. -1.
</event>
<event>
 7    1  0.6358809E-006  0.5494909E+02  0.7818608E-02  0.1450313E+00
          2   -1    0    0  502    0  0.00000000000E+00  0.00000000000E+00  0.63168896028E+03  0.63168896028E+03  0.00000000000E+00 0. -1.
          1   -1    0    0  501    0 -0.00000000000E+00 -0.00000000000E+00 -0.16158242555E+03  0.16158242555E+03  0.00000000000E+00 0. -1.
         25    2    1    2    0    0  0.28988861462E+02 -0.75708839716E+02  0.35692310248E+03  0.38677114735E+03  0.12500254734E+03 0.  0.
          2    1    1    2  501    0  0.91032844236E+01  0.53976762700E+02 -0.13959602426E+03  0.14994469209E+03  0.00000000000E+00 0. -1.
          1    1    1    2  502    0 -0.38092145885E+02  0.21732077017E+02  0.25277945651E+03  0.25655554639E+03  0.00000000000E+00 0. -1.
         22    1    3    3    0    0  0.32864893173E+02  0.23295882548E+02  0.17541362233E+03  0.17997982733E+03  0.00000000000E+00 0. -1.
         22    1    3    3    0    0 -0.38760317114E+01 -0.99004722265E+02  0.18150948015E+03  0.20679132003E+03  0.00000000000E+00 0. -1.
</event>
<event>
 7    1  0.6358809E-006  0.7457649E+02  0.7818608E-02  0.1415300E+00
          2   -1    0    0  502    0  0.00000000000E+00  0.00000000000E+00  0.12771024185E+04  0.12771024185E+04  0.00000000000E+00 0. -1.
          1   -1    0    0  501    0 -0.00000000000E+00 -0.00000000000E+00 -0.15773323731E+03  0.15773323731E+03  0.00000000000E+00 0. -1.
         25    2    1    2    0    0 -0.15614822885E+02 -0.91816020118E+02  0.31056361006E+02  0.15894445311E+03  0.12499934949E+03 0.  0.
          2    1    1    2  501    0 -0.20420872678E+02  0.70062941053E+02 -0.79155995713E+02  0.10766382590E+03  0.00000000000E+00 0. -1.
          1    1    1    2  502    0  0.36035695563E+02  0.21753079065E+02  0.11674688159E+04  0.11682273768E+04  0.00000000000E+00 0. -1.
         22    1    3    3    0    0  0.43808354974E+02  0.24735529973E+01  0.28079366252E+01  0.43967885303E+02  0.00000000000E+00 0. -1.
         22    1    3    3    0    0 -0.59423177859E+02 -0.94289573116E+02  0.28248424381E+02  0.11497656781E+03  0.00000000000E+00 0. -1.
</event>
<event>
 7    1  0.6358809E-006  0.9101534E+02  0.7818608E-02  0.1309744E+00
          2   -1    0    0  502    0  0.00000000000E+00  0.00000000000E+00  0.42614272167E+03  0.42614272167E+03  0.00000000000E+00 0. -1.
          1   -1    0    0  501    0 -0.00000000000E+00 -0.00000000000E+00 -0.12510104027E+04  0.12510104027E+04  0.00000000000E+00 0. -1.
         25    2    1    2    0    0  0.49978219240E+02  0.46294567872E+02 -0.16636084172E+03  0.21895614326E+03  0.12499941441E+03 0.  0.
          2    1    1    2  501    0  0.38295901453E+02 -0.74279252120E+02 -0.10513096750E+04  0.10546260077E+04  0.00000000000E+00 0. -1.
          1    1    1    2  502    0 -0.88274120694E+02  0.27984684247E+02  0.39280283563E+03  0.40357097346E+03  0.00000000000E+00 0. -1.
         22    1    3    3    0    0 -0.33972989838E+02  0.37538219635E+02 -0.98129441532E+02  0.11042042052E+03  0.00000000000E+00 0. -1.
         22    1    3    3    0    0  0.83951209078E+02  0.87563482369E+01 -0.68231400185E+02  0.10853572274E+03  0.00000000000E+00 0. -1.
</event>
<event>
 7    1  0.6358809E-006  0.8452350E+02  0.7818608E-02  0.1351028E+00
          2   -1    0    0  502    0  0.00000000000E+00  0.00000000000E+00  0.71054064976E+03  0.71054064976E+03  0.00000000000E+00 0. -1.
          1   -1    0    0  501    0 -0.00000000000E+00 -0.00000000000E+00 -0.25719800122E+03  0.25719800122E+03  0.00000000000E+00 0. -1.
         25    2    1    2    0    0  0.90414611477E+01 -0.40368780020E+02  0.11056916925E+03  0.17195274425E+03  0.12502327242E+03 0.  0.
          2    1    1    2  501    0  0.59809538087E+02 -0.18457627309E+02 -0.21848205655E+03  0.22727136619E+03  0.00000000000E+00 0. -1.
          1    1    1    2  502    0 -0.68850999235E+02  0.58826407330E+02  0.56125553584E+03  0.56851454054E+03  0.00000000000E+00 0. -1.
         22    1    3    3    0    0 -0.47358262663E+02 -0.53427053278E+02  0.77113498422E+02  0.10508923210E+03  0.00000000000E+00 0.  1.
         22    1    3    3    0    0  0.56399723810E+02  0.13058273258E+02  0.33455670832E+02  0.66863512151E+02  0.00000000000E+00 0.  1.
</event>
<event>
 7    1  0.6358809E-006  0.9109112E+02  0.7818608E-02  0.1396066E+00
          2   -1    0    0  502    0  0.00000000000E+00  0.00000000000E+00  0.61773049524E+03  0.61773049524E+03  0.00000000000E+00 0. -1.
          1   -1    0    0  501    0 -0.00000000000E+00 -0.00000000000E+00 -0.37583688110E+03  0.37583688110E+03  0.00000000000E+00 0. -1.
         25    2    1    2    0    0  0.49277249107E+02  0.33291688626E+02  0.17726357560E+03  0.22490840022E+03  0.12499931778E+03 0.  0.
          2    1    1    2  501    0 -0.88566207893E+02 -0.25369566368E+02 -0.34499173450E+03  0.35708106216E+03  0.00000000000E+00 0. -1.
          1    1    1    2  502    0  0.39288958786E+02 -0.79221222579E+01  0.40962177304E+03  0.41157791395E+03  0.00000000000E+00 0. -1.
         22    1    3    3    0    0  0.18202327329E+02  0.16490110651E+02 -0.15428470214E+02  0.29004933418E+02  0.00000000000E+00 0. -1.
         22    1    3    3    0    0  0.31074921778E+02  0.16801577975E+02  0.19269204581E+03  0.19590346680E+03  0.00000000000E+00 0. -1.
</event>
<event>
 7    1  0.6358809E-006  0.5474017E+02  0.7818608E-02  0.1485128E+00
          2   -1    0    0  502    0  0.00000000000E+00  0.00000000000E+00  0.46700615249E+03  0.46700615249E+03  0.00000000000E+00 0. -1.
          1   -1    0    0  501    0 -0.00000000000E+00 -0.00000000000E+00 -0.11614642593E+04  0.11614642593E+04  0.00000000000E+00 0. -1.
         25    2    1    2    0    0 -0.20838266839E+02  0.52662178942E+01 -0.11269250112E+03  0.16966752961E+03  0.12500201751E+03 0.  0.
          2    1    1    2  501    0  0.54944867177E+02 -0.86911133266E+01 -0.10188544825E+04  0.10203719569E+04  0.00000000000E+00 0. -1.
          1    1    1    2  502    0 -0.34106600338E+02  0.34248954324E+01  0.43708887677E+03  0.43843092533E+03  0.00000000000E+00 0. -1.
         22    1    3    3    0    0 -0.39243620952E+02  0.54475361305E+02 -0.34555273721E+02  0.75509560432E+02  0.00000000000E+00 0.  1.
         22    1    3    3    0    0  0.18405354113E+02 -0.49209143411E+02 -0.78137227397E+02  0.94157969183E+02  0.00000000000E+00 0.  1.
</event>
<event>
 7    1  0.6358809E-006  0.4371237E+02  0.7818608E-02  0.1483804E+00
          2   -1    0    0  502    0  0.00000000000E+00  0.00000000000E+00  0.69085512952E+02  0.69085512952E+02  0.00000000000E+00 0. -1.
          1   -1    0    0  501    0 -0.00000000000E+00 -0.00000000000E+00 -0.67580815839E+03  0.67580815839E+03  0.00000000000E+00 0. -1.
         25    2    1    2    0    0  0.49888167957E+02  0.16837148807E+02 -0.17278706216E+03  0.21965798207E+03  0.12498776483E+03 0.  0.
          2    1    1    2  501    0 -0.36794714747E+02  0.24463695519E+02 -0.46802492981E+03  0.47010600757E+03  0.00000000000E+00 0. -1.
          1    1    1    2  502    0 -0.13093453211E+02 -0.41300844326E+02  0.34089346520E+02  0.55129681708E+02  0.00000000000E+00 0. -1.
         22    1    3    3    0    0  0.70374945624E+02  0.44507181108E+02 -0.62478204455E+02  0.10410114396E+03  0.00000000000E+00 0. -1.
         22    1    3    3    0    0 -0.20486777667E+02 -0.27670032301E+02 -0.11030885770E+03  0.11555683811E+03  0.00000000000E+00 0. -1.
</event>
<event>
 7    1  0.6358809E-006  0.1353778E+03  0.7818608E-02  0.1392010E+00
          2   -1    0    0  502    0  0.00000000000E+00  0.00000000000E+00  0.40505565519E+02  0.40505565519E+02  0.00000000000E+00 0. -1.
          1   -1    0    0  501    0 -0.00000000000E+00 -0.00000000000E+00 -0.16542199089E+04  0.16542199089E+04  0.00000000000E+00 0. -1.
         25    2    1    2    0    0  0.13034037630E+03 -0.54697170252E+02 -0.11261999216E+04  0.11418981787E+04  0.12499917187E+03 0.  0.
          2    1    1    2  501    0  0.18828776107E+01  0.27792702607E+02 -0.37805466247E+03  0.37907955281E+03  0.00000000000E+00 0. -1.
          1    1    1    2  502    0 -0.13222325391E+03  0.26904467644E+02 -0.10945975929E+03  0.17374774288E+03  0.00000000000E+00 0. -1.
         22    1    3    3    0    0  0.50280383130E+02  0.39222431775E+02 -0.45498133131E+03  0.45942847966E+03  0.00000000000E+00 0. -1.
         22    1    3    3    0    0  0.80059993171E+02 -0.93919602027E+02 -0.67121859031E+03  0.68246969906E+03  0.00000000000E+00 0. -1.
</event>
<event>
 7    1  0.6358809E-006  0.5175321E+02  0.7818608E-02  0.1523650E+00
          2   -1    0    0  502    0  0.00000000000E+00  0.00000000000E+00  0.20562609835E+03  0.20562609835E+03  0.00000000000E+00 0. -1.
          1   -1    0    0  501    0 -0.00000000000E+00 -0.00000000000E+00 -0.11297014021E+04  0.11297014021E+04  0.00000000000E+00 0. -1.
         25    2    1    2    0    0  0.29001970191E+02  0.75283031980E+01 -0.65074723480E+02  0.14407370187E+03  0.12499888924E+03 0.  0.
          2    1    1    2  501    0  0.23100258239E+02 -0.15588123229E+02 -0.10207492662E+04  0.10211296078E+04  0.00000000000E+00 0. -1.
          1    1    1    2  502    0 -0.52102228429E+02  0.80598200309E+01  0.16174868590E+03  0.17012419080E+03  0.00000000000E+00 0. -1.
         22    1    3    3    0    0  0.75536782519E+02 -0.11870238408E+02 -0.27745392919E+02  0.81341962734E+02  0.00000000000E+00 0.  1.
         22    1    3    3    0    0 -0.46534812329E+02  0.19398541606E+02 -0.37329330561E+02  0.62731739136E+02  0.00000000000E+00 0.  1.
</event>
<event>
 7    1  0.6358809E-006  0.1378175E+03  0.7818608E-02  0.1252302E+00
          2   -1    0    0  502    0  0.00000000000E+00  0.00000000000E+00  0.65776004346E+03  0.65776004346E+03  0.00000000000E+00 0. -1.
          1   -1    0    0  501    0 -0.00000000000E+00 -0.00000000000E+00 -0.52601167110E+03  0.52601167110E+03  0.00000000000E+00 0. -1.
         25    2    1    2    0    0 -0.10820740169E+03  0.54037898869E+02 -0.63838988307E+02  0.18528520715E+03  0.12500502096E+03 0.  0.
          2    1    1    2  501    0 -0.27750196715E+02 -0.91142497698E+02 -0.38727835613E+03  0.39882521664E+03  0.00000000000E+00 0. -1.
          1    1    1    2  502    0  0.13595759841E+03  0.37104598829E+02  0.58286571679E+03  0.59966129076E+03  0.00000000000E+00 0. -1.
         22    1    3    3    0    0 -0.15665853932E+02  0.42755843226E+02  0.28782956295E+02  0.53869654560E+02  0.00000000000E+00 0.  1.
         22    1    3    3    0    0 -0.92541547759E+02  0.11282055643E+02 -0.92621944602E+02  0.13141555259E+03  0.00000000000E+00 0.  1.
</event>
<event>
 7    1  0.6358809E-006  0.1506830E+03  0.7818608E-02  0.1346694E+00
          2   -1    0    0  502    0  0.00000000000E+00  0.00000000000E+00  0.11428157729E+04  0.11428157729E+04  0.00000000000E+00 0. -1.
          1   -1    0    0  501    0 -0.00000000000E+00 -0.00000000000E+00 -0.12434690328E+03  0.12434690328E+03  0.00000000000E+00 0. -1.
         25    2    1    2    0    0 -0.32665366194E+02 -0.13430620688E+03  0.69504215242E+03  0.71959183637E+03  0.12499453577E+03 0.  0.
          2    1    1    2  501    0  0.15590087776E+02 -0.32931453863E+02 -0.92251828553E+02  0.99186346650E+02  0.00000000000E+00 0. -1.
          1    1    1    2  502    0  0.17075278419E+02  0.16723766074E+03  0.41567854576E+03  0.44838449316E+03  0.00000000000E+00 0. -1.
         22    1    3    3    0    0 -0.54631518337E+02 -0.25828817659E+02  0.39874225931E+03  0.40329532601E+03  0.00000000000E+00 0.  1.
         22    1    3    3    0    0  0.21966152143E+02 -0.10847738922E+03  0.29629989311E+03  0.31629651036E+03  0.00000000000E+00 0.  1.
</event>
<event>
 7    1  0.6358809E-006  0.7133960E+02  0.7818608E-02  0.1443782E+00
          2   -1    0    0  502    0  0.00000000000E+00  0.00000000000E+00  0.73330285244E+03  0.73330285244E+03  0.00000000000E+00 0. -1.
          1   -1    0    0  501    0 -0.00000000000E+00 -0.00000000000E+00 -0.10200891071E+03  0.10200891071E+03  0.00000000000E+00 0. -1.
         25    2    1    2    0    0 -0.50147587660E+02  0.13789190028E+01  0.21532246413E+03  0.25397873446E+03  0.12499900814E+03 0.  0.
          2    1    1    2  501    0  0.64978114957E+02 -0.33579714700E+02 -0.65724976118E+02  0.98333743692E+02  0.00000000000E+00 0. -1.
          1    1    1    2  502    0 -0.14830527297E+02  0.32200795697E+02  0.48169645372E+03  0.48299928500E+03  0.00000000000E+00 0. -1.
         22    1    3    3    0    0  0.48216059298E+01  0.99171922494E+01 -0.14104822030E+02  0.17903759113E+02  0.00000000000E+00 0. -1.
         22    1    3    3    0    0 -0.54969193590E+02 -0.85382732466E+01  0.22942728616E+03  0.23607497535E+03  0.00000000000E+00 0. -1.
</event>
<event>
 7    1  0.6358809E-006  0.5368659E+02  0.7818608E-02  0.1460391E+00
          2   -1    0    0  502    0  0.00000000000E+00  0.00000000000E+00  0.84008031159E+03  0.84008031159E+03  0.00000000000E+00 0. -1.
          1   -1    0    0  501    0 -0.00000000000E+00 -0.00000000000E+00 -0.30305233201E+03  0.30305233201E+03  0.00000000000E+00 0. -1.
         25    2    1    2    0    0  0.40910474375E+02 -0.16569899437E+02 -0.48495505644E+02  0.14117919068E+03  0.12502608261E+03 0.  0.
          2    1    1    2  501    0 -0.19158732503E+02  0.52145268496E+02 -0.20394941784E+03  0.21138011045E+03  0.00000000000E+00 0. -1.
          1    1    1    2  502    0 -0.21751741872E+02 -0.35575369058E+02  0.78947290306E+03  0.79057334247E+03  0.00000000000E+00 0. -1.
         22    1    3    3    0    0  0.32529624181E+02 -0.64463320911E+02  0.42402625800E+00  0.72207174093E+02  0.00000000000E+00 0.  1.
         22    1    3    3    0    0  0.83808501943E+01  0.47893421474E+02 -0.48919531902E+02  0.68972016586E+02  0.00000000000E+00 0.  1.
</event>
<event>
 7    1  0.6358809E-006  0.7020937E+02  0.7818608E-02  0.1372187E+00
          2   -1    0    0  502    0  0.00000000000E+00  0.00000000000E+00  0.26255804836E+04  0.26255804836E+04  0.00000000000E+00 0. -1.
          1   -1    0    0  501    0 -0.00000000000E+00 -0.00000000000E+00 -0.56488934988E+02  0.56488934988E+02  0.00000000000E+00 0. -1.
         25    2    1    2    0    0  0.57949683309E+01  0.40425702647E+01  0.21982867308E+03  0.25298572074E+03  0.12500882112E+03 0.  0.
          2    1    1    2  501    0 -0.53636991546E+02  0.47343184391E+02 -0.69006443599E+01  0.71874354696E+02  0.00000000000E+00 0. -1.
          1    1    1    2  502    0  0.47842023215E+02 -0.51385754656E+02  0.23561635199E+04  0.23572093432E+04  0.00000000000E+00 0. -1.
         22    1    3    3    0    0 -0.32833301071E+02  0.53224523216E+02  0.11574873332E+03  0.13156232286E+03  0.00000000000E+00 0.  1.
         22    1    3    3    0    0  0.38628269402E+02 -0.49181952951E+02  0.10407993976E+03  0.12142339788E+03  0.00000000000E+00 0.  1.
</event>
<event>
 7    1  0.6358809E-006  0.9120055E+02  0.7818608E-02  0.1350106E+00
          2   -1    0    0  502    0  0.00000000000E+00  0.00000000000E+00  0.69799681385E+03  0.69799681385E+03  0.00000000000E+00 0. -1.
          1   -1    0    0  501    0 -0.00000000000E+00 -0.00000000000E+00 -0.16966305534E+03  0.16966305534E+03  0.00000000000E+00 0. -1.
         25    2    1    2    0    0 -0.14646699754E+02 -0.50939037278E+02  0.21326826217E+03  0.25281883381E+03  0.12499879897E+03 0.  0.
          2    1    1    2  501    0 -0.50398044959E+02 -0.29640202403E+02 -0.13811419978E+03  0.14998012107E+03  0.00000000000E+00 0. -1.
          1    1    1    2  502    0  0.65044744713E+02  0.80579239681E+02  0.45317969612E+03  0.46486091431E+03  0.00000000000E+00 0. -1.
         22    1    3    3    0    0  0.44927309149E+02 -0.33839135081E+02  0.40611986741E+02  0.69374949639E+02  0.00000000000E+00 0. -1.
         22    1    3    3    0    0 -0.59574008903E+02 -0.17099902197E+02  0.17265627543E+03  0.18344388417E+03  0.00000000000E+00 0. -1.
</event>
<event>
 7    1  0.6358809E-006  0.7169151E+02  0.7818608E-02  0.1513555E+00
          2   -1    0    0  502    0  0.00000000000E+00  0.00000000000E+00  0.22010998075E+03  0.22010998075E+03  0.00000000000E+00 0. -1.
          1   -1    0    0  501    0 -0.00000000000E+00 -0.00000000000E+00 -0.59538291904E+03  0.59538291904E+03  0.00000000000E+00 0. -1.
         25    2    1    2    0    0  0.20653895458E+02  0.46378028880E+02  0.12816101735E+03  0.18608723885E+03  0.12500283650E+03 0.  0.
          2    1    1    2  501    0 -0.33105284052E+02 -0.63936056380E+02 -0.56221556241E+03  0.56680694928E+03  0.00000000000E+00 0. -1.
          1    1    1    2  502    0  0.12451388595E+02  0.17558027499E+02  0.58781606763E+02  0.62598711658E+02  0.00000000000E+00 0. -1.
         22    1    3    3    0    0  0.37942540243E+02  0.67556034466E+02  0.28198467287E+02  0.82453670083E+02  0.00000000000E+00 0.  1.
         22    1    3    3    0    0 -0.17288644785E+02 -0.21178005586E+02  0.99962550068E+02  0.10363356877E+03  0.00000000000E+00 0.  1.
</event>
<event>
 7    1  0.6358809E-006  0.6681462E+02  0.7818608E-02  0.1405386E+00
          2   -1    0    0  502    0  0.00000000000E+00  0.00000000000E+00  0.10727095860E+04  0.10727095860E+04  0.00000000000E+00 0. -1.
          1   -1    0    0  501    0 -0.00000000000E+00 -0.00000000000E+00 -0.34407086018E+03  0.34407086018E+03  0.00000000000E+00 0. -1.
         25    2    1    2    0    0  0.20002041933E+02 -0.10686309610E+02 -0.41559051894E+02  0.13366463982E+03  0.12499920899E+03 0.  0.
          2    1    1    2  501    0 -0.70743358451E+02  0.12041366314E+02 -0.25079622514E+03  0.26086081310E+03  0.00000000000E+00 0. -1.
          1    1    1    2  502    0  0.50741316518E+02 -0.13550567042E+01  0.10209940029E+04  0.10222549933E+04  0.00000000000E+00 0. -1.
         22    1    3    3    0    0 -0.31484635266E+02  0.41743806968E+02 -0.80514306662E+01  0.52902298757E+02  0.00000000000E+00 0.  1.
         22    1    3    3    0    0  0.51486677199E+02 -0.52430116577E+02 -0.33507621228E+02  0.80762341061E+02  0.00000000000E+00 0.  1.
</event>
<event>
 7    1  0.6358809E-006  0.1479989E+03  0.7818608E-02  0.1270458E+00
          2   -1    0    0  502    0  0.00000000000E+00  0.00000000000E+00  0.14314441856E+03  0.14314441856E+03  0.00000000000E+00 0. -1.
          1   -1    0    0  501    0 -0.00000000000E+00 -0.00000000000E+00 -0.32983620639E+04  0.32983620639E+04  0.00000000000E+00 0. -1.
         25    2    1    2    0    0  0.10189190183E+03  0.11946631199E+03 -0.12834676010E+04  0.12990643479E+04  0.12499975178E+03 0.  0.
          2    1    1    2  501    0  0.35995064599E+02 -0.64942412648E+02 -0.19655735969E+04  0.19669755277E+04  0.00000000000E+00 0. -1.
          1    1    1    2  502    0 -0.13788696643E+03 -0.54523899342E+02  0.93823552534E+02  0.17546660685E+03  0.00000000000E+00 0. -1.
         22    1    3    3    0    0  0.12632394545E+03  0.79097631261E+02 -0.10775882233E+04  0.10878467509E+04  0.00000000000E+00 0.  1.
         22    1    3    3    0    0 -0.24432043622E+02  0.40368680729E+02 -0.20587937769E+03  0.21121759704E+03  0.00000000000E+00 0.  1.
</event>
<event>
 7    1  0.6358809E-006  0.4519939E+02  0.7818608E-02  0.1479664E+00
          2   -1    0    0  502    0  0.00000000000E+00  0.00000000000E+00  0.97257672269E+03  0.97257672269E+03  0.00000000000E+00 0. -1.
          1   -1    0    0  501    0 -0.00000000000E+00 -0.00000000000E+00 -0.17913279091E+03  0.17913279091E+03  0.00000000000E+00 0. -1.
         25    2    1    2    0    0 -0.31712533167E+02  0.28647262966E+02  0.53663854691E+03  0.55265909250E+03  0.12499916823E+03 0.  0.
          2    1    1    2  501    0 -0.12139214627E+02 -0.43538768513E+02 -0.16685382240E+03  0.17286753005E+03  0.00000000000E+00 0. -1.
          1    1    1    2  502    0  0.43851747794E+02  0.14891505547E+02  0.42365920726E+03  0.42618289105E+03  0.00000000000E+00 0. -1.
         22    1    3    3    0    0 -0.19875038637E+02  0.78141001522E+02  0.35374814519E+03  0.36282059410E+03  0.00000000000E+00 0.  1.
         22    1    3    3    0    0 -0.11837494530E+02 -0.49493738555E+02  0.18289040173E+03  0.18983849840E+03  0.00000000000E+00 0.  1.
</event>
<event>
 7    1  0.6358809E-006  0.7023686E+02  0.7818608E-02  0.1380636E+00
          2   -1    0    0  502    0  0.00000000000E+00  0.00000000000E+00  0.23698565888E+03  0.23698565888E+03  0.00000000000E+00 0. -1.
          1   -1    0    0  501    0 -0.00000000000E+00 -0.00000000000E+00 -0.25878392227E+03  0.25878392227E+03  0.00000000000E+00 0. -1.
         25    2    1    2    0    0 -0.60635904738E+02 -0.44650375988E+01 -0.13828803538E+03  0.19607689937E+03  0.12500368088E+03 0.  0.
          2    1    1    2  501    0  0.65975263348E+02 -0.54151792723E+02 -0.66032867977E+02  0.10791427932E+03  0.00000000000E+00 0. -1.
          1    1    1    2  502    0 -0.53393586099E+01  0.58616830322E+02  0.18252263997E+03  0.19177840245E+03  0.00000000000E+00 0. -1.
         22    1    3    3    0    0 -0.13991226289E+02  0.89418320079E+01  0.22590880866E+02  0.28036737881E+02  0.00000000000E+00 0. -1.
         22    1    3    3    0    0 -0.46644678449E+02 -0.13406869607E+02 -0.16087891624E+03  0.16804016148E+03  0.00000000000E+00 0. -1.
</event>
<event>
 7    1  0.6358809E-006  0.7561166E+02  0.7818608E-02  0.1367298E+00
          2   -1    0    0  502    0  0.00000000000E+00  0.00000000000E+00  0.16202386632E+04  0.16202386632E+04  0.00000000000E+00 0. -1.
          1   -1    0    0  501    0 -0.00000000000E+00 -0.00000000000E+00 -0.48456553903E+03  0.48456553903E+03  0.00000000000E+00 0. -1.
         25    2    1    2    0    0  0.96851096490E+02 -0.52748075859E+02  0.57150516415E+03  0.59531989266E+03  0.12500051019E+03 0.  0.
          2    1    1    2  501    0 -0.75391065856E+02 -0.43715252659E+01 -0.46873564837E+03  0.47477998178E+03  0.00000000000E+00 0. -1.
          1    1    1    2  502    0 -0.21460030634E+02  0.57119601125E+02  0.10329036084E+04  0.10347043278E+04  0.00000000000E+00 0. -1.
         22    1    3    3    0    0  0.98504363375E+02 -0.86313804012E+02  0.48893941157E+03  0.50617677796E+03  0.00000000000E+00 0. -1.
         22    1    3    3    0    0 -0.16532668856E+01  0.33565728152E+02  0.82565752582E+02  0.89143114693E+02  0.00000000000E+00 0. -1.
</event>
<event>
 7    1  0.6358809E-006  0.7918146E+02  0.7818608E-02  0.1480729E+00
          2   -1    0    0  502    0  0.00000000000E+00  0.00000000000E+00  0.56679450776E+03  0.56679450776E+03  0.00000000000E+00 0. -1.
          1   -1    0    0  501    0 -0.00000000000E+00 -0.00000000000E+00 -0.60052601028E+03  0.60052601028E+03  0.00000000000E+00 0. -1.
         25    2    1    2    0    0 -0.70106160625E+02 -0.75132297445E+02 -0.10578009610E+02  0.16216016228E+03  0.12499715224E+03 0.  0.
          2    1    1    2  501    0  0.16227081280E+02  0.18278478257E+02 -0.51073893725E+03  0.51132346216E+03  0.00000000000E+00 0. -1.
          1    1    1    2  502    0  0.53879079345E+02  0.56853819188E+02  0.48758544434E+03  0.49383689360E+03  0.00000000000E+00 0. -1.
         22    1    3    3    0    0  0.12928007703E+02 -0.48074953749E+02  0.37631657908E+02  0.62405738823E+02  0.00000000000E+00 0.  1.
         22    1    3    3    0    0 -0.83034168328E+02 -0.27057343697E+02 -0.48209667518E+02  0.99754423461E+02  0.00000000000E+00 0.  1.
</event>
<event>
 7    1  0.6358809E-006  0.8955481E+02  0.7818608E-02  0.1319305E+00
          2   -1    0    0  502    0  0.00000000000E+00  0.00000000000E+00  0.10017194660E+04  0.10017194660E+04  0.00000000000E+00 0. -1.
          1   -1    0    0  501    0 -0.00000000000E+00 -0.00000000000E+00 -0.94990421616E+03  0.94990421616E+03  0.00000000000E+00 0. -1.
         25    2    1    2    0    0 -0.88009864200E+02 -0.14156707910E+03 -0.32433663224E+03  0.38549483554E+03  0.12500017253E+03 0.  0.
          2    1    1    2  501    0  0.45551883569E+02  0.63221076987E+02 -0.59037881288E+03  0.59549896841E+03  0.00000000000E+00 0. -1.
          1    1    1    2  502    0  0.42457980631E+02  0.78346002116E+02  0.96653069498E+03  0.97062987823E+03  0.00000000000E+00 0. -1.
         22    1    3    3    0    0 -0.90730295636E+02 -0.15902924439E+03 -0.25487909996E+03  0.31382422264E+03  0.00000000000E+00 0.  1.
         22    1    3    3    0    0  0.27204314361E+01  0.17462165286E+02 -0.69457532277E+02  0.71670612901E+02  0.00000000000E+00 0.  1.
</event>
<event>
 7    1  0.6358809E-006  0.9156141E+02  0.7818608E-02  0.1384151E+00
          2   -1    0    0  502    0  0.00000000000E+00  0.00000000000E+00  0.31633326346E+03  0.31633326346E+03  0.00000000000E+00 0. -1.
          1   -1    0    0  501    0 -0.00000000000E+00 -0.00000000000E+00 -0.33358615131E+03  0.33358615131E+03  0.00000000000E+00 0. -1.
         25    2    1    2    0    0  0.12644919713E+03  0.35188518735E+02 -0.22313014857E+02  0.18262194120E+03  0.12500108589E+03 0.  0.
          2    1    1    2  501    0 -0.83722705793E+02 -0.25194772467E+02 -0.22066086263E+03  0.23735097287E+03  0.00000000000E+00 0. -1.
          1    1    1    2  502    0 -0.42726491333E+02 -0.99937462680E+01  0.22572098963E+03  0.22994650070E+03  0.00000000000E+00 0. -1.
         22    1    3    3    0    0  0.12520477010E+03  0.14172273778E+02  0.27122372380E+02  0.12889030563E+03  0.00000000000E+00 0. -1.
         22    1    3    3    0    0  0.12444270225E+01  0.21016244957E+02 -0.49435387237E+02  0.53731635578E+02  0.00000000000E+00 0. -1.
</event>
<event>
 7    1  0.6358809E-006  0.8586289E+02  0.7818608E-02  0.1318928E+00
          2   -1    0    0  502    0  0.00000000000E+00  0.00000000000E+00  0.18328954406E+04  0.18328954406E+04  0.00000000000E+00 0. -1.
          1   -1    0    0  501    0 -0.00000000000E+00 -0.00000000000E+00 -0.34091342571E+03  0.34091342571E+03  0.00000000000E+00 0. -1.
         25    2    1    2    0    0  0.11185821054E+02 -0.31383627562E+01  0.13399717476E+03  0.18361373270E+03  0.12499515223E+03 0.  0.
          2    1    1    2  501    0 -0.75574339692E+02 -0.46902596153E+02 -0.30883165761E+03  0.32138501379E+03  0.00000000000E+00 0. -1.
          1    1    1    2  502    0  0.64388518637E+02  0.50040958910E+02  0.16668164978E+04  0.16688101198E+04  0.00000000000E+00 0. -1.
         22    1    3    3    0    0  0.35394907140E+02  0.15809219570E+02 -0.69237315748E+01  0.39378533921E+02  0.00000000000E+00 0.  1.
         22    1    3    3    0    0 -0.24209086085E+02 -0.18947582326E+02  0.14092090634E+03  0.14423519878E+03  0.00000000000E+00 0.  1.
</event>
<event>
 7    1  0.6358809E-006  0.2262029E+03  0.7818608E-02  0.1273914E+00
          2   -1    0    0  502    0  0.00000000000E+00  0.00000000000E+00  0.68608566400E+03  0.68608566400E+03  0.00000000000E+00 0. -1.
          1   -1    0    0  501    0 -0.00000000000E+00 -0.00000000000E+00 -0.68937618019E+03  0.68937618019E+03  0.00000000000E+00 0. -1.
         25    2    1    2    0    0 -0.17999646327E+03 -0.43185535636E+02 -0.20673448394E+03  0.30434798412E+03  0.12499932526E+03 0.  0.
          2    1    1    2  501    0 -0.38693754028E+02 -0.26660737695E+02 -0.41177994650E+03  0.41445232038E+03  0.00000000000E+00 0. -1.
          1    1    1    2  502    0  0.21869021729E+03  0.69846273330E+02  0.61522391425E+03  0.65666153968E+03  0.00000000000E+00 0. -1.
         22    1    3    3    0    0 -0.39853540816E+02  0.16029584456E+02 -0.12386670971E+03  0.13110382934E+03  0.00000000000E+00 0. -1.
         22    1    3    3    0    0 -0.14014292245E+03 -0.59215120091E+02 -0.82867774222E+02  0.17324415478E+03  0.00000000000E+00 0. -1.
</event>
<event>
 7    1  0.6358809E-006  0.5013501E+02  0.7818608E-02  0.1448516E+00
          2   -1    0    0  502    0  0.00000000000E+00  0.00000000000E+00  0.54157767919E+03  0.54157767919E+03  0.00000000000E+00 0. -1.
          1   -1    0    0  501    0 -0.00000000000E+00 -0.00000000000E+00 -0.17294182884E+04  0.17294182884E+04  0.00000000000E+00 0. -1.
         25    2    1    2    0    0  0.54844111296E+02 -0.32318293387E+01 -0.15944514549E+03  0.20991864858E+03  0.12499905334E+03 0.  0.
          2    1    1    2  501    0 -0.23608693361E+02  0.42603662504E+02 -0.15431282915E+04  0.15438968122E+04  0.00000000000E+00 0. -1.
          1    1    1    2  502    0 -0.31235417936E+02 -0.39371833165E+02  0.51473282784E+03  0.51718050682E+03  0.00000000000E+00 0. -1.
         22    1    3    3    0    0 -0.30406617118E+02  0.39119584976E+01 -0.10290228487E+03  0.10737199828E+03  0.00000000000E+00 0.  1.
         22    1    3    3    0    0  0.85250728415E+02 -0.71437878363E+01 -0.56542860623E+02  0.10254665030E+03  0.00000000000E+00 0.  1.
</event>
<event>
 7    1  0.6358809E-006  0.3671395E+02  0.7818608E-02  0.1598421E+00
          2   -1    0    0  502    0  0.00000000000E+00  0.00000000000E+00  0.32533798677E+03  0.32533798677E+03  0.00000000000E+00 0. -1.
          1   -1    0    0  501    0 -0.00000000000E+00 -0.00000000000E+00 -0.31580591559E+03  0.31580591559E+03  0.00000000000E+00 0. -1.
         25    2    1    2    0    0  0.45444409513E+02  0.36536304045E+02  0.14517489881E+03  0.20026386703E+03  0.12501907583E+03 0.  0.
          2    1    1    2  501    0 -0.22128486465E+02 -0.29127598496E+02 -0.28610900231E+03  0.28843794499E+03  0.00000000000E+00 0. -1.
          1    1    1    2  502    0 -0.23315923048E+02 -0.74087055482E+01  0.15046617468E+03  0.15244209034E+03  0.00000000000E+00 0. -1.
         22    1    3    3    0    0  0.18444095986E+02  0.65738141789E+02  0.23425950005E+02  0.72183537571E+02  0.00000000000E+00 0. -1.
         22    1    3    3    0    0  0.27000313526E+02 -0.29201837744E+02  0.12174894880E+03  0.12808032945E+03  0.00000000000E+00 0. -1.
</event>
<event>
 7    1  0.6358809E-006  0.1448817E+03  0.7818608E-02  0.1286426E+00
          2   -1    0    0  502    0  0.00000000000E+00  0.00000000000E+00  0.21859126123E+03  0.21859126123E+03  0.00000000000E+00 0. -1.
          1   -1    0    0  501    0 -0.00000000000E+00 -0.00000000000E+00 -0.19470755518E+04  0.19470755518E+04  0.00000000000E+00 0. -1.
         25    2    1    2    0    0 -0.64746272921E+02  0.14569452090E+03 -0.22936974936E+03  0.30603127750E+03  0.12500275040E+03 0.  0.
          2    1    1    2  501    0 -0.37828629695E+00 -0.14473843957E+03 -0.16702579793E+04  0.16765175443E+04  0.00000000000E+00 0. -1.
          1    1    1    2  502    0  0.65124559218E+02 -0.95608132383E+00  0.17114343809E+03  0.18311799121E+03  0.00000000000E+00 0. -1.
         22    1    3    3    0    0  0.13387689900E+01  0.62194036277E+02 -0.17649897403E+03  0.18714106520E+03  0.00000000000E+00 0.  1.
         22    1    3    3    0    0 -0.66085041911E+02  0.83500484618E+02 -0.52870775334E+02  0.11889021230E+03  0.00000000000E+00 0.  1.
</event>
<event>
 7    1  0.6358809E-006  0.1542755E+03  0.7818608E-02  0.1326297E+00
          2   -1    0    0  502    0  0.00000000000E+00  0.00000000000E+00  0.53357621213E+03  0.53357621213E+03  0.00000000000E+00 0. -1.
          1   -1    0    0  501    0 -0.00000000000E+00 -0.00000000000E+00 -0.96496903862E+03  0.96496903862E+03  0.00000000000E+00 0. -1.
         25    2    1    2    0    0 -0.10757201848E+03  0.73815362318E+02  0.56611192608E+02  0.18932625049E+03  0.12497661830E+03 0.  0.
          2    1    1    2  501    0 -0.40666466201E+02 -0.12366644582E+02 -0.88240202896E+03  0.88342517289E+03  0.00000000000E+00 0. -1.
          1    1    1    2  502    0  0.14823848468E+03 -0.61448717736E+02  0.39439800986E+03  0.42579382738E+03  0.00000000000E+00 0. -1.
         22    1    3    3    0    0 -0.63728101037E+02 -0.98647003506E+01  0.68537402036E+02  0.94106103164E+02  0.00000000000E+00 0.  1.
         22    1    3    3    0    0 -0.43843917439E+02  0.83680062668E+02 -0.11926209428E+02  0.95220147321E+02  0.00000000000E+00 0.  1.
</event>
<event>
 7    1  0.6358809E-006  0.6643631E+02  0.7818608E-02  0.1527358E+00
          2   -1    0    0  502    0  0.00000000000E+00  0.00000000000E+00  0.22394405741E+04  0.22394405741E+04  0.00000000000E+00 0. -1.
          1   -1    0    0  501    0 -0.00000000000E+00 -0.00000000000E+00 -0.79240011710E+01  0.79240011710E+01  0.00000000000E+00 0. -1.
         25    2    1    2    0    0 -0.54017553216E+02 -0.60717612287E+01  0.91681100398E+03  0.92688800152E+03  0.12499675199E+03 0.  0.
          2    1    1    2  501    0  0.72969117418E+02 -0.33871394336E+01  0.48219560306E+03  0.48769720567E+03  0.00000000000E+00 0. -1.
          1    1    1    2  502    0 -0.18951564202E+02  0.94589006623E+01  0.83250996588E+03  0.83277936807E+03  0.00000000000E+00 0. -1.
         22    1    3    3    0    0  0.33800924608E+02 -0.24550300484E+02  0.41671643295E+03  0.41880521158E+03  0.00000000000E+00 0.  1.
         22    1    3    3    0    0 -0.87818477823E+02  0.18478539255E+02  0.50009457103E+03  0.50808278994E+03  0.00000000000E+00 0.  1.
</event>
<event>
 7    1  0.6358809E-006  0.1413705E+03  0.7818608E-02  0.1217671E+00
          2   -1    0    0  502    0  0.00000000000E+00  0.00000000000E+00  0.16947862525E+04  0.16947862525E+04  0.00000000000E+00 0. -1.
          1   -1    0    0  501    0 -0.00000000000E+00 -0.00000000000E+00 -0.13431470096E+04  0.13431470096E+04  0.00000000000E+00 0. -1.
         25    2    1    2    0    0  0.97742045813E+02 -0.68111181856E+02 -0.44205685266E+02  0.17825395989E+03  0.12501076352E+03 0.  0.
          2    1    1    2  501    0  0.32691280186E+02  0.12831983332E+03 -0.12251729292E+04  0.12323081619E+04  0.00000000000E+00 0. -1.
          1    1    1    2  502    0 -0.13043332600E+03 -0.60208651460E+02  0.16210178574E+04  0.16273711403E+04  0.00000000000E+00 0. -1.
         22    1    3    3    0    0  0.49428345071E+02  0.40930874817E+01 -0.71653046997E+02  0.87143983186E+02  0.00000000000E+00 0.  1.
         22    1    3    3    0    0  0.48313700742E+02 -0.72204269337E+02  0.27447361730E+02  0.91109976709E+02  0.00000000000E+00 0.  1.
</event>
<event>
 7    1  0.6358809E-006  0.5903036E+02  0.7818608E-02  0.1546556E+00
          2   -1    0    0  502    0  0.00000000000E+00  0.00000000000E+00  0.18339563767E+04  0.18339563767E+04  0.00000000000E+00 0. -1.
          1   -1    0    0  501    0 -0.00000000000E+00 -0.00000000000E+00 -0.98839460137E+02  0.98839460137E+02  0.00000000000E+00 0. -1.
         25    2    1    2    0    0  0.53346255195E+01  0.79498758342E+02  0.94665882117E+03  0.95819449046E+03  0.12500098816E+03 0.  0.
          2    1    1    2  501    0 -0.15898800238E+01 -0.58807685159E+02 -0.83635962395E+02  0.10225383004E+03  0.00000000000E+00 0. -1.
          1    1    1    2  502    0 -0.37447454957E+01 -0.20691073183E+02  0.87209405780E+03  0.87234751635E+03  0.00000000000E+00 0. -1.
         22    1    3    3    0    0  0.44680107082E+02 -0.39076797064E+01  0.50630350047E+03  0.50828615614E+03  0.00000000000E+00 0.  1.
         22    1    3    3    0    0 -0.39345481562E+02  0.83406438048E+02  0.44035532070E+03  0.44990833433E+03  0.00000000000E+00 0.  1.
</event>
<event>
 7    1  0.6358809E-006  0.8416899E+02  0.7818608E-02  0.1490208E+00
          2   -1    0    0  502    0  0.00000000000E+00  0.00000000000E+00  0.66859141978E+03  0.66859141978E+03  0.00000000000E+00 0. -1.
          1   -1    0    0  501    0 -0.00000000000E+00 -0.00000000000E+00 -0.61551576610E+03  0.61551576610E+03  0.00000000000E+00 0. -1.
         25    2    1    2    0    0 -0.42728094246E+02  0.67750042893E+02 -0.16864157600E+02  0.14943543477E+03  0.12502316187E+03 0.  0.
          2    1    1    2  501    0  0.25454190878E+02 -0.80576908566E+02 -0.52881831620E+03  0.53552718472E+03  0.00000000000E+00 0. -1.
          1    1    1    2  502    0  0.17273903368E+02  0.12826865673E+02  0.59875812747E+03  0.59914456639E+03  0.00000000000E+00 0. -1.
         22    1    3    3    0    0  0.24628172394E+02  0.21656424552E+02 -0.51270164452E+02  0.60861953327E+02  0.00000000000E+00 0. -1.
         22    1    3    3    0    0 -0.67356266640E+02  0.46093618341E+02  0.34406006852E+02  0.88573481443E+02  0.00000000000E+00 0. -1.
</event>
<event>
 7    1  0.6358809E-006  0.2221199E+03  0.7818608E-02  0.1256664E+00
          2   -1    0    0  502    0  0.00000000000E+00  0.00000000000E+00  0.18819754134E+04  0.18819754134E+04  0.00000000000E+00 0. -1.
          1   -1    0    0  501    0 -0.00000000000E+00 -0.00000000000E+00 -0.13691198626E+04  0.13691198626E+04  0.00000000000E+00 0. -1.
         25    2    1    2    0    0  0.26610626835E+03 -0.77309313542E+02 -0.31982214879E+03  0.44124920589E+03  0.12500151529E+03 0.  0.
          2    1    1    2  501    0 -0.51722899438E+02  0.23012949522E+02 -0.98105164460E+03  0.98268366403E+03  0.00000000000E+00 0. -1.
          1    1    1    2  502    0 -0.21438336891E+03  0.54296364019E+02  0.18137293442E+04  0.18271624061E+04  0.00000000000E+00 0. -1.
         22    1    3    3    0    0  0.18990380835E+03 -0.58177452917E+02 -0.13425296749E+03  0.23973304264E+03  0.00000000000E+00 0. -1.
         22    1    3    3    0    0  0.76202459995E+02 -0.19131860625E+02 -0.18556918130E+03  0.20151616325E+03  0.00000000000E+00 0. -1.
</event>
<event>
 7    1  0.6358809E-006  0.2613467E+03  0.7818608E-02  0.1319987E+00
          2   -1    0    0  502    0  0.00000000000E+00  0.00000000000E+00  0.24586144191E+04  0.24586144191E+04  0.00000000000E+00 0. -1.
          1   -1    0    0  501    0 -0.00000000000E+00 -0.00000000000E+00 -0.51688501237E+02  0.51688501237E+02  0.00000000000E+00 0. -1.
         25    2    1    2    0    0 -0.25614181180E+03  0.93120664323E+02  0.84093972944E+03  0.89279594865E+03  0.12499956600E+03 0.  0.
          2    1    1    2  501    0  0.23157214348E+03 -0.10315344922E+03  0.60257104358E+03  0.65372636040E+03  0.00000000000E+00 0. -1.
          1    1    1    2  502    0  0.24569668323E+02  0.10032784897E+02  0.96341514486E+03  0.96378061130E+03  0.00000000000E+00 0. -1.
         22    1    3    3    0    0 -0.61385973647E+02  0.71093066492E+02  0.17501833297E+03  0.19863000463E+03  0.00000000000E+00 0.  1.
         22    1    3    3    0    0 -0.19475583816E+03  0.22027597831E+02  0.66592139647E+03  0.69416594402E+03  0.00000000000E+00 0.  1.
</event>
<event>
 7    1  0.6358809E-006  0.7384337E+02  0.7818608E-02  0.1429212E+00
          2   -1    0    0  502    0  0.00000000000E+00  0.00000000000E+00  0.21299921740E+03  0.21299921740E+03  0.00000000000E+00 0. -1.
          1   -1    0    0  501    0 -0.00000000000E+00 -0.00000000000E+00 -0.53275158820E+03  0.53275158820E+03  0.00000000000E+00 0. -1.
         25    2    1    2    0    0 -0.82776051272E+02 -0.61439562570E+02  0.49168044276E+02  0.16932094882E+03  0.12500157047E+03 0.  0.
          2    1    1    2  501    0  0.44728740212E+02  0.57915341283E+02 -0.46620362743E+03  0.47191171758E+03  0.00000000000E+00 0. -1.
          1    1    1    2  502    0  0.38047311060E+02  0.35242212871E+01  0.97283212360E+02  0.10451813920E+03  0.00000000000E+00 0. -1.
         22    1    3    3    0    0  0.72605602632E+01 -0.38717237104E+02  0.64131549278E+02  0.75263509067E+02  0.00000000000E+00 0. -1.
         22    1    3    3    0    0 -0.90036611536E+02 -0.22722325466E+02 -0.14963505002E+02  0.94057439755E+02  0.00000000000E+00 0. -1.
</event>
<event>
 7    1  0.6358809E-006  0.1601483E+03  0.7818608E-02  0.1271893E+00
          2   -1    0    0  502    0  0.00000000000E+00  0.00000000000E+00  0.24975595801E+04  0.24975595801E+04  0.00000000000E+00 0. -1.
          1   -1    0    0  501    0 -0.00000000000E+00 -0.00000000000E+00 -0.27467946601E+02  0.27467946601E+02  0.00000000000E+00 0. -1.
         25    2    1    2    0    0 -0.97084372391E+02 -0.81214307197E+02  0.71173963802E+03  0.73363279232E+03  0.12499048996E+03 0.  0.
          2    1    1    2  501    0 -0.66100429136E+02  0.14508466529E+02  0.84380123091E+02  0.10816546355E+03  0.00000000000E+00 0. -1.
          1    1    1    2  502    0  0.16318480153E+03  0.66705840668E+02  0.16739718724E+04  0.16832292708E+04  0.00000000000E+00 0. -1.
         22    1    3    3    0    0 -0.37305247069E+02 -0.44033031422E+02  0.83744748666E+02  0.10170433739E+03  0.00000000000E+00 0.  1.
         22    1    3    3    0    0 -0.59779125322E+02 -0.37181275775E+02  0.62799488935E+03  0.63192845493E+03  0.00000000000E+00 0.  1.
</event>
<event>
 7    1  0.6358809E-006  0.3147922E+02  0.7818608E-02  0.1655478E+00
          2   -1    0    0  502    0  0.00000000000E+00  0.00000000000E+00  0.11670432858E+03  0.11670432858E+03  0.00000000000E+00 0. -1.
          1   -1    0    0  501    0 -0.00000000000E+00 -0.00000000000E+00 -0.17966445706E+04  0.17966445706E+04  0.00000000000E+00 0. -1.
         25    2    1    2    0    0  0.26748074568E+02 -0.21562838425E+02 -0.23323135332E+03  0.26683782137E+03  0.12500057301E+03 0.  0.
          2    1    1    2  501    0 -0.82793345697E+01  0.30406462596E+02 -0.15453983576E+04  0.15457196331E+04  0.00000000000E+00 0. -1.
          1    1    1    2  502    0 -0.18468739998E+02 -0.88436241715E+01  0.98689468943E+02  0.10079144471E+03  0.00000000000E+00 0. -1.
         22    1    3    3    0    0 -0.21068181503E+02 -0.50222052874E+02 -0.45384285417E+02  0.70893273514E+02  0.00000000000E+00 0. -1.
         22    1    3    3    0    0  0.47816256071E+02  0.28659214450E+02 -0.18784706790E+03  0.19594454786E+03  0.00000000000E+00 0. -1.
</event>
<event>
 7    1  0.6358809E-006  0.5253362E+02  0.7818608E-02  0.1471064E+00
          2   -1    0    0  502    0  0.00000000000E+00  0.00000000000E+00  0.23836075526E+04  0.23836075526E+04  0.00000000000E+00 0. -1.
          1   -1    0    0  501    0 -0.00000000000E+00 -0.00000000000E+00 -0.79935677609E+02  0.79935677609E+02  0.00000000000E+00 0. -1.
         25    2    1    2    0    0 -0.30656490136E+02 -0.12469475152E+02  0.13583221809E+04  0.13644631410E+04  0.12500083143E+03 0.  0.
          2    1    1    2  501    0  0.84131200665E+00 -0.39449980058E+02 -0.70861303354E+02  0.81106923536E+02  0.00000000000E+00 0. -1.
          1    1    1    2  502    0  0.29815178129E+02  0.51919455210E+02  0.10162109974E+04  0.10179731656E+04  0.00000000000E+00 0. -1.
         22    1    3    3    0    0 -0.72582726293E+02 -0.51090261425E+01  0.11206064965E+04  0.11229662836E+04  0.00000000000E+00 0.  1.
         22    1    3    3    0    0  0.41926236157E+02 -0.73604490094E+01  0.23771568447E+03  0.24149685739E+03  0.00000000000E+00 0.  1.
</event>
<event>
 7    1  0.6358809E-006  0.6363269E+02  0.7818608E-02  0.1429268E+00
          2   -1    0    0  502    0  0.00000000000E+00  0.00000000000E+00  0.25125388897E+03  0.25125388897E+03  0.00000000000E+00 0. -1.
          1   -1    0    0  501    0 -0.00000000000E+00 -0.00000000000E+00 -0.67332227449E+03  0.67332227449E+03  0.00000000000E+00 0. -1.
         25    2    1    2    0    0  0.65845420584E+02  0.70726536427E+02  0.36841805117E+01  0.15803798448E+03  0.12499827594E+03 0.  0.
          2    1    1    2  501    0 -0.23195873468E+02 -0.58662615610E+02 -0.59155740756E+03  0.59491135261E+03  0.00000000000E+00 0. -1.
          1    1    1    2  502    0 -0.42649547117E+02 -0.12063920817E+02  0.16580484153E+03  0.17162682637E+03  0.00000000000E+00 0. -1.
         22    1    3    3    0    0  0.31588855112E+02 -0.23035839527E+02 -0.33527573951E+02  0.51503435662E+02  0.00000000000E+00 0.  1.
         22    1    3    3    0    0  0.34256565472E+02  0.93762375954E+02  0.37211754463E+02  0.10653454882E+03  0.00000000000E+00 0.  1.
</event>
<event>
 7    1  0.6358809E-006  0.1637006E+03  0.7818608E-02  0.1188847E+00
          2   -1    0    0  502    0  0.00000000000E+00  0.00000000000E+00  0.20620570540E+04  0.20620570540E+04  0.00000000000E+00 0. -1.
          1   -1    0    0  501    0 -0.00000000000E+00 -0.00000000000E+00 -0.73196303324E+02  0.73196303324E+02  0.00000000000E+00 0. -1.
         25    2    1    2    0    0 -0.22858048698E+02  0.23717623095E+02  0.53074268754E+02  0.13974281226E+03  0.12500463807E+03 0.  0.
          2    1    1    2  501    0  0.10468195207E+03  0.12585543181E+03  0.23612882245E+03  0.28732337461E+03  0.00000000000E+00 0. -1.
          1    1    1    2  502    0 -0.81823903370E+02 -0.14957305491E+03  0.16996576595E+04  0.17081871705E+04  0.00000000000E+00 0. -1.
         22    1    3    3    0    0  0.10813008300E+02 -0.28398124213E+02 -0.25468760350E+02  0.39648863301E+02  0.00000000000E+00 0. -1.
         22    1    3    3    0    0 -0.33671056997E+02  0.52115747308E+02  0.78543029104E+02  0.10009394896E+03  0.00000000000E+00 0. -1.
</event>
<event>
 7    1  0.6358809E-006  0.8271044E+02  0.7818608E-02  0.1335733E+00
          2   -1    0    0  502    0  0.00000000000E+00  0.00000000000E+00  0.13059781438E+03  0.13059781438E+03  0.00000000000E+00 0. -1.
          1   -1    0    0  501    0 -0.00000000000E+00 -0.00000000000E+00 -0.10061868894E+04  0.10061868894E+04  0.00000000000E+00 0. -1.
         25    2    1    2    0    0  0.48305005939E+02  0.47774712980E+02 -0.10472493146E+03  0.17666012388E+03  0.12500276517E+03 0.  0.
          2    1    1    2  501    0 -0.83757421646E+02  0.16012534897E+02 -0.84896374415E+03  0.85323569185E+03  0.00000000000E+00 0. -1.
          1    1    1    2  502    0  0.35452415707E+02 -0.63787247877E+02  0.78099600609E+02  0.10688888804E+03  0.00000000000E+00 0. -1.
         22    1    3    3    0    0  0.15937386927E+02 -0.29896019008E+02 -0.83159060153E+02  0.89795331394E+02  0.00000000000E+00 0. -1.
         22    1    3    3    0    0  0.32367619011E+02  0.77670731988E+02 -0.21565871306E+02  0.86864792484E+02  0.00000000000E+00 0. -1.
</event>
<event>
 7    1  0.6358809E-006  0.1405267E+03  0.7818608E-02  0.1344160E+00
          2   -1    0    0  502    0  0.00000000000E+00  0.00000000000E+00  0.13942478087E+04  0.13942478087E+04  0.00000000000E+00 0. -1.
          1   -1    0    0  501    0 -0.00000000000E+00 -0.00000000000E+00 -0.10397625731E+04  0.10397625731E+04  0.00000000000E+00 0. -1.
         25    2    1    2    0    0 -0.59708232716E+02  0.11402674113E+03  0.45039645236E+03  0.48481855265E+03  0.12499957582E+03 0.  0.
          2    1    1    2  501    0  0.97577402645E+02 -0.10136899327E+03 -0.10172769850E+04  0.10269612877E+04  0.00000000000E+00 0. -1.
          1    1    1    2  502    0 -0.37869169929E+02 -0.12657747861E+02  0.92136576824E+03  0.92223054141E+03  0.00000000000E+00 0. -1.
         22    1    3    3    0    0 -0.68283691376E+02  0.32237356410E+02  0.10236307631E+03  0.12720105757E+03  0.00000000000E+00 0.  1.
         22    1    3    3    0    0  0.85754586605E+01  0.81789384717E+02  0.34803337605E+03  0.35761749508E+03  0.00000000000E+00 0.  1.
</event>
<event>
 7    1  0.6907690E-006  0.8577359E+02  0.7818608E-02  0.1343335E+00
          2   -1    0    0  502    0  0.00000000000E+00  0.00000000000E+00  0.16895754931E+04  0.16895754931E+04  0.00000000000E+00 0. -1.
          1   -1    0    0  501    0 -0.00000000000E+00 -0.00000000000E+00 -0.55200159818E+03  0.55200159818E+03  0.00000000000E+00 0. -1.
         25    2    1    2    0    0  0.27161939108E+02  0.11443613049E+03 -0.38124296649E+02  0.17581787076E+03  0.12500025114E+03 0.  0.
          2    1    1    2  501    0 -0.61737826779E+02 -0.58355258882E+02 -0.44029901357E+03  0.44841957679E+03  0.00000000000E+00 0. -1.
          1    1    1    2  502    0  0.34575887672E+02 -0.56080871605E+02  0.16159972051E+04  0.16173396437E+04  0.00000000000E+00 0. -1.
         22    1    3    3    0    0  0.57612306465E+02  0.48123920581E+01 -0.10894909899E+02  0.58830570584E+02  0.00000000000E+00 0.  1.
         22    1    3    3    0    0 -0.30450367358E+02  0.10962373843E+03 -0.27229386750E+02  0.11698730017E+03  0.00000000000E+00 0.  1.
</event>
<event>
 7    1  0.6358809E-006  0.5441727E+02  0.7818608E-02  0.1430598E+00
          2   -1    0    0  502    0  0.00000000000E+00  0.00000000000E+00  0.10248526348E+04  0.10248526348E+04  0.00000000000E+00 0. -1.
          1   -1    0    0  501    0 -0.00000000000E+00 -0.00000000000E+00 -0.57991248423E+03  0.57991248423E+03  0.00000000000E+00 0. -1.
         25    2    1    2    0    0 -0.97883432882E+01 -0.76366032795E+02 -0.14464438463E+02  0.14751967724E+03  0.12500101026E+03 0.  0.
          2    1    1    2  501    0 -0.31258844600E+02  0.40687664348E+02 -0.49682655477E+03  0.49946894490E+03  0.00000000000E+00 0. -1.
          1    1    1    2  502    0  0.41047187888E+02  0.35678368447E+02  0.95623114383E+03  0.95777649691E+03  0.00000000000E+00 0. -1.
         22    1    3    3    0    0  0.47441672025E+02  0.44754505057E+01 -0.20529024914E+01  0.47696502078E+02  0.00000000000E+00 0. -1.
         22    1    3    3    0    0 -0.57230015314E+02 -0.80841483301E+02 -0.12411535972E+02  0.99823175166E+02  0.00000000000E+00 0. -1.
</event>
<event>
 7    1  0.6358809E-006  0.1582286E+03  0.7818608E-02  0.1267676E+00
          2   -1    0    0  502    0  0.00000000000E+00  0.00000000000E+00  0.59424301906E+03  0.59424301906E+03  0.00000000000E+00 0. -1.
          1   -1    0    0  501    0 -0.00000000000E+00 -0.00000000000E+00 -0.18791074692E+04  0.18791074692E+04  0.00000000000E+00 0. -1.
         25    2    1    2    0    0  0.18210908442E+03  0.69642193364E+02 -0.46553112954E+03  0.51996079130E+03  0.12500495270E+03 0.  0.
          2    1    1    2  501    0 -0.62943258085E+02  0.33593551589E+02 -0.13744585075E+04  0.13763090384E+04  0.00000000000E+00 0. -1.
          1    1    1    2  502    0 -0.11916582633E+03 -0.10323574495E+03  0.55512518695E+03  0.57708065848E+03  0.00000000000E+00 0. -1.
         22    1    3    3    0    0 -0.66041513052E+01  0.27509907843E+02 -0.12688218522E+03  0.12999807218E+03  0.00000000000E+00 0. -1.
         22    1    3    3    0    0  0.18871323572E+03  0.42132285522E+02 -0.33864894432E+03  0.38996271913E+03  0.00000000000E+00 0. -1.
</event>
<event>
 7    1  0.6358809E-006  0.5456895E+02  0.7818608E-02  0.1460420E+00
          2   -1    0    0  502    0  0.00000000000E+00  0.00000000000E+00  0.68975507436E+03  0.68975507436E+03  0.00000000000E+00 0. -1.
          1   -1    0    0  501    0 -0.00000000000E+00 -0.00000000000E+00 -0.10677976289E+04  0.10677976289E+04  0.00000000000E+00 0. -1.
         25    2    1    2    0    0 -0.21278743768E+02  0.86040964050E+02  0.10270834719E+03  0.18447818247E+03  0.12500945082E+03 0.  0.
          2    1    1    2  501    0  0.29350826208E+02 -0.45827917386E+02 -0.10254201063E+04  0.10268632155E+04  0.00000000000E+00 0. -1.
          1    1    1    2  502    0 -0.80720824404E+01 -0.40213046664E+02  0.54466920454E+03  0.54621130528E+03  0.00000000000E+00 0. -1.
         22    1    3    3    0    0 -0.20270068899E+02 -0.92242573073E+01  0.84625382733E+02  0.87506674138E+02  0.00000000000E+00 0.  1.
         22    1    3    3    0    0 -0.10086748686E+01  0.95265221358E+02  0.18082964462E+02  0.96971508337E+02  0.00000000000E+00 0.  1.
</event>
<event>
 7    1  0.6358809E-006  0.1606128E+03  0.7818608E-02  0.1263934E+00
          2   -1    0    0  502    0  0.00000000000E+00  0.00000000000E+00  0.17727419159E+04  0.17727419159E+04  0.00000000000E+00 0. -1.
          1   -1    0    0  501    0 -0.00000000000E+00 -0.00000000000E+00 -0.70364095309E+03  0.70364095309E+03  0.00000000000E+00 0. -1.
         25    2    1    2    0    0 -0.12034647239E+03  0.12095964314E+03  0.25687800739E+03  0.33275512169E+03  0.12500060657E+03 0.  0.
          2    1    1    2  501    0  0.54119732061E+02 -0.15141917231E+03 -0.65507406002E+03  0.67452111550E+03  0.00000000000E+00 0. -1.
          1    1    1    2  502    0  0.66226740329E+02  0.30459529162E+02  0.14672970155E+04  0.14691066318E+04  0.00000000000E+00 0. -1.
         22    1    3    3    0    0 -0.11474955708E+03  0.94503353671E+02  0.11398464206E+03  0.18732550102E+03  0.00000000000E+00 0. -1.
         22    1    3    3    0    0 -0.55969153082E+01  0.26456289473E+02  0.14289336533E+03  0.14542962067E+03  0.00000000000E+00 0. -1.
</event>
<event>
 7    1  0.6358809E-006  0.4562847E+02  0.7818608E-02  0.1514073E+00
          2   -1    0    0  502    0  0.00000000000E+00  0.00000000000E+00  0.10010835260E+04  0.10010835260E+04  0.00000000000E+00 0. -1.
          1   -1    0    0  501    0 -0.00000000000E+00 -0.00000000000E+00 -0.26050641942E+03  0.26050641942E+03  0.00000000000E+00 0. -1.
         25    2    1    2    0    0 -0.98385489132E+01  0.77046216610E+02  0.26057147876E+03  0.29925826763E+03  0.12500039465E+03 0.  0.
          2    1    1    2  501    0  0.12992970097E+02 -0.43492053074E+02 -0.23862872835E+03  0.24290748434E+03  0.00000000000E+00 0. -1.
          1    1    1    2  502    0 -0.31544211840E+01 -0.33554163536E+02  0.71863435613E+03  0.71942419342E+03  0.00000000000E+00 0. -1.
         22    1    3    3    0    0 -0.53575997832E+02  0.78225915844E+02  0.22011606705E+03  0.23966802963E+03  0.00000000000E+00 0. -1.
         22    1    3    3    0    0  0.43737448919E+02 -0.11796992345E+01  0.40455411713E+02  0.59590238002E+02  0.00000000000E+00 0. -1.
</event>
<event>
 7    1  0.6358809E-006  0.6321824E+02  0.7818608E-02  0.1392287E+00
          2   -1    0    0  502    0  0.00000000000E+00  0.00000000000E+00  0.40403150820E+03  0.40403150820E+03  0.00000000000E+00 0. -1.
          1   -1    0    0  501    0 -0.00000000000E+00 -0.00000000000E+00 -0.22779092569E+03  0.22779092569E+03  0.00000000000E+00 0. -1.
         25    2    1    2    0    0  0.54487417085E+02  0.54959499897E+01  0.82110568557E+02  0.15926583398E+03  0.12499750524E+03 0.  0.
          2    1    1    2  501    0 -0.13528372536E+02 -0.57962354482E+02 -0.18045595237E+03  0.19001842581E+03  0.00000000000E+00 0. -1.
          1    1    1    2  502    0 -0.40959044550E+02  0.52466404493E+02  0.27458596632E+03  0.28253817411E+03  0.00000000000E+00 0. -1.
         22    1    3    3    0    0  0.24042815647E+02  0.26167415854E+02 -0.26669246519E+02  0.44430162577E+02  0.00000000000E+00 0. -1.
         22    1    3    3    0    0  0.30444601438E+02 -0.20671465864E+02  0.10877981508E+03  0.11483567140E+03  0.00000000000E+00 0. -1.
</event>
<event>
 7    1  0.6358809E-006  0.1572805E+03  0.7818608E-02  0.1315157E+00
          2   -1    0    0  502    0  0.00000000000E+00  0.00000000000E+00  0.12464645264E+04  0.12464645264E+04  0.00000000000E+00 0. -1.
          1   -1    0    0  501    0 -0.00000000000E+00 -0.00000000000E+00 -0.38225865213E+03  0.38225865213E+03  0.00000000000E+00 0. -1.
         25    2    1    2    0    0 -0.13684136505E+03 -0.90493310635E+02  0.17748088057E+03  0.27210588627E+03  0.12501020724E+03 0.  0.
          2    1    1    2  501    0 -0.13310147345E+02  0.44085827979E+02 -0.32728077674E+03  0.33050480643E+03  0.00000000000E+00 0. -1.
          1    1    1    2  502    0  0.15015151240E+03  0.46407482655E+02  0.10140057704E+04  0.10261124858E+04  0.00000000000E+00 0. -1.
         22    1    3    3    0    0 -0.41060637357E+02 -0.63418308507E+02  0.15141279811E+03  0.16921493204E+03  0.00000000000E+00 0. -1.
         22    1    3    3    0    0 -0.95780727697E+02 -0.27075002127E+02  0.26068082463E+02  0.10289095423E+03  0.00000000000E+00 0. -1.
</event>
<event>
 7    1  0.6358809E-006  0.1416481E+03  0.7818608E-02  0.1309064E+00
          2   -1    0    0  502    0  0.00000000000E+00  0.00000000000E+00  0.75454512124E+03  0.75454512124E+03  0.00000000000E+00 0. -1.
          1   -1    0    0  501    0 -0.00000000000E+00 -0.00000000000E+00 -0.40312465156E+03  0.40312465156E+03  0.00000000000E+00 0. -1.
         25    2    1    2    0    0 -0.78635006540E+01  0.16848337346E+03 -0.20228576297E+03  0.29153929417E+03  0.12500859319E+03 0.  0.
          2    1    1    2  501    0  0.35828463012E+02 -0.12225297496E+03 -0.12899262984E+03  0.18129690345E+03  0.00000000000E+00 0. -1.
          1    1    1    2  502    0 -0.27964962358E+02 -0.46230398502E+02  0.68269886248E+03  0.68483357519E+03  0.00000000000E+00 0. -1.
         22    1    3    3    0    0 -0.57210930306E+02  0.11221287498E+03 -0.83425397603E+02  0.15107818116E+03  0.00000000000E+00 0. -1.
         22    1    3    3    0    0  0.49347429652E+02  0.56270498476E+02 -0.11886036536E+03  0.14046111300E+03  0.00000000000E+00 0. -1.
</event>
<event>
 7    1  0.6358809E-006  0.8951601E+02  0.7818608E-02  0.1353803E+00
          2   -1    0    0  502    0  0.00000000000E+00  0.00000000000E+00  0.13310455387E+04  0.13310455387E+04  0.00000000000E+00 0. -1.
          1   -1    0    0  501    0 -0.00000000000E+00 -0.00000000000E+00 -0.28402053390E+02  0.28402053390E+02  0.00000000000E+00 0. -1.
         25    2    1    2    0    0  0.76304238333E+02 -0.67975163471E+02  0.72653882644E+03  0.74426207706E+03  0.12499765355E+03 0.  0.
          2    1    1    2  501    0  0.12286533111E+02  0.56401332264E+02  0.36635949997E+02  0.68368574719E+02  0.00000000000E+00 0. -1.
          1    1    1    2  502    0 -0.88590771444E+02  0.11573831207E+02  0.53946870888E+03  0.54681694031E+03  0.00000000000E+00 0. -1.
         22    1    3    3    0    0  0.64297757679E+02 -0.92588015274E+02  0.37292092205E+03  0.38958536461E+03  0.00000000000E+00 0.  1.
         22    1    3    3    0    0  0.12006480654E+02  0.24612851804E+02  0.35361790439E+03  0.35467671246E+03  0.00000000000E+00 0.  1.
</event>
<event>
 7    1  0.6358809E-006  0.1950601E+03  0.7818608E-02  0.1227479E+00
          2   -1    0    0  502    0  0.00000000000E+00  0.00000000000E+00  0.11735070749E+04  0.11735070749E+04  0.00000000000E+00 0. -1.
          1   -1    0    0  501    0 -0.00000000000E+00 -0.00000000000E+00 -0.11541524442E+04  0.11541524442E+04  0.00000000000E+00 0. -1.
         25    2    1    2    0    0 -0.25903391417E+03  0.22675543498E+02  0.21078197199E+03  0.35731728449E+03  0.12503540745E+03 0.  0.
          2    1    1    2  501    0  0.19085011346E+03  0.30745834087E+02 -0.10700949890E+04  0.10874154485E+04  0.00000000000E+00 0. -1.
          1    1    1    2  502    0  0.68183800708E+02 -0.53421377584E+02  0.87866764775E+03  0.88292678602E+03  0.00000000000E+00 0. -1.
         22    1    3    3    0    0 -0.24018932083E+03  0.12400598534E+02  0.22676549094E+03  0.33055600519E+03  0.00000000000E+00 0.  1.
         22    1    3    3    0    0 -0.18844593344E+02  0.10274944964E+02 -0.15983518946E+02  0.26761279308E+02  0.00000000000E+00 0.  1.
</event>
<event>
 7    1  0.6358809E-006  0.4867159E+02  0.7818608E-02  0.1487666E+00
          2   -1    0    0  502    0  0.00000000000E+00  0.00000000000E+00  0.41825841948E+03  0.41825841948E+03  0.00000000000E+00 0. -1.
          1   -1    0    0  501    0 -0.00000000000E+00 -0.00000000000E+00 -0.10074215322E+03  0.10074215322E+03  0.00000000000E+00 0. -1.
         25    2    1    2    0    0 -0.51882486445E+01  0.56204482849E+01 -0.83530707670E+01  0.12552006461E+03  0.12500802160E+03 0.  0.
          2    1    1    2  501    0  0.42955447276E+02  0.25080737863E+02 -0.12775506726E+02  0.51355889970E+02  0.00000000000E+00 0. -1.
          1    1    1    2  502    0 -0.37767198632E+02 -0.30701186148E+02  0.33864484375E+03  0.34212461812E+03  0.00000000000E+00 0. -1.
         22    1    3    3    0    0 -0.45652065555E+02  0.45493826968E+02 -0.20096391735E+02  0.67510475798E+02  0.00000000000E+00 0. -1.
         22    1    3    3    0    0  0.40463816911E+02 -0.39873378683E+02  0.11743320968E+02  0.58009588811E+02  0.00000000000E+00 0. -1.
</event>
<event>
 7    1  0.6358809E-006  0.7063337E+02  0.7818608E-02  0.1473166E+00
          2   -1    0    0  502    0  0.00000000000E+00  0.00000000000E+00  0.10329633601E+03  0.10329633601E+03  0.00000000000E+00 0. -1.
          1   -1    0    0  501    0 -0.00000000000E+00 -0.00000000000E+00 -0.12669234881E+04  0.12669234881E+04  0.00000000000E+00 0. -1.
         25    2    1    2    0    0  0.41580457113E+02 -0.61509481095E+02 -0.69057436199E+01  0.14556215264E+03  0.12501320053E+03 0.  0.
          2    1    1    2  501    0 -0.59199389598E+02  0.38588428648E+02 -0.11832870782E+04  0.11853952691E+04  0.00000000000E+00 0. -1.
          1    1    1    2  502    0  0.17618932485E+02  0.22921052447E+02  0.26565669775E+02  0.39262402343E+02  0.00000000000E+00 0. -1.
         22    1    3    3    0    0 -0.29365938157E+02 -0.48161466200E+02  0.30638393452E+02  0.64191871010E+02  0.00000000000E+00 0.  1.
         22    1    3    3    0    0  0.70946395270E+02 -0.13348014895E+02 -0.37544137072E+02  0.81370281626E+02  0.00000000000E+00 0.  1.
</event>
<event>
 7    1  0.6358809E-006  0.1319240E+03  0.7818608E-02  0.1290920E+00
          2   -1    0    0  502    0  0.00000000000E+00  0.00000000000E+00  0.55621383876E+03  0.55621383876E+03  0.00000000000E+00 0. -1.
          1   -1    0    0  501    0 -0.00000000000E+00 -0.00000000000E+00 -0.66774189895E+03  0.66774189895E+03  0.00000000000E+00 0. -1.
         25    2    1    2    0    0 -0.49849481863E+02  0.10803290602E+03 -0.39812999108E+02  0.17710474506E+03  0.12499974480E+03 0.  0.
          2    1    1    2  501    0 -0.13371360781E+02 -0.13459688553E+03 -0.54861654556E+03  0.56504444864E+03  0.00000000000E+00 0. -1.
          1    1    1    2  502    0  0.63220842643E+02  0.26563979505E+02  0.47690148448E+03  0.48180654401E+03  0.00000000000E+00 0. -1.
         22    1    3    3    0    0 -0.19568461151E+02  0.91079399247E+01 -0.66788798554E+02  0.70189905640E+02  0.00000000000E+00 0. -1.
         22    1    3    3    0    0 -0.30281020712E+02  0.98924966097E+02  0.26975799446E+02  0.10691483942E+03  0.00000000000E+00 0. -1.
</event>
<event>
 7    1  0.6358809E-006  0.4041020E+02  0.7818608E-02  0.1571502E+00
          2   -1    0    0  502    0  0.00000000000E+00  0.00000000000E+00  0.31800228689E+02  0.31800228689E+02  0.00000000000E+00 0. -1.
          1   -1    0    0  501    0 -0.00000000000E+00 -0.00000000000E+00 -0.18158148361E+04  0.18158148361E+04  0.00000000000E+00 0. -1.
         25    2    1    2    0    0  0.46697623369E+02  0.22306053358E+02 -0.53111791138E+03  0.54807647391E+03  0.12499342950E+03 0.  0.
          2    1    1    2  501    0 -0.23866913533E+02  0.10851975469E+02 -0.12586049869E+04  0.12588780354E+04  0.00000000000E+00 0. -1.
          1    1    1    2  502    0 -0.22830709836E+02 -0.33158028827E+02  0.57082908800E+01  0.40660555482E+02  0.00000000000E+00 0. -1.
         22    1    3    3    0    0 -0.14896245731E+01 -0.36917732618E+02 -0.34403622352E+03  0.34601453879E+03  0.00000000000E+00 0. -1.
         22    1    3    3    0    0  0.48187247942E+02  0.59223785976E+02 -0.18708168786E+03  0.20206193512E+03  0.00000000000E+00 0. -1.
</event>
<event>
 7    1  0.6358809E-006  0.5128152E+02  0.7818608E-02  0.1480075E+00
          2   -1    0    0  502    0  0.00000000000E+00  0.00000000000E+00  0.66320626735E+03  0.66320626735E+03  0.00000000000E+00 0. -1.
          1   -1    0    0  501    0 -0.00000000000E+00 -0.00000000000E+00 -0.53409539505E+03  0.53409539505E+03  0.00000000000E+00 0. -1.
         25    2    1    2    0    0  0.24780903563E+02 -0.24061261518E+02 -0.13168330876E+03  0.18482336986E+03  0.12500458693E+03 0.  0.
          2    1    1    2  501    0 -0.53156222801E+02 -0.10855426435E+01 -0.37339275977E+03  0.37715900556E+03  0.00000000000E+00 0. -1.
          1    1    1    2  502    0  0.28375319239E+02  0.25146804161E+02  0.63418694082E+03  0.63531928698E+03  0.00000000000E+00 0. -1.
         22    1    3    3    0    0  0.68162566272E+02 -0.44769316009E+02 -0.85719553880E+02  0.11831428069E+03  0.00000000000E+00 0. -1.
         22    1    3    3    0    0 -0.43381662709E+02  0.20708054491E+02 -0.45963754876E+02  0.66509089172E+02  0.00000000000E+00 0. -1.
</event>
<event>
 7    1  0.6358809E-006  0.7811654E+02  0.7818608E-02  0.1429965E+00
          2   -1    0    0  502    0  0.00000000000E+00  0.00000000000E+00  0.27102758233E+03  0.27102758233E+03  0.00000000000E+00 0. -1.
          1   -1    0    0  501    0 -0.00000000000E+00 -0.00000000000E+00 -0.26647507571E+04  0.26647507571E+04  0.00000000000E+00 0. -1.
         25    2    1    2    0    0 -0.13797978026E+02  0.75411202711E+02 -0.18048111823E+04  0.18107581117E+04  0.12499720664E+03 0.  0.
          2    1    1    2  501    0  0.35911353054E+02 -0.45816193526E+00 -0.85088360857E+03  0.85164120997E+03  0.00000000000E+00 0. -1.
          1    1    1    2  502    0 -0.22113375028E+02 -0.74953040776E+02  0.26197161612E+03  0.27337901772E+03  0.00000000000E+00 0. -1.
         22    1    3    3    0    0  0.24216194436E+02  0.96164737375E+02 -0.14343169982E+04  0.14377410518E+04  0.00000000000E+00 0.  1.
         22    1    3    3    0    0 -0.38014172462E+02 -0.20753534664E+02 -0.37049418418E+03  0.37301705995E+03  0.00000000000E+00 0.  1.
</event>
<event>
 7    1  0.6358809E-006  0.1009200E+03  0.7818608E-02  0.1377924E+00
          2   -1    0    0  502    0  0.00000000000E+00  0.00000000000E+00  0.28696440614E+03  0.28696440614E+03  0.00000000000E+00 0. -1.
          1   -1    0    0  501    0 -0.00000000000E+00 -0.00000000000E+00 -0.21228833898E+03  0.21228833898E+03  0.00000000000E+00 0. -1.
         25    2    1    2    0    0  0.55429429456E+02 -0.12054428530E+03 -0.37677242566E+02  0.18613955429E+03  0.12500005079E+03 0.  0.
          2    1    1    2  501    0 -0.31274421170E+02  0.86330669137E+02 -0.76598256053E+02  0.11957577800E+03  0.00000000000E+00 0. -1.
          1    1    1    2  502    0 -0.24155008286E+02  0.34213616163E+02  0.18895156578E+03  0.19353741284E+03  0.00000000000E+00 0. -1.
         22    1    3    3    0    0  0.40377073061E+02 -0.74729548170E+01  0.32363752610E+02  0.52283511413E+02  0.00000000000E+00 0.  1.
         22    1    3    3    0    0  0.15052356395E+02 -0.11307133048E+03 -0.70040995176E+02  0.13385604288E+03  0.00000000000E+00 0.  1.
</event>
<event>
 7    1  0.6358809E-006  0.9145135E+02  0.7818608E-02  0.1386675E+00
          2   -1    0    0  502    0  0.00000000000E+00  0.00000000000E+00  0.13117452519E+04  0.13117452519E+04  0.00000000000E+00 0. -1.
          1   -1    0    0  501    0 -0.00000000000E+00 -0.00000000000E+00 -0.53565482215E+03  0.53565482215E+03  0.00000000000E+00 0. -1.
         25    2    1    2    0    0 -0.68760108191E+02 -0.81596424045E+02  0.10452713080E+03  0.19477258940E+03  0.12499804643E+03 0.  0.
          2    1    1    2  501    0 -0.12916108972E+02  0.41060822734E+02 -0.48779427549E+03  0.48968977143E+03  0.00000000000E+00 0. -1.
          1    1    1    2  502    0  0.81676217163E+02  0.40535601311E+02  0.11593575744E+04  0.11629377132E+04  0.00000000000E+00 0. -1.
         22    1    3    3    0    0  0.13556285884E+02  0.25722134930E+02  0.17338560320E+02  0.33853017388E+02  0.00000000000E+00 0. -1.
         22    1    3    3    0    0 -0.82316394075E+02 -0.10731855897E+03  0.87188570481E+02  0.16091957201E+03  0.00000000000E+00 0. -1.
</event>
<event>
 7    1  0.6358809E-006  0.8518617E+02  0.7818608E-02  0.1328630E+00
          2   -1    0    0  502    0  0.00000000000E+00  0.00000000000E+00  0.28719210575E+04  0.28719210575E+04  0.00000000000E+00 0. -1.
          1   -1    0    0  501    0 -0.00000000000E+00 -0.00000000000E+00 -0.80998928123E+02  0.80998928123E+02  0.00000000000E+00 0. -1.
         25    2    1    2    0    0 -0.28735587160E+02 -0.84504185838E+02  0.41324805485E+03  0.44086990731E+03  0.12500251576E+03 0.  0.
          2    1    1    2  501    0 -0.45918555790E+02  0.73861141804E+02 -0.38206236817E+02  0.94993150101E+02  0.00000000000E+00 0. -1.
          1    1    1    2  502    0  0.74654142950E+02  0.10643044034E+02  0.24158803113E+04  0.24170569282E+04  0.00000000000E+00 0. -1.
         22    1    3    3    0    0 -0.55678365880E+02  0.69755300565E+01  0.11926930075E+03  0.13181010792E+03  0.00000000000E+00 0. -1.
         22    1    3    3    0    0  0.26942778720E+02 -0.91479715894E+02  0.29397875409E+03  0.30905979940E+03  0.00000000000E+00 0. -1.
</event>
<event>
 7    1  0.6358809E-006  0.9131117E+02  0.7818608E-02  0.1423293E+00
          2   -1    0    0  502    0  0.00000000000E+00  0.00000000000E+00  0.25738101707E+03  0.25738101707E+03  0.00000000000E+00 0. -1.
          1   -1    0    0  501    0 -0.00000000000E+00 -0.00000000000E+00 -0.21405044836E+03  0.21405044836E+03  0.00000000000E+00 0. -1.
         25    2    1    2    0    0  0.64059497026E+02  0.50441082279E+02  0.13595989673E+03  0.20190952903E+03  0.12503776411E+03 0.  0.
          2    1    1    2  501    0 -0.48331743524E+02 -0.78683550082E+02 -0.16565899267E+03  0.18965748163E+03  0.00000000000E+00 0. -1.
          1    1    1    2  502    0 -0.15727753502E+02  0.28242467803E+02  0.73029664653E+02  0.79864454779E+02  0.00000000000E+00 0. -1.
         22    1    3    3    0    0  0.37382876806E+02  0.63984834265E+02  0.12842846426E+02  0.75209555234E+02  0.00000000000E+00 0.  1.
         22    1    3    3    0    0  0.26676620220E+02 -0.13543751986E+02  0.12311705030E+03  0.12669997379E+03  0.00000000000E+00 0.  1.
</event>
<event>
 7    1  0.6358809E-006  0.1250211E+03  0.7818608E-02  0.1276376E+00
          2   -1    0    0  502    0  0.00000000000E+00  0.00000000000E+00  0.28003081488E+04  0.28003081488E+04  0.00000000000E+00 0. -1.
          1   -1    0    0  501    0 -0.00000000000E+00 -0.00000000000E+00 -0.79983835027E+03  0.79983835027E+03  0.00000000000E+00 0. -1.
         25    2    1    2    0    0 -0.11378818635E+03  0.13288937076E+03 -0.34473657564E+03  0.40629476742E+03  0.12499918094E+03 0.  0.
          2    1    1    2  501    0  0.82153630165E+02 -0.12062692222E+02 -0.41883669520E+03  0.42698817869E+03  0.00000000000E+00 0. -1.
          1    1    1    2  502    0  0.31634556183E+02 -0.12082667853E+03  0.27640430694E+04  0.27668635530E+04  0.00000000000E+00 0. -1.
         22    1    3    3    0    0 -0.11371659963E+03  0.15198521347E+03 -0.27613026948E+03  0.33508043194E+03  0.00000000000E+00 0.  1.
         22    1    3    3    0    0 -0.71586719834E-01 -0.19095842712E+02 -0.68606306151E+02  0.71214335476E+02  0.00000000000E+00 0.  1.
</event>
<event>
 7    1  0.6358809E-006  0.5042352E+02  0.7818608E-02  0.1535416E+00
          2   -1    0    0  502    0  0.00000000000E+00  0.00000000000E+00  0.29469419577E+03  0.29469419577E+03  0.00000000000E+00 0. -1.
          1   -1    0    0  501    0 -0.00000000000E+00 -0.00000000000E+00 -0.55850694106E+03  0.55850694106E+03  0.00000000000E+00 0. -1.
         25    2    1    2    0    0 -0.57093664346E+02  0.63273153726E+01  0.10784309032E+03  0.17479995644E+03  0.12500068485E+03 0.  0.
          2    1    1    2  501    0  0.47036959298E+02  0.18152600929E+02 -0.52266467103E+03  0.52509080243E+03  0.00000000000E+00 0. -1.
          1    1    1    2  502    0  0.10056705048E+02 -0.24479916302E+02  0.15100883541E+03  0.15331037796E+03  0.00000000000E+00 0. -1.
         22    1    3    3    0    0 -0.75322624568E+02  0.43244858460E+02  0.40418172877E+02  0.95797934496E+02  0.00000000000E+00 0.  1.
         22    1    3    3    0    0  0.18228960221E+02 -0.36917543087E+02  0.67424917446E+02  0.79002021942E+02  0.00000000000E+00 0.  1.
</event>
<event>
 7    1  0.6358809E-006  0.9085741E+02  0.7818608E-02  0.1301767E+00
          2   -1    0    0  502    0  0.00000000000E+00  0.00000000000E+00  0.11781272934E+04  0.11781272934E+04  0.00000000000E+00 0. -1.
          1   -1    0    0  501    0 -0.00000000000E+00 -0.00000000000E+00 -0.21110045580E+04  0.21110045580E+04  0.00000000000E+00 0. -1.
         25    2    1    2    0    0  0.34123111386E+00  0.15450320322E+01  0.14908364193E+03  0.19455964937E+03  0.12500008523E+03 0.  0.
          2    1    1    2  501    0 -0.64190414609E+02 -0.65035843597E+02 -0.20852496928E+04  0.20872509077E+04  0.00000000000E+00 0. -1.
          1    1    1    2  502    0  0.63849183495E+02  0.63490811565E+02  0.10032887863E+04  0.10073212944E+04  0.00000000000E+00 0. -1.
         22    1    3    3    0    0  0.34008867035E+02  0.36961305049E+02  0.13448809753E+03  0.14356110018E+03  0.00000000000E+00 0.  1.
         22    1    3    3    0    0 -0.33667635921E+02 -0.35416273017E+02  0.14595544404E+02  0.50998549189E+02  0.00000000000E+00 0.  1.
</event>
<event>
 7    1  0.6358809E-006  0.1575656E+03  0.7818608E-02  0.1254185E+00
          2   -1    0    0  502    0  0.00000000000E+00  0.00000000000E+00  0.27139836548E+04  0.27139836548E+04  0.00000000000E+00 0. -1.
          1   -1    0    0  501    0 -0.00000000000E+00 -0.00000000000E+00 -0.68532663331E+03  0.68532663331E+03  0.00000000000E+00 0. -1.
         25    2    1    2    0    0  0.86500974365E+02  0.10129793840E+03  0.76694853371E+02  0.19811739901E+03  0.12499884947E+03 0.  0.
          2    1    1    2  501    0 -0.15197266908E+03 -0.52280304599E+02 -0.61361496889E+03  0.63431242495E+03  0.00000000000E+00 0. -1.
          1    1    1    2  502    0  0.65471694717E+02 -0.49017633800E+02  0.25655771370E+04  0.25668804641E+04  0.00000000000E+00 0. -1.
         22    1    3    3    0    0 -0.14880657914E+02  0.70371857185E+02  0.93361083811E+01  0.72531339319E+02  0.00000000000E+00 0.  1.
         22    1    3    3    0    0  0.10138163228E+03  0.30926081214E+02  0.67358744990E+02  0.12558605969E+03  0.00000000000E+00 0.  1.
</event>
<event>
 7    1  0.6358809E-006  0.4483292E+02  0.7818608E-02  0.1545419E+00
          2   -1    0    0  502    0  0.00000000000E+00  0.00000000000E+00  0.39949006819E+03  0.39949006819E+03  0.00000000000E+00 0. -1.
          1   -1    0    0  501    0 -0.00000000000E+00 -0.00000000000E+00 -0.21164179393E+03  0.21164179393E+03  0.00000000000E+00 0. -1.
         25    2    1    2    0    0  0.48459369864E+02  0.14991405800E+02  0.11843175437E+03  0.17952821842E+03  0.12502498946E+03 0.  0.
          2    1    1    2  501    0 -0.43131847188E+02  0.12385154972E+02 -0.17751645087E+03  0.18310062435E+03  0.00000000000E+00 0. -1.
          1    1    1    2  502    0 -0.53275226767E+01 -0.27376560772E+02  0.24693297076E+03  0.24850301935E+03  0.00000000000E+00 0. -1.
         22    1    3    3    0    0  0.26240629688E+02  0.32686916939E+02  0.13852983426E+03  0.14473258156E+03  0.00000000000E+00 0.  1.
         22    1    3    3    0    0  0.22218740176E+02 -0.17695511139E+02 -0.20098079885E+02  0.34795636861E+02  0.00000000000E+00 0.  1.
</event>
<event>
 7    1  0.6358809E-006  0.1148665E+03  0.7818608E-02  0.1294893E+00
          2   -1    0    0  502    0  0.00000000000E+00  0.00000000000E+00  0.27469095964E+03  0.27469095964E+03  0.00000000000E+00 0. -1.
          1   -1    0    0  501    0 -0.00000000000E+00 -0.00000000000E+00 -0.58420709628E+03  0.58420709628E+03  0.00000000000E+00 0. -1.
         25    2    1    2    0    0  0.13745019506E+03  0.68488512258E+02 -0.20393345460E+03  0.28424557653E+03  0.12499384562E+03 0.  0.
          2    1    1    2  501    0 -0.64205015549E+02 -0.88365274512E+02 -0.32479732849E+03  0.34267186981E+03  0.00000000000E+00 0. -1.
          1    1    1    2  502    0 -0.73245179509E+02  0.19876762253E+02  0.21921464646E+03  0.23198060958E+03  0.00000000000E+00 0. -1.
         22    1    3    3    0    0  0.12064247562E+02 -0.20181941127E+02  0.58776165712E+01  0.24236402238E+02  0.00000000000E+00 0. -1.
         22    1    3    3    0    0  0.12538594750E+03  0.88670453385E+02 -0.20981107117E+03  0.26000917430E+03  0.00000000000E+00 0. -1.
</event>
<event>
 7    1  0.6358809E-006  0.1451160E+03  0.7818608E-02  0.1345587E+00
          2   -1    0    0  502    0  0.00000000000E+00  0.00000000000E+00  0.17444137262E+04  0.17444137262E+04  0.00000000000E+00 0. -1.
          1   -1    0    0  501    0 -0.00000000000E+00 -0.00000000000E+00 -0.16681063573E+04  0.16681063573E+04  0.00000000000E+00 0. -1.
         25    2    1    2    0    0 -0.16523718665E+03 -0.19039894769E+02 -0.44111664368E+03  0.48772357990E+03  0.12499820646E+03 0.  0.
          2    1    1    2  501    0  0.14135327607E+03 -0.10765634945E+02 -0.11992991143E+04  0.12076485470E+04  0.00000000000E+00 0. -1.
          1    1    1    2  502    0  0.23883910574E+02  0.29805529714E+02  0.17167231268E+04  0.17171479566E+04  0.00000000000E+00 0. -1.
         22    1    3    3    0    0 -0.17507381273E+03 -0.44477325707E+02 -0.37664595020E+03  0.41772149120E+03  0.00000000000E+00 0.  1.
         22    1    3    3    0    0  0.98366260803E+01  0.25437430938E+02 -0.64470693479E+02  0.70002088705E+02  0.00000000000E+00 0.  1.
</event>
<event>
 7    1  0.6358809E-006  0.4894946E+02  0.7818608E-02  0.1570189E+00
          2   -1    0    0  502    0  0.00000000000E+00  0.00000000000E+00  0.89711426755E+03  0.89711426755E+03  0.00000000000E+00 0. -1.
          1   -1    0    0  501    0 -0.00000000000E+00 -0.00000000000E+00 -0.35141299174E+03  0.35141299174E+03  0.00000000000E+00 0. -1.
         25    2    1    2    0    0  0.14129265496E+02 -0.59795507468E+02 -0.40415002659E+02  0.14501129567E+03  0.12497905655E+03 0.  0.
          2    1    1    2  501    0 -0.25605279800E+02  0.41233840172E+02 -0.25628065442E+03  0.26083641187E+03  0.00000000000E+00 0. -1.
          1    1    1    2  502    0  0.11476014304E+02  0.18561667296E+02  0.84239693289E+03  0.84267955175E+03  0.00000000000E+00 0. -1.
         22    1    3    3    0    0  0.41882108865E+02 -0.64360586643E+02  0.19149968356E+02  0.79139860020E+02  0.00000000000E+00 0. -1.
         22    1    3    3    0    0 -0.27752843368E+02  0.45650791751E+01 -0.59564971015E+02  0.65871435653E+02  0.00000000000E+00 0. -1.
</event>
<event>
 7    1  0.6358809E-006  0.5181891E+02  0.7818608E-02  0.1521322E+00
          2   -1    0    0  502    0  0.00000000000E+00  0.00000000000E+00  0.64124647272E+03  0.64124647272E+03  0.00000000000E+00 0. -1.
          1   -1    0    0  501    0 -0.00000000000E+00 -0.00000000000E+00 -0.92696684756E+02  0.92696684756E+02  0.00000000000E+00 0. -1.
         25    2    1    2    0    0  0.65608586622E+01 -0.40074044852E+02  0.39548915876E+02  0.13725219722E+03  0.12500029983E+03 0.  0.
          2    1    1    2  501    0 -0.27118847571E+02 -0.79765844705E+01 -0.37909894943E+02  0.47288665957E+02  0.00000000000E+00 0. -1.
          1    1    1    2  502    0  0.20557988909E+02  0.48050629323E+02  0.54691076703E+03  0.54940229430E+03  0.00000000000E+00 0. -1.
         22    1    3    3    0    0 -0.25790210495E+02 -0.60949937412E+01  0.74288718713E+02  0.78873935074E+02  0.00000000000E+00 0. -1.
         22    1    3    3    0    0  0.32351069158E+02 -0.33979051111E+02 -0.34739802837E+02  0.58378262146E+02  0.00000000000E+00 0. -1.
</event>
<event>
 7    1  0.6358809E-006  0.1382549E+03  0.7818608E-02  0.1318095E+00
          2   -1    0    0  502    0  0.00000000000E+00  0.00000000000E+00  0.11138220704E+04  0.11138220704E+04  0.00000000000E+00 0. -1.
          1   -1    0    0  501    0 -0.00000000000E+00 -0.00000000000E+00 -0.10416409354E+04  0.10416409354E+04  0.00000000000E+00 0. -1.
         25    2    1    2    0    0 -0.91204428830E+02  0.49472500657E+02 -0.80238517526E+02  0.18119519788E+03  0.12501081505E+03 0.  0.
          2    1    1    2  501    0  0.13894361507E+03 -0.31460943919E+02 -0.90473507193E+03  0.91588245400E+03  0.00000000000E+00 0. -1.
          1    1    1    2  502    0 -0.47739186238E+02 -0.18011556738E+02  0.10571547245E+04  0.10583853540E+04  0.00000000000E+00 0. -1.
         22    1    3    3    0    0 -0.12063302709E+03  0.23344259458E+02 -0.56528035845E+02  0.13525051020E+03  0.00000000000E+00 0. -1.
         22    1    3    3    0    0  0.29428598259E+02  0.26128241199E+02 -0.23710481681E+02  0.45944687671E+02  0.00000000000E+00 0. -1.
</event>
<event>
 7    1  0.6358809E-006  0.1091371E+03  0.7818608E-02  0.1333804E+00
          2   -1    0    0  502    0  0.00000000000E+00  0.00000000000E+00  0.32017893965E+04  0.32017893965E+04  0.00000000000E+00 0. -1.
          1   -1    0    0  501    0 -0.00000000000E+00 -0.00000000000E+00 -0.46470740697E+03  0.46470740697E+03  0.00000000000E+00 0. -1.
         25    2    1    2    0    0 -0.18729644971E+02  0.10112977476E+03  0.14084615856E+03  0.21457405703E+03  0.12500541838E+03 0.  0.
          2    1    1    2  501    0 -0.53181731948E+02 -0.18311940514E+02 -0.42499543023E+03  0.42870122404E+03  0.00000000000E+00 0. -1.
          1    1    1    2  502    0  0.71911376919E+02 -0.82817834245E+02  0.30212312613E+04  0.30232215224E+04  0.00000000000E+00 0. -1.
         22    1    3    3    0    0 -0.23825955007E+02  0.34745770451E+02 -0.15302901670E+02  0.44823247270E+02  0.00000000000E+00 0.  1.
         22    1    3    3    0    0  0.50963100362E+01  0.66384004308E+02  0.15614906023E+03  0.16975080976E+03  0.00000000000E+00 0.  1.
</event>
<event>
 7    1  0.1230954E-005  0.8144522E+02  0.7818608E-02  0.1497975E+00
          2   -1    0    0  502    0  0.00000000000E+00  0.00000000000E+00  0.12561612489E+04  0.12561612489E+04  0.00000000000E+00 0. -1.
          1   -1    0    0  501    0 -0.00000000000E+00 -0.00000000000E+00 -0.18929922421E+04  0.18929922421E+04  0.00000000000E+00 0. -1.
         25    2    1    2    0    0  0.22129752339E+02 -0.96306891584E+02 -0.99811611444E+03  0.10107550960E+04  0.12500137150E+03 0.  0.
          2    1    1    2  501    0  0.64425377516E+01  0.20061244715E+02 -0.88710528428E+03  0.88735547850E+03  0.00000000000E+00 0. -1.
          1    1    1    2  502    0 -0.28572290090E+02  0.76245646869E+02  0.12483904055E+04  0.12510429165E+04  0.00000000000E+00 0. -1.
         22    1    3    3    0    0  0.84089397400E+01  0.28757107368E+02 -0.29051072840E+03  0.29205164750E+03  0.00000000000E+00 0. -1.
         22    1    3    3    0    0  0.13720812599E+02 -0.12506399895E+03 -0.70760538604E+03  0.71870344850E+03  0.00000000000E+00 0. -1.
</event>
<event>
 7    1  0.6358809E-006  0.7838659E+02  0.7818608E-02  0.1375456E+00
          2   -1    0    0  502    0  0.00000000000E+00  0.00000000000E+00  0.34447887053E+03  0.34447887053E+03  0.00000000000E+00 0. -1.
          1   -1    0    0  501    0 -0.00000000000E+00 -0.00000000000E+00 -0.23280008815E+04  0.23280008815E+04  0.00000000000E+00 0. -1.
         25    2    1    2    0    0 -0.10328437633E+03  0.43504789916E+02 -0.74826921188E+02  0.18380613572E+03  0.12500119300E+03 0.  0.
          2    1    1    2  501    0  0.50630988748E+02 -0.59475097106E+02 -0.21953736251E+04  0.21967626494E+04  0.00000000000E+00 0. -1.
          1    1    1    2  502    0  0.52653387585E+02  0.15970307189E+02  0.28667853535E+03  0.29191096685E+03  0.00000000000E+00 0. -1.
         22    1    3    3    0    0 -0.87682207159E+02  0.84119641487E+02 -0.69479252067E+02  0.13997017541E+03  0.00000000000E+00 0. -1.
         22    1    3    3    0    0 -0.15602169175E+02 -0.40614851571E+02 -0.53476691213E+01  0.43835960308E+02  0.00000000000E+00 0. -1.
</event>
<event>
 7    1  0.6358809E-006  0.1157465E+03  0.7818608E-02  0.1257306E+00
          2   -1    0    0  502    0  0.00000000000E+00  0.00000000000E+00  0.13307461879E+04  0.13307461879E+04  0.00000000000E+00 0. -1.
          1   -1    0    0  501    0 -0.00000000000E+00 -0.00000000000E+00 -0.83063948628E+03  0.83063948628E+03  0.00000000000E+00 0. -1.
         25    2    1    2    0    0  0.69987593224E+02  0.18507638947E+03  0.29420601430E+03  0.37594346573E+03  0.12499910971E+03 0.  0.
          2    1    1    2  501    0 -0.78023581165E+02 -0.74605286880E+02 -0.78297538944E+03  0.79038224203E+03  0.00000000000E+00 0. -1.
          1    1    1    2  502    0  0.80359879416E+01 -0.11047110259E+03  0.98887607675E+03  0.99505996643E+03  0.00000000000E+00 0. -1.
         22    1    3    3    0    0 -0.14840767280E+02  0.13373116593E+03  0.17923980686E+03  0.22412313910E+03  0.00000000000E+00 0.  1.
         22    1    3    3    0    0  0.84828360503E+02  0.51345223541E+02  0.11496620744E+03  0.15182032663E+03  0.00000000000E+00 0.  1.
</event>
<event>
 7    1  0.6358809E-006  0.1545885E+03  0.7818608E-02  0.1308069E+00
          2   -1    0    0  502    0  0.00000000000E+00  0.00000000000E+00  0.11916260427E+04  0.11916260427E+04  0.00000000000E+00 0. -1.
          1   -1    0    0  501    0 -0.00000000000E+00 -0.00000000000E+00 -0.96323070158E+03  0.96323070158E+03  0.00000000000E+00 0. -1.
         25    2    1    2    0    0 -0.99028268871E+02 -0.46719475941E+02  0.29417279834E+02  0.16875973602E+03  0.12500065872E+03 0.  0.
          2    1    1    2  501    0 -0.49107425135E+02 -0.91775416762E+01 -0.88711666285E+03  0.88852222256E+03  0.00000000000E+00 0. -1.
          1    1    1    2  502    0  0.14813569401E+03  0.55897017617E+02  0.10860947241E+04  0.10975747857E+04  0.00000000000E+00 0. -1.
         22    1    3    3    0    0 -0.38651006955E+02 -0.19318769945E+02 -0.49486543485E+02  0.65696523477E+02  0.00000000000E+00 0. -1.
         22    1    3    3    0    0 -0.60377261917E+02 -0.27400705996E+02  0.78903823319E+02  0.10306321254E+03  0.00000000000E+00 0. -1.
</event>
<event>
 7    1  0.6358809E-006  0.1039139E+03  0.7818608E-02  0.1428645E+00
          2   -1    0    0  502    0  0.00000000000E+00  0.00000000000E+00  0.10694967449E+04  0.10694967449E+04  0.00000000000E+00 0. -1.
          1   -1    0    0  501    0 -0.00000000000E+00 -0.00000000000E+00 -0.86716723490E+03  0.86716723490E+03  0.00000000000E+00 0. -1.
         25    2    1    2    0    0 -0.12536839620E+02 -0.78106619011E+02  0.49464796179E+02  0.15598861026E+03  0.12501145623E+03 0.  0.
          2    1    1    2  501    0  0.59585786446E+01  0.10457148609E+03 -0.81034177825E+03  0.81708291987E+03  0.00000000000E+00 0. -1.
          1    1    1    2  502    0  0.65782609755E+01 -0.26464867081E+02  0.96320649206E+03  0.96359244967E+03  0.00000000000E+00 0. -1.
         22    1    3    3    0    0 -0.10359703368E+02 -0.69054572025E+02 -0.29986465511E+02  0.75993720039E+02  0.00000000000E+00 0.  1.
         22    1    3    3    0    0 -0.21771362521E+01 -0.90520469861E+01  0.79451261690E+02  0.79994890218E+02  0.00000000000E+00 0.  1.
</event>
<event>
 7    1  0.6358809E-006  0.7828118E+02  0.7818608E-02  0.1419957E+00
          2   -1    0    0  502    0  0.00000000000E+00  0.00000000000E+00  0.20352978606E+03  0.20352978606E+03  0.00000000000E+00 0. -1.
          1   -1    0    0  501    0 -0.00000000000E+00 -0.00000000000E+00 -0.78164477197E+03  0.78164477197E+03  0.00000000000E+00 0. -1.
         25    2    1    2    0    0  0.39087968851E+02  0.63019362427E+02 -0.13807184600E+03  0.20047356966E+03  0.12500603235E+03 0.  0.
          2    1    1    2  501    0 -0.35280142117E+02  0.15869012735E+02 -0.60266986061E+03  0.60391015464E+03  0.00000000000E+00 0. -1.
          1    1    1    2  502    0 -0.38078267340E+01 -0.78888375161E+02  0.16262672069E+03  0.18079083373E+03  0.00000000000E+00 0. -1.
         22    1    3    3    0    0 -0.38912796334E+02  0.47901155337E+02 -0.37165713961E+02  0.72041770490E+02  0.00000000000E+00 0.  1.
         22    1    3    3    0    0  0.78000765185E+02  0.15118207090E+02 -0.10090613204E+03  0.12843179917E+03  0.00000000000E+00 0.  1.
</event>
<event>
 7    1  0.6358809E-006  0.9364233E+02  0.7818608E-02  0.1329961E+00
          2   -1    0    0  502    0  0.00000000000E+00  0.00000000000E+00  0.22073478367E+04  0.22073478367E+04  0.00000000000E+00 0. -1.
          1   -1    0    0  501    0 -0.00000000000E+00 -0.00000000000E+00 -0.10562354675E+03  0.10562354675E+03  0.00000000000E+00 0. -1.
         25    2    1    2    0    0 -0.36540204397E+02  0.27986276618E+01 -0.10387780689E+02  0.13067521040E+03  0.12500034308E+03 0.  0.
          2    1    1    2  501    0 -0.45047015831E+02 -0.50671614220E+02 -0.26653227967E+00  0.67800569041E+02  0.00000000000E+00 0. -1.
          1    1    1    2  502    0  0.81587220227E+02  0.47872986558E+02  0.21123786030E+04  0.21144956041E+04  0.00000000000E+00 0. -1.
         22    1    3    3    0    0 -0.63041419853E+02  0.45476680299E+02 -0.18199740338E+02  0.79834701831E+02  0.00000000000E+00 0.  1.
         22    1    3    3    0    0  0.26501215456E+02 -0.42678052637E+02  0.78119596494E+01  0.50840508565E+02  0.00000000000E+00 0.  1.
</event>
<event>
 7    1  0.6358809E-006  0.3430920E+02  0.7818608E-02  0.1591581E+00
          2   -1    0    0  502    0  0.00000000000E+00  0.00000000000E+00  0.28369789330E+03  0.28369789330E+03  0.00000000000E+00 0. -1.
          1   -1    0    0  501    0 -0.00000000000E+00 -0.00000000000E+00 -0.24420314085E+04  0.24420314085E+04  0.00000000000E+00 0. -1.
         25    2    1    2    0    0  0.41398366812E+02 -0.20527139140E+02 -0.12267979725E+03  0.18113738113E+03  0.12500091989E+03 0.  0.
          2    1    1    2  501    0 -0.15946005068E+02  0.30362703241E+02 -0.22892625283E+04  0.22895194021E+04  0.00000000000E+00 0. -1.
          1    1    1    2  502    0 -0.25452361744E+02 -0.98355641002E+01  0.25360881038E+03  0.25507251860E+03  0.00000000000E+00 0. -1.
         22    1    3    3    0    0  0.26604454986E+02 -0.64977961308E+02 -0.11340286451E+03  0.13337969170E+03  0.00000000000E+00 0.  1.
         22    1    3    3    0    0  0.14793911826E+02  0.44450822167E+02 -0.92769327445E+01  0.47757689429E+02  0.00000000000E+00 0.  1.
</event>
<event>
 7    1  0.6358809E-006  0.1090693E+03  0.7818608E-02  0.1321210E+00
          2   -1    0    0  502    0  0.00000000000E+00  0.00000000000E+00  0.72776117351E+03  0.72776117351E+03  0.00000000000E+00 0. -1.
          1   -1    0    0  501    0 -0.00000000000E+00 -0.00000000000E+00 -0.53673105943E+03  0.53673105943E+03  0.00000000000E+00 0. -1.
         25    2    1    2    0    0  0.11551213274E+03 -0.39135023599E+02 -0.75410982664E+02  0.19022716314E+03  0.12499981763E+03 0.  0.
          2    1    1    2  501    0 -0.87939080155E+01  0.62283918174E+02 -0.39697204253E+03  0.40192464696E+03  0.00000000000E+00 0. -1.
          1    1    1    2  502    0 -0.10671822473E+03 -0.23148894575E+02  0.66341313927E+03  0.67234042283E+03  0.00000000000E+00 0. -1.
         22    1    3    3    0    0 -0.23274905748E+02 -0.20501753117E+01 -0.33013228311E+02  0.40444995981E+02  0.00000000000E+00 0.  1.
         22    1    3    3    0    0  0.13878703849E+03 -0.37084848288E+02 -0.42397754352E+02  0.14978216716E+03  0.00000000000E+00 0.  1.
</event>
<event>
 7    1  0.6358809E-006  0.7421949E+02  0.7818608E-02  0.1502505E+00
          2   -1    0    0  502    0  0.00000000000E+00  0.00000000000E+00  0.67651681354E+03  0.67651681354E+03  0.00000000000E+00 0. -1.
          1   -1    0    0  501    0 -0.00000000000E+00 -0.00000000000E+00 -0.17187284286E+04  0.17187284286E+04  0.00000000000E+00 0. -1.
         25    2    1    2    0    0 -0.44510389264E+02  0.32908897664E+02 -0.63944080360E+02  0.15094001614E+03  0.12501948953E+03 0.  0.
          2    1    1    2  501    0  0.66923595495E+02 -0.32986220600E+02 -0.16102238762E+04  0.16119515470E+04  0.00000000000E+00 0. -1.
          1    1    1    2  502    0 -0.22413206231E+02  0.77322936783E-01  0.63195634150E+03  0.63235367901E+03  0.00000000000E+00 0. -1.
         22    1    3    3    0    0 -0.49150694702E+02 -0.38224848864E+02 -0.46049276277E+02  0.77443306399E+02  0.00000000000E+00 0.  1.
         22    1    3    3    0    0  0.46403054384E+01  0.71133746528E+02 -0.17894804083E+02  0.73496709741E+02  0.00000000000E+00 0.  1.
</event>
<event>
 7    1  0.6358809E-006  0.7930963E+02  0.7818608E-02  0.1478093E+00
          2   -1    0    0  502    0  0.00000000000E+00  0.00000000000E+00  0.10804852273E+04  0.10804852273E+04  0.00000000000E+00 0. -1.
          1   -1    0    0  501    0 -0.00000000000E+00 -0.00000000000E+00 -0.64427611689E+03  0.64427611689E+03  0.00000000000E+00 0. -1.
         25    2    1    2    0    0 -0.30430118565E+01 -0.95305969874E+02  0.41700588608E+03  0.44565788005E+03  0.12499819683E+03 0.  0.
          2    1    1    2  501    0  0.15616782954E+02  0.19344643297E+02 -0.62742000480E+03  0.62791238366E+03  0.00000000000E+00 0. -1.
          1    1    1    2  502    0 -0.12573771098E+02  0.75961326577E+02  0.64662322915E+03  0.65119108050E+03  0.00000000000E+00 0. -1.
         22    1    3    3    0    0 -0.57581496678E+02 -0.25631524367E+02  0.23467722186E+03  0.24299383173E+03  0.00000000000E+00 0.  1.
         22    1    3    3    0    0  0.54538484822E+02 -0.69674445507E+02  0.18232866422E+03  0.20266404832E+03  0.00000000000E+00 0.  1.
</event>
<event>
 7    1  0.6358809E-006  0.1813312E+03  0.7818608E-02  0.1313520E+00
          2   -1    0    0  502    0  0.00000000000E+00  0.00000000000E+00  0.28478193593E+04  0.28478193593E+04  0.00000000000E+00 0. -1.
          1   -1    0    0  501    0 -0.00000000000E+00 -0.00000000000E+00 -0.80301156000E+03  0.80301156000E+03  0.00000000000E+00 0. -1.
         25    2    1    2    0    0 -0.10940567636E+03 -0.19180191726E+03 -0.39837310911E+03  0.47231715094E+03  0.12499911811E+03 0.  0.
          2    1    1    2  501    0  0.26039676160E+02  0.31067160484E+02 -0.36362300050E+03  0.36587555218E+03  0.00000000000E+00 0. -1.
          1    1    1    2  502    0  0.83366000197E+02  0.16073475678E+03  0.28068039089E+04  0.28126382162E+04  0.00000000000E+00 0. -1.
         22    1    3    3    0    0 -0.81705193237E+02 -0.20362164338E+03 -0.37386331675E+03  0.43348736067E+03  0.00000000000E+00 0.  1.
         22    1    3    3    0    0 -0.27700483120E+02  0.11819726117E+02 -0.24509792359E+02  0.38829790265E+02  0.00000000000E+00 0.  1.
</event>
<event>
 7    1  0.6358809E-006  0.4923574E+02  0.7818608E-02  0.1518082E+00
          2   -1    0    0  502    0  0.00000000000E+00  0.00000000000E+00  0.24642978421E+04  0.24642978421E+04  0.00000000000E+00 0. -1.
          1   -1    0    0  501    0 -0.00000000000E+00 -0.00000000000E+00 -0.94951496173E+02  0.94951496173E+02  0.00000000000E+00 0. -1.
         25    2    1    2    0    0 -0.45686758561E+01  0.30602326231E+02  0.14243874831E+04  0.14301964347E+04  0.12499905884E+03 0.  0.
          2    1    1    2  501    0 -0.27126676757E+02  0.13727613793E+02 -0.88799188518E+02  0.93859468642E+02  0.00000000000E+00 0. -1.
          1    1    1    2  502    0  0.31695352613E+02 -0.44329940024E+02  0.10337580513E+04  0.10351934348E+04  0.00000000000E+00 0. -1.
         22    1    3    3    0    0  0.51013830837E+02  0.24045759425E+02  0.10635552258E+04  0.10650494485E+04  0.00000000000E+00 0.  1.
         22    1    3    3    0    0 -0.55582506693E+02  0.65565668059E+01  0.36083225730E+03  0.36514698620E+03  0.00000000000E+00 0.  1.
</event>
<event>
 7    1  0.6358809E-006  0.1018385E+03  0.7818608E-02  0.1322044E+00
          2   -1    0    0  502    0  0.00000000000E+00  0.00000000000E+00  0.28279521168E+04  0.28279521168E+04  0.00000000000E+00 0. -1.
          1   -1    0    0  501    0 -0.00000000000E+00 -0.00000000000E+00 -0.25388738441E+03  0.25388738441E+03  0.00000000000E+00 0. -1.
         25    2    1    2    0    0 -0.17419993229E+02 -0.41445152980E+02  0.13843133433E+03  0.19186792509E+03  0.12501563697E+03 0.  0.
          2    1    1    2  501    0  0.23626237757E+02 -0.62555888013E+02 -0.22120504331E+03  0.23109112796E+03  0.00000000000E+00 0. -1.
          1    1    1    2  502    0 -0.62062445285E+01  0.10400104099E+03  0.26568384414E+04  0.26588804482E+04  0.00000000000E+00 0. -1.
         22    1    3    3    0    0 -0.64148787977E+02 -0.48153470661E+02  0.59400168801E+02  0.99810840038E+02  0.00000000000E+00 0. -1.
         22    1    3    3    0    0  0.46728794748E+02  0.67083176802E+01  0.79031165525E+02  0.92057085056E+02  0.00000000000E+00 0. -1.
</event>
<event>
 7    1  0.6358809E-006  0.3814848E+02  0.7818608E-02  0.1524162E+00
          2   -1    0    0  502    0  0.00000000000E+00  0.00000000000E+00  0.15101623023E+04  0.15101623023E+04  0.00000000000E+00 0. -1.
          1   -1    0    0  501    0 -0.00000000000E+00 -0.00000000000E+00 -0.42787793819E+03  0.42787793819E+03  0.00000000000E+00 0. -1.
         25    2    1    2    0    0  0.61350029898E+02 -0.26083506821E+02  0.33614775181E+03  0.36478084610E+03  0.12500231653E+03 0.  0.
          2    1    1    2  501    0 -0.37545850207E+02 -0.31470642166E+01 -0.41239603114E+03  0.41411360927E+03  0.00000000000E+00 0. -1.
          1    1    1    2  502    0 -0.23804179691E+02  0.29230571037E+02  0.11585326435E+04  0.11591457852E+04  0.00000000000E+00 0. -1.
         22    1    3    3    0    0  0.41164768840E+02 -0.67063333170E+02  0.11752193998E+03  0.14143350108E+03  0.00000000000E+00 0. -1.
         22    1    3    3    0    0  0.20185261058E+02  0.40979826350E+02  0.21862581182E+03  0.22334734502E+03  0.00000000000E+00 0. -1.
</event>
<event>
 7    1  0.6358809E-006  0.2069621E+03  0.7818608E-02  0.1293974E+00
          2   -1    0    0  502    0  0.00000000000E+00  0.00000000000E+00  0.49456703878E+03  0.49456703878E+03  0.00000000000E+00 0. -1.
          1   -1    0    0  501    0 -0.00000000000E+00 -0.00000000000E+00 -0.25628808624E+04  0.25628808624E+04  0.00000000000E+00 0. -1.
         25    2    1    2    0    0  0.16649671291E+03 -0.17385969297E+03 -0.43158792056E+03  0.50974697500E+03  0.12500198835E+03 0.  0.
          2    1    1    2  501    0 -0.95681227878E+01  0.41392237430E+02 -0.20688364074E+04  0.20692725646E+04  0.00000000000E+00 0. -1.
          1    1    1    2  502    0 -0.15692859013E+03  0.13246745554E+03  0.43211050432E+03  0.47842836154E+03  0.00000000000E+00 0. -1.
         22    1    3    3    0    0  0.78480178312E+02 -0.64749324116E+02 -0.74426272201E+02  0.12605904710E+03  0.00000000000E+00 0.  1.
         22    1    3    3    0    0  0.88016534603E+02 -0.10911036885E+03 -0.35716164836E+03  0.38368792790E+03  0.00000000000E+00 0.  1.
</event>
<event>
 7    1  0.6358809E-006  0.1476037E+03  0.7818608E-02  0.1298883E+00
          2   -1    0    0  502    0  0.00000000000E+00  0.00000000000E+00  0.52316470032E+03  0.52316470032E+03  0.00000000000E+00 0. -1.
          1   -1    0    0  501    0 -0.00000000000E+00 -0.00000000000E+00 -0.34859439366E+03  0.34859439366E+03  0.00000000000E+00 0. -1.
         25    2    1    2    0    0  0.11462208913E+03 -0.84381630844E+02 -0.42357465282E+02  0.19409364243E+03  0.12497881510E+03 0.  0.
          2    1    1    2  501    0 -0.37148622546E+02 -0.43124087293E+02 -0.21410495268E+03  0.22154150362E+03  0.00000000000E+00 0. -1.
          1    1    1    2  502    0 -0.77473466589E+02  0.12750571814E+03  0.43103272463E+03  0.45612394794E+03  0.00000000000E+00 0. -1.
         22    1    3    3    0    0 -0.13844225154E+02 -0.47559022924E+02 -0.34225129931E+02  0.60206999181E+02  0.00000000000E+00 0. -1.
         22    1    3    3    0    0  0.12846631429E+03 -0.36822607920E+02 -0.81323353509E+01  0.13388664324E+03  0.00000000000E+00 0. -1.
</event>
<event>
 7    1  0.6358809E-006  0.1108033E+03  0.7818608E-02  0.1348618E+00
          2   -1    0    0  502    0  0.00000000000E+00  0.00000000000E+00  0.25899367348E+04  0.25899367348E+04  0.00000000000E+00 0. -1.
          1   -1    0    0  501    0 -0.00000000000E+00 -0.00000000000E+00 -0.16504906780E+03  0.16504906780E+03  0.00000000000E+00 0. -1.
         25    2    1    2    0    0  0.34723921675E+02  0.56647657684E+02  0.50580743575E+03  0.52524358370E+03  0.12499980924E+03 0.  0.
          2    1    1    2  501    0 -0.75175448989E+02 -0.83836028384E+02 -0.13459603964E+03  0.17548766815E+03  0.00000000000E+00 0. -1.
          1    1    1    2  502    0  0.40451527314E+02  0.27188370701E+02  0.20536762709E+04  0.20542545508E+04  0.00000000000E+00 0. -1.
         22    1    3    3    0    0  0.70027479306E+02 -0.35212001543E+01  0.29392097518E+03  0.30216847347E+03  0.00000000000E+00 0. -1.
         22    1    3    3    0    0 -0.35303557630E+02  0.60168857838E+02  0.21188646057E+03  0.22307511024E+03  0.00000000000E+00 0. -1.
</event>
<event>
 7    1  0.6358809E-006  0.5157549E+02  0.7818608E-02  0.1487693E+00
          2   -1    0    0  502    0  0.00000000000E+00  0.00000000000E+00  0.10207280284E+04  0.10207280284E+04  0.00000000000E+00 0. -1.
          1   -1    0    0  501    0 -0.00000000000E+00 -0.00000000000E+00 -0.20450037914E+03  0.20450037914E+03  0.00000000000E+00 0. -1.
         25    2    1    2    0    0  0.16037343259E+02 -0.15912038380E+02  0.52044768160E+03  0.53572678467E+03  0.12500803647E+03 0.  0.
          2    1    1    2  501    0  0.29244396325E+02 -0.20534783160E+02 -0.19350458652E+03  0.19677636301E+03  0.00000000000E+00 0. -1.
          1    1    1    2  502    0 -0.45281739584E+02  0.36446821540E+02  0.48928455420E+03  0.49272525988E+03  0.00000000000E+00 0. -1.
         22    1    3    3    0    0  0.14741588065E+02  0.30024457151E+02  0.45228294311E+03  0.45351807359E+03  0.00000000000E+00 0.  1.
         22    1    3    3    0    0  0.12957551941E+01 -0.45936495531E+02  0.68164738490E+02  0.82208711075E+02  0.00000000000E+00 0.  1.
</event>
<event>
 7    1  0.6358809E-006  0.1765008E+03  0.7818608E-02  0.1192856E+00
          2   -1    0    0  502    0  0.00000000000E+00  0.00000000000E+00  0.13059136263E+03  0.13059136263E+03  0.00000000000E+00 0. -1.
          1   -1    0    0  501    0 -0.00000000000E+00 -0.00000000000E+00 -0.11291055462E+04  0.11291055462E+04  0.00000000000E+00 0. -1.
         25    2    1    2    0    0 -0.23770036426E+03  0.14377121467E+03 -0.24788371358E+03  0.39273757964E+03  0.12499938267E+03 0.  0.
          2    1    1    2  501    0  0.13085051166E+03 -0.45505081578E+02 -0.69944639213E+03  0.71303423783E+03  0.00000000000E+00 0. -1.
          1    1    1    2  502    0  0.10684985260E+03 -0.98266133095E+02 -0.51184077829E+02  0.15392509132E+03  0.00000000000E+00 0. -1.
         22    1    3    3    0    0 -0.20337996628E+03  0.88955629176E+02 -0.12727086902E+03  0.25587963723E+03  0.00000000000E+00 0.  1.
         22    1    3    3    0    0 -0.34320397984E+02  0.54815585497E+02 -0.12061284455E+03  0.13685794241E+03  0.00000000000E+00 0.  1.
</event>
<event>
 7    1  0.6358809E-006  0.8095375E+02  0.7818608E-02  0.1341014E+00
          2   -1    0    0  502    0  0.00000000000E+00  0.00000000000E+00  0.26839750982E+03  0.26839750982E+03  0.00000000000E+00 0. -1.
          1   -1    0    0  501    0 -0.00000000000E+00 -0.00000000000E+00 -0.94193585761E+02  0.94193585761E+02  0.00000000000E+00 0. -1.
         25    2    1    2    0    0 -0.37369290628E+02  0.96613079141E+01  0.79723540597E+02  0.15320485477E+03  0.12500431932E+03 0.  0.
          2    1    1    2  501    0  0.86750604475E+02 -0.60979428628E+02  0.23043147820E+02  0.10851333906E+03  0.00000000000E+00 0. -1.
          1    1    1    2  502    0 -0.49381313848E+02  0.51318120714E+02  0.71437235643E+02  0.10087290175E+03  0.00000000000E+00 0. -1.
         22    1    3    3    0    0  0.11348259582E+01  0.64105084552E+02  0.40693055271E+02  0.75938622865E+02  0.00000000000E+00 0. -1.
         22    1    3    3    0    0 -0.38504116586E+02 -0.54443776637E+02  0.39030485326E+02  0.77266231909E+02  0.00000000000E+00 0. -1.
</event>
<event>
 7    1  0.6358809E-006  0.6475280E+02  0.7818608E-02  0.1448747E+00
          2   -1    0    0  502    0  0.00000000000E+00  0.00000000000E+00  0.10820591089E+03  0.10820591089E+03  0.00000000000E+00 0. -1.
          1   -1    0    0  501    0 -0.00000000000E+00 -0.00000000000E+00 -0.75450583662E+03  0.75450583662E+03  0.00000000000E+00 0. -1.
         25    2    1    2    0    0  0.36097851820E+02 -0.93175179441E+02 -0.15076337174E+03  0.21986074758E+03  0.12499794038E+03 0.  0.
          2    1    1    2  501    0 -0.28031091451E+02  0.56401767482E+02 -0.56250798232E+03  0.56602308402E+03  0.00000000000E+00 0. -1.
          1    1    1    2  502    0 -0.80667603687E+01  0.36773411959E+02  0.66971428335E+02  0.76827915911E+02  0.00000000000E+00 0. -1.
         22    1    3    3    0    0  0.41183435072E+02  0.16297686518E+02 -0.73351872609E+02  0.85686563272E+02  0.00000000000E+00 0. -1.
         22    1    3    3    0    0 -0.50855832520E+01 -0.10947286596E+03 -0.77411499131E+02  0.13417418431E+03  0.00000000000E+00 0. -1.
</event>
<event>
 7    1  0.6358809E-006  0.5634268E+02  0.7818608E-02  0.1463914E+00
          2   -1    0    0  502    0  0.00000000000E+00  0.00000000000E+00  0.83883338105E+03  0.83883338105E+03  0.00000000000E+00 0. -1.
          1   -1    0    0  501    0 -0.00000000000E+00 -0.00000000000E+00 -0.21127200845E+04  0.21127200845E+04  0.00000000000E+00 0. -1.
         25    2    1    2    0    0  0.85700449510E+02  0.34856447204E+00 -0.16940329898E+03  0.22729947589E+03  0.12499154168E+03 0.  0.
          2    1    1    2  501    0 -0.33239963000E+02  0.19880619170E+02 -0.19131966013E+04  0.19135886103E+04  0.00000000000E+00 0. -1.
          1    1    1    2  502    0 -0.52460486510E+02 -0.20229183642E+02  0.80871319686E+03  0.81066537936E+03  0.00000000000E+00 0. -1.
         22    1    3    3    0    0 -0.47988502751E+01  0.29017935915E+02  0.39288769592E+01  0.29673315334E+02  0.00000000000E+00 0. -1.
         22    1    3    3    0    0  0.90499299785E+02 -0.28669371443E+02 -0.17333217594E+03  0.19762616056E+03  0.00000000000E+00 0. -1.
</event>
<event>
 7    1  0.6358809E-006  0.7720976E+02  0.7818608E-02  0.1409467E+00
          2   -1    0    0  502    0  0.00000000000E+00  0.00000000000E+00  0.11624295290E+04  0.11624295290E+04  0.00000000000E+00 0. -1.
          1   -1    0    0  501    0 -0.00000000000E+00 -0.00000000000E+00 -0.33708811305E+03  0.33708811305E+03  0.00000000000E+00 0. -1.
         25    2    1    2    0    0  0.17322470773E+02 -0.70235216774E+02 -0.20475288480E+03  0.25056549328E+03  0.12500507558E+03 0.  0.
          2    1    1    2  501    0 -0.42446448778E+02 -0.28725373614E+01 -0.10392770071E+03  0.11229835021E+03  0.00000000000E+00 0. -1.
          1    1    1    2  502    0  0.25123978006E+02  0.73107754135E+02  0.11340220014E+04  0.11366537985E+04  0.00000000000E+00 0. -1.
         22    1    3    3    0    0  0.60460979521E+01 -0.38439875560E+02  0.39878086693E+01  0.39116261982E+02  0.00000000000E+00 0. -1.
         22    1    3    3    0    0  0.11276372821E+02 -0.31795341214E+02 -0.20874069347E+03  0.21144923130E+03  0.00000000000E+00 0. -1.
</event>
<event>
 7    1  0.6358809E-006  0.1450403E+03  0.7818608E-02  0.1232043E+00
          2   -1    0    0  502    0  0.00000000000E+00  0.00000000000E+00  0.67620430566E+03  0.67620430566E+03  0.00000000000E+00 0. -1.
          1   -1    0    0  501    0 -0.00000000000E+00 -0.00000000000E+00 -0.77015567161E+03  0.77015567161E+03  0.00000000000E+00 0. -1.
         25    2    1    2    0    0  0.14372445464E+03  0.66371857301E+01  0.89307118584E+02  0.21047873366E+03  0.12499905919E+03 0.  0.
          2    1    1    2  501    0 -0.99383429728E+02 -0.10853507702E+03 -0.69592200056E+03  0.71131171782E+03  0.00000000000E+00 0. -1.
          1    1    1    2  502    0 -0.44341024911E+02  0.10189789129E+03  0.51266351602E+03  0.52456952580E+03  0.00000000000E+00 0. -1.
         22    1    3    3    0    0  0.67356203451E+02 -0.32498263579E+02  0.99053303349E+02  0.12411507637E+03  0.00000000000E+00 0.  1.
         22    1    3    3    0    0  0.76368251187E+02  0.39135449309E+02 -0.97461847649E+01  0.86363657284E+02  0.00000000000E+00 0.  1.
</event>
<event>
 7    1  0.6358809E-006  0.1219882E+03  0.7818608E-02  0.1359280E+00
          2   -1    0    0  502    0  0.00000000000E+00  0.00000000000E+00  0.20242827993E+03  0.20242827993E+03  0.00000000000E+00 0. -1.
          1   -1    0    0  501    0 -0.00000000000E+00 -0.00000000000E+00 -0.23884507083E+04  0.23884507083E+04  0.00000000000E+00 0. -1.
         25    2    1    2    0    0 -0.12438287120E+02  0.15552169856E+03 -0.18566157612E+03  0.27283202567E+03  0.12500153470E+03 0.  0.
          2    1    1    2  501    0 -0.10664432368E+02 -0.39011931923E+02 -0.21367810547E+04  0.21371637599E+04  0.00000000000E+00 0. -1.
          1    1    1    2  502    0  0.23102719489E+02 -0.11650976663E+03  0.13642020244E+03  0.18088320265E+03  0.00000000000E+00 0. -1.
         22    1    3    3    0    0 -0.71909664731E+01  0.24708678723E+02  0.17515196668E+02  0.31128940190E+02  0.00000000000E+00 0. -1.
         22    1    3    3    0    0 -0.52473206473E+01  0.13081301984E+03 -0.20317677279E+03  0.24170308548E+03  0.00000000000E+00 0. -1.
</event>
<event>
 7    1  0.6358809E-006  0.3133702E+03  0.7818608E-02  0.1237974E+00
          2   -1    0    0  502    0  0.00000000000E+00  0.00000000000E+00  0.26255158710E+04  0.26255158710E+04  0.00000000000E+00 0. -1.
          1   -1    0    0  501    0 -0.00000000000E+00 -0.00000000000E+00 -0.72587879254E+03  0.72587879254E+03  0.00000000000E+00 0. -1.
         25    2    1    2    0    0 -0.44330513035E+02 -0.31524078079E+03  0.30746441324E+03  0.45989218671E+03  0.12499805490E+03 0.  0.
          2    1    1    2  501    0  0.90248077554E+02  0.29992825589E+03 -0.61163283617E+03  0.68716548259E+03  0.00000000000E+00 0. -1.
          1    1    1    2  502    0 -0.45917564520E+02  0.15312524904E+02  0.22038055014E+04  0.22043369943E+04  0.00000000000E+00 0. -1.
         22    1    3    3    0    0 -0.25419460639E+02 -0.13373967235E+03  0.51523589318E+02  0.14555799256E+03  0.00000000000E+00 0. -1.
         22    1    3    3    0    0 -0.18911052396E+02 -0.18150110844E+03  0.25594082392E+03  0.31433419416E+03  0.00000000000E+00 0. -1.
</event>
<event>
 7    1  0.6358809E-006  0.6600202E+02  0.7818608E-02  0.1497134E+00
          2   -1    0    0  502    0  0.00000000000E+00  0.00000000000E+00  0.32522041215E+03  0.32522041215E+03  0.00000000000E+00 0. -1.
          1   -1    0    0  501    0 -0.00000000000E+00 -0.00000000000E+00 -0.60240916365E+03  0.60240916365E+03  0.00000000000E+00 0. -1.
         25    2    1    2    0    0  0.36534396799E+02 -0.35765015263E+02 -0.39127367831E+03  0.41392480665E+03  0.12499902303E+03 0.  0.
          2    1    1    2  501    0 -0.45868544167E+02  0.60194214549E+02 -0.19206651855E+03  0.20643840330E+03  0.00000000000E+00 0. -1.
          1    1    1    2  502    0  0.93341473674E+01 -0.24429199287E+02  0.30615144536E+03  0.30726636584E+03  0.00000000000E+00 0. -1.
         22    1    3    3    0    0 -0.10918602176E+02 -0.71316194774E+02 -0.26107807243E+03  0.27086338884E+03  0.00000000000E+00 0. -1.
         22    1    3    3    0    0  0.47452998976E+02  0.35551179511E+02 -0.13019560588E+03  0.14306141781E+03  0.00000000000E+00 0. -1.
</event>
<event>
 7    1  0.6358809E-006  0.5936566E+02  0.7818608E-02  0.1448658E+00
          2   -1    0    0  502    0  0.00000000000E+00  0.00000000000E+00  0.37088393682E+03  0.37088393682E+03  0.00000000000E+00 0. -1.
          1   -1    0    0  501    0 -0.00000000000E+00 -0.00000000000E+00 -0.82556765271E+03  0.82556765271E+03  0.00000000000E+00 0. -1.
         25    2    1    2    0    0  0.38795425577E+02 -0.79321131594E+02 -0.24667534645E+03  0.29029003290E+03  0.12499059840E+03 0.  0.
          2    1    1    2  501    0 -0.35761342567E+02  0.20238553104E+02 -0.55381174426E+03  0.55533406229E+03  0.00000000000E+00 0. -1.
          1    1    1    2  502    0 -0.30340830100E+01  0.59082578490E+02  0.34580337483E+03  0.35082749434E+03  0.00000000000E+00 0. -1.
         22    1    3    3    0    0 -0.22926406218E+02  0.23624279813E+02 -0.57122350306E+02  0.65929428962E+02  0.00000000000E+00 0. -1.
         22    1    3    3    0    0  0.61721831795E+02 -0.10294541141E+03 -0.18955299615E+03  0.22436060393E+03  0.00000000000E+00 0. -1.
</event>
<event>
 7    1  0.6358809E-006  0.7674895E+02  0.7818608E-02  0.1352908E+00
          2   -1    0    0  502    0  0.00000000000E+00  0.00000000000E+00  0.44139249154E+03  0.44139249154E+03  0.00000000000E+00 0. -1.
          1   -1    0    0  501    0 -0.00000000000E+00 -0.00000000000E+00 -0.22046713160E+03  0.22046713160E+03  0.00000000000E+00 0. -1.
         25    2    1    2    0    0  0.63524045023E+02 -0.83291684785E+02 -0.14257846436E+02  0.16371034816E+03  0.12499993143E+03 0.  0.
          2    1    1    2  501    0  0.38776442862E+01  0.75592125855E+02 -0.11707819407E+03  0.13941488135E+03  0.00000000000E+00 0. -1.
          1    1    1    2  502    0 -0.67401689309E+02  0.76995589299E+01  0.35226140044E+03  0.35873439363E+03  0.00000000000E+00 0. -1.
         22    1    3    3    0    0 -0.51022424624E+01 -0.91205010045E+02  0.64983654150E+01  0.91578466293E+02  0.00000000000E+00 0. -1.
         22    1    3    3    0    0  0.68626287485E+02  0.79133252599E+01 -0.20756211851E+02  0.72131881863E+02  0.00000000000E+00 0. -1.
</event>
<event>
 7    1  0.6358809E-006  0.9671829E+02  0.7818608E-02  0.1387643E+00
          2   -1    0    0  502    0  0.00000000000E+00  0.00000000000E+00  0.68562970096E+03  0.68562970096E+03  0.00000000000E+00 0. -1.
          1   -1    0    0  501    0 -0.00000000000E+00 -0.00000000000E+00 -0.49073543813E+03  0.49073543813E+03  0.00000000000E+00 0. -1.
         25    2    1    2    0    0 -0.12170548152E+03 -0.62380806463E+01 -0.25348693966E+02  0.17640492492E+03  0.12500001348E+03 0.  0.
          2    1    1    2  501    0  0.89889719909E+02  0.31109575477E+02 -0.38337179713E+03  0.39499607879E+03  0.00000000000E+00 0. -1.
          1    1    1    2  502    0  0.31815761606E+02 -0.24871494831E+02  0.60361475392E+03  0.60496413538E+03  0.00000000000E+00 0. -1.
         22    1    3    3    0    0  0.24128672969E+02  0.81721077763E+00  0.10081444629E+02  0.26162878635E+02  0.00000000000E+00 0. -1.
         22    1    3    3    0    0 -0.14583415448E+03 -0.70552914239E+01 -0.35430138595E+02  0.15024204629E+03  0.00000000000E+00 0. -1.
</event>
<event>
 7    1  0.6358809E-006  0.1885050E+03  0.7818608E-02  0.1222735E+00
          2   -1    0    0  502    0  0.00000000000E+00  0.00000000000E+00  0.98244732787E+03  0.98244732787E+03  0.00000000000E+00 0. -1.
          1   -1    0    0  501    0 -0.00000000000E+00 -0.00000000000E+00 -0.11064636382E+04  0.11064636382E+04  0.00000000000E+00 0. -1.
         25    2    1    2    0    0 -0.21797283754E+03  0.47926873415E+02 -0.54014126600E+03  0.59765057900E+03  0.12499793696E+03 0.  0.
          2    1    1    2  501    0  0.14267201678E+03 -0.10447337462E+03 -0.52060049048E+03  0.54981347843E+03  0.00000000000E+00 0. -1.
          1    1    1    2  502    0  0.75300820756E+02  0.56546501202E+02  0.93672544613E+03  0.94144690866E+03  0.00000000000E+00 0. -1.
         22    1    3    3    0    0 -0.36880111945E+02 -0.24680745345E+02 -0.20593317857E+03  0.21066028550E+03  0.00000000000E+00 0. -1.
         22    1    3    3    0    0 -0.18109272560E+03  0.72607618760E+02 -0.33420808742E+03  0.38699029350E+03  0.00000000000E+00 0. -1.
</event>
<event>
 7    1  0.6358809E-006  0.1076368E+03  0.7818608E-02  0.1349883E+00
          2   -1    0    0  502    0  0.00000000000E+00  0.00000000000E+00  0.72308643509E+03  0.72308643509E+03  0.00000000000E+00 0. -1.
          1   -1    0    0  501    0 -0.00000000000E+00 -0.00000000000E+00 -0.26298268484E+03  0.26298268484E+03  0.00000000000E+00 0. -1.
         25    2    1    2    0    0  0.10704454478E+03 -0.10715308447E+03  0.12842490255E+03  0.23464495674E+03  0.12499992820E+03 0.  0.
          2    1    1    2  501    0 -0.63756125689E+02  0.82870412650E+02 -0.19561190084E+03  0.22180253517E+03  0.00000000000E+00 0. -1.
          1    1    1    2  502    0 -0.43288419095E+02  0.24282671820E+02  0.52729074854E+03  0.52962162803E+03  0.00000000000E+00 0. -1.
         22    1    3    3    0    0  0.69766407595E+02 -0.43250197342E+02  0.13747049511E+03  0.16011267353E+03  0.00000000000E+00 0.  1.
         22    1    3    3    0    0  0.37278137189E+02 -0.63902887128E+02 -0.90455925608E+01  0.74532283209E+02  0.00000000000E+00 0.  1.
</event>
<event>
 7    1  0.6358809E-006  0.1062291E+03  0.7818608E-02  0.1396029E+00
          2   -1    0    0  502    0  0.00000000000E+00  0.00000000000E+00  0.20527235305E+03  0.20527235305E+03  0.00000000000E+00 0. -1.
          1   -1    0    0  501    0 -0.00000000000E+00 -0.00000000000E+00 -0.31944487036E+03  0.31944487036E+03  0.00000000000E+00 0. -1.
         25    2    1    2    0    0  0.52153935800E+02  0.79190676855E+02  0.13263866158E+02  0.15745510080E+03  0.12499992921E+03 0.  0.
          2    1    1    2  501    0 -0.28881483437E+02 -0.10449412538E+03 -0.23259882451E+03  0.25662302213E+03  0.00000000000E+00 0. -1.
          1    1    1    2  502    0 -0.23272452363E+02  0.25303448527E+02  0.10516244105E+03  0.11063910047E+03  0.00000000000E+00 0. -1.
         22    1    3    3    0    0  0.40640104344E+02 -0.27363441600E+02 -0.28483380427E+01  0.49076359348E+02  0.00000000000E+00 0. -1.
         22    1    3    3    0    0  0.11513831456E+02  0.10655411845E+03  0.16112204201E+02  0.10837874145E+03  0.00000000000E+00 0. -1.
</event>
<event>
 7    1  0.6358809E-006  0.7018907E+02  0.7818608E-02  0.1441464E+00
          2   -1    0    0  502    0  0.00000000000E+00  0.00000000000E+00  0.44998002496E+03  0.44998002496E+03  0.00000000000E+00 0. -1.
          1   -1    0    0  501    0 -0.00000000000E+00 -0.00000000000E+00 -0.77257652696E+02  0.77257652696E+02  0.00000000000E+00 0. -1.
         25    2    1    2    0    0 -0.77357186122E+02  0.36134505314E+02  0.11005038697E+03  0.18715229613E+03  0.12500023022E+03 0.  0.
          2    1    1    2  501    0  0.32594067584E+02  0.16780899361E+02 -0.24875324289E+02  0.44302974884E+02  0.00000000000E+00 0. -1.
          1    1    1    2  502    0  0.44763118538E+02 -0.52915404676E+02  0.28754730958E+03  0.29578240664E+03  0.00000000000E+00 0. -1.
         22    1    3    3    0    0 -0.21954077638E+02 -0.45099614018E+02  0.20601400630E+02  0.54225219386E+02  0.00000000000E+00 0. -1.
         22    1    3    3    0    0 -0.55403108484E+02  0.81234119333E+02  0.89448986343E+02  0.13292707674E+03  0.00000000000E+00 0. -1.
</event>
<event>
 7    1  0.6358809E-006  0.3600347E+02  0.7818608E-02  0.1627531E+00
          2   -1    0    0  502    0  0.00000000000E+00  0.00000000000E+00  0.11002735561E+04  0.11002735561E+04  0.00000000000E+00 0. -1.
          1   -1    0    0  501    0 -0.00000000000E+00 -0.00000000000E+00 -0.53028925289E+02  0.53028925289E+02  0.00000000000E+00 0. -1.
         25    2    1    2    0    0  0.31987681315E+02 -0.40683884766E+02  0.92923826619E+03  0.93903443923E+03  0.12499412971E+03 0.  0.
          2    1    1    2  501    0 -0.99548043828E+01  0.18490466131E+02 -0.44273996550E+02  0.49001859542E+02  0.00000000000E+00 0. -1.
          1    1    1    2  502    0 -0.22032876933E+02  0.22193418636E+02  0.16228036114E+03  0.16526618259E+03  0.00000000000E+00 0. -1.
         22    1    3    3    0    0  0.48154863340E+02  0.27874420354E+02  0.58646626098E+03  0.58909977885E+03  0.00000000000E+00 0.  1.
         22    1    3    3    0    0 -0.16167182025E+02 -0.68558305120E+02  0.34277200522E+03  0.34993466038E+03  0.00000000000E+00 0.  1.
</event>
<event>
 7    1  0.6358809E-006  0.9241488E+02  0.7818608E-02  0.1468772E+00
          2   -1    0    0  502    0  0.00000000000E+00  0.00000000000E+00  0.55663823586E+03  0.55663823586E+03  0.00000000000E+00 0. -1.
          1   -1    0    0  501    0 -0.00000000000E+00 -0.00000000000E+00 -0.68624276849E+03  0.68624276849E+03  0.00000000000E+00 0. -1.
         25    2    1    2    0    0  0.10703916700E+03  0.27660036748E+02  0.22326855579E+03  0.27873632286E+03  0.12499051473E+03 0.  0.
          2    1    1    2  501    0 -0.91543576817E+02 -0.10932524678E+02 -0.65485006512E+03  0.66130806311E+03  0.00000000000E+00 0. -1.
          1    1    1    2  502    0 -0.15495590178E+02 -0.16727512071E+02  0.30197697670E+03  0.30283661839E+03  0.00000000000E+00 0. -1.
         22    1    3    3    0    0  0.11231220980E+03  0.40929294092E+02  0.10349691885E+03  0.15811657661E+03  0.00000000000E+00 0. -1.
         22    1    3    3    0    0 -0.52730428097E+01 -0.13269257344E+02  0.11977163694E+03  0.12061974625E+03  0.00000000000E+00 0. -1.
</event>
<event>
 7    1  0.6358809E-006  0.1013668E+03  0.7818608E-02  0.1285561E+00
          2   -1    0    0  502    0  0.00000000000E+00  0.00000000000E+00  0.10688454792E+04  0.10688454792E+04  0.00000000000E+00 0. -1.
          1   -1    0    0  501    0 -0.00000000000E+00 -0.00000000000E+00 -0.47490854904E+03  0.47490854904E+03  0.00000000000E+00 0. -1.
         25    2    1    2    0    0  0.14924416418E+03  0.65781783761E+02  0.28989771792E+03  0.35534011512E+03  0.12499938775E+03 0.  0.
          2    1    1    2  501    0 -0.56986019503E+02 -0.83009576782E+02 -0.43344284362E+03  0.44498392661E+03  0.00000000000E+00 0. -1.
          1    1    1    2  502    0 -0.92258144680E+02  0.17227793021E+02  0.73748205589E+03  0.74342998653E+03  0.00000000000E+00 0. -1.
         22    1    3    3    0    0  0.14573777197E+03  0.35877691019E+02  0.14983739760E+03  0.21208006180E+03  0.00000000000E+00 0. -1.
         22    1    3    3    0    0  0.35063922105E+01  0.29904092741E+02  0.14006032032E+03  0.14326005332E+03  0.00000000000E+00 0. -1.
</event>
<event>
 7    1  0.6358809E-006  0.1882903E+03  0.7818608E-02  0.1257777E+00
          2   -1    0    0  502    0  0.00000000000E+00  0.00000000000E+00  0.25151330286E+04  0.25151330286E+04  0.00000000000E+00 0. -1.
          1   -1    0    0  501    0 -0.00000000000E+00 -0.00000000000E+00 -0.14799814395E+04  0.14799814395E+04  0.00000000000E+00 0. -1.
         25    2    1    2    0    0 -0.15002237199E+03 -0.67475918639E+02  0.20984415044E+03  0.29448093764E+03  0.12499897387E+03 0.  0.
          2    1    1    2  501    0  0.18860846530E+03  0.13864672271E+02 -0.14309582594E+04  0.14434011648E+04  0.00000000000E+00 0. -1.
          1    1    1    2  502    0 -0.38586093319E+02  0.53611246368E+02  0.22562656981E+04  0.22572323657E+04  0.00000000000E+00 0. -1.
         22    1    3    3    0    0 -0.14908439322E+02  0.12813495197E+02 -0.11679131539E+02  0.22865898969E+02  0.00000000000E+00 0.  1.
         22    1    3    3    0    0 -0.13511393266E+03 -0.80289413836E+02  0.22152328198E+03  0.27161503868E+03  0.00000000000E+00 0.  1.
</event>
<event>
 7    1  0.6358809E-006  0.1427589E+03  0.7818608E-02  0.1227695E+00
          2   -1    0    0  502    0  0.00000000000E+00  0.00000000000E+00  0.10657620435E+04  0.10657620435E+04  0.00000000000E+00 0. -1.
          1   -1    0    0  501    0 -0.00000000000E+00 -0.00000000000E+00 -0.13418995033E+04  0.13418995033E+04  0.00000000000E+00 0. -1.
         25    2    1    2    0    0  0.23916941579E+03  0.89084039623E+02  0.14374483445E+03  0.31847072366E+03  0.12499219508E+03 0.  0.
          2    1    1    2  501    0 -0.13804944977E+03 -0.28095119858E+02 -0.12463714386E+04  0.12543080759E+04  0.00000000000E+00 0. -1.
          1    1    1    2  502    0 -0.10111996602E+03 -0.60988919765E+02  0.82648914431E+03  0.83488274717E+03  0.00000000000E+00 0. -1.
         22    1    3    3    0    0  0.78266985324E+02  0.10565789213E+02 -0.13574043214E+02  0.80134958305E+02  0.00000000000E+00 0.  1.
         22    1    3    3    0    0  0.16090243046E+03  0.78518250410E+02  0.15731887766E+03  0.23833576535E+03  0.00000000000E+00 0.  1.
</event>
<event>
 7    1  0.6358809E-006  0.1157165E+03  0.7818608E-02  0.1285377E+00
          2   -1    0    0  502    0  0.00000000000E+00  0.00000000000E+00  0.28673944437E+04  0.28673944437E+04  0.00000000000E+00 0. -1.
          1   -1    0    0  501    0 -0.00000000000E+00 -0.00000000000E+00 -0.39968725300E+03  0.39968725300E+03  0.00000000000E+00 0. -1.
         25    2    1    2    0    0 -0.16098576414E+03  0.14772203021E+02 -0.12026901024E+02  0.20470462127E+03  0.12499880554E+03 0.  0.
          2    1    1    2  501    0  0.55252715744E+02 -0.61072694683E+02 -0.28427212358E+03  0.29596178280E+03  0.00000000000E+00 0. -1.
          1    1    1    2  502    0  0.10573304839E+03  0.46300491662E+02  0.27640062153E+04  0.27664152926E+04  0.00000000000E+00 0. -1.
         22    1    3    3    0    0 -0.10028562306E+03  0.40163461430E+02  0.45581752001E+02  0.11725189099E+03  0.00000000000E+00 0. -1.
         22    1    3    3    0    0 -0.60700141080E+02 -0.25391258409E+02 -0.57608653025E+02  0.87452730283E+02  0.00000000000E+00 0. -1.
</event>
<event>
 7    1  0.6358809E-006  0.6710601E+02  0.7818608E-02  0.1381582E+00
          2   -1    0    0  502    0  0.00000000000E+00  0.00000000000E+00  0.11455153372E+04  0.11455153372E+04  0.00000000000E+00 0. -1.
          1   -1    0    0  501    0 -0.00000000000E+00 -0.00000000000E+00 -0.45814065707E+02  0.45814065707E+02  0.00000000000E+00 0. -1.
         25    2    1    2    0    0 -0.63978812953E+02 -0.59767134818E+02  0.82637895469E+03  0.84035275217E+03  0.12500068959E+03 0.  0.
          2    1    1    2  501    0  0.32934652040E+01  0.67149708467E+02 -0.36583201575E+01  0.67329886132E+02  0.00000000000E+00 0. -1.
          1    1    1    2  502    0  0.60685347749E+02 -0.73825736489E+01  0.27698063696E+03  0.28364676461E+03  0.00000000000E+00 0. -1.
         22    1    3    3    0    0 -0.64923083252E+02 -0.76539603957E+01  0.17367477564E+03  0.18557078850E+03  0.00000000000E+00 0. -1.
         22    1    3    3    0    0  0.94427029856E+00 -0.52113174422E+02  0.65270417905E+03  0.65478196367E+03  0.00000000000E+00 0. -1.
</event>
<event>
 7    1  0.6358809E-006  0.4837349E+02  0.7818608E-02  0.1519304E+00
          2   -1    0    0  502    0  0.00000000000E+00  0.00000000000E+00  0.68142704920E+03  0.68142704920E+03  0.00000000000E+00 0. -1.
          1   -1    0    0  501    0 -0.00000000000E+00 -0.00000000000E+00 -0.73195577647E+03  0.73195577647E+03  0.00000000000E+00 0. -1.
         25    2    1    2    0    0  0.20119395917E+02 -0.61339222791E+02  0.63368549837E+02  0.15429345483E+03  0.12499442688E+03 0.  0.
          2    1    1    2  501    0  0.13979528566E+02  0.27323564208E+02 -0.68513631545E+03  0.68582342853E+03  0.00000000000E+00 0. -1.
          1    1    1    2  502    0 -0.34098924483E+02  0.34015658583E+02  0.57123903834E+03  0.57326594230E+03  0.00000000000E+00 0. -1.
         22    1    3    3    0    0  0.24752343774E+02 -0.48853013332E+02 -0.28311638926E+02  0.61650988091E+02  0.00000000000E+00 0. -1.
         22    1    3    3    0    0 -0.46329478566E+01 -0.12486209459E+02  0.91680188763E+02  0.92642466742E+02  0.00000000000E+00 0. -1.
</event>
<event>
 7    1  0.6358809E-006  0.8898784E+02  0.7818608E-02  0.1312408E+00
          2   -1    0    0  502    0  0.00000000000E+00  0.00000000000E+00  0.10220071427E+04  0.10220071427E+04  0.00000000000E+00 0. -1.
          1   -1    0    0  501    0 -0.00000000000E+00 -0.00000000000E+00 -0.60075073560E+03  0.60075073560E+03  0.00000000000E+00 0. -1.
         25    2    1    2    0    0 -0.44041450936E+02  0.20824075313E+02  0.41226433918E+03  0.43354338624E+03  0.12499876350E+03 0.  0.
          2    1    1    2  501    0 -0.33591884524E+01 -0.89487859244E+02 -0.58377528202E+03  0.59060387824E+03  0.00000000000E+00 0. -1.
          1    1    1    2  502    0  0.47400639388E+02  0.68663783931E+02  0.59276734993E+03  0.59861061382E+03  0.00000000000E+00 0. -1.
         22    1    3    3    0    0 -0.25594425205E+02 -0.20349116025E+02  0.37088732501E+03  0.37232589082E+03  0.00000000000E+00 0. -1.
         22    1    3    3    0    0 -0.18447025730E+02  0.41173191338E+02  0.41377014174E+02  0.61217495417E+02  0.00000000000E+00 0. -1.
</event>
<event>
 7    1  0.6358809E-006  0.9228691E+02  0.7818608E-02  0.1355246E+00
          2   -1    0    0  502    0  0.00000000000E+00  0.00000000000E+00  0.13373219330E+04  0.13373219330E+04  0.00000000000E+00 0. -1.
          1   -1    0    0  501    0 -0.00000000000E+00 -0.00000000000E+00 -0.13921762752E+03  0.13921762752E+03  0.00000000000E+00 0. -1.
         25    2    1    2    0    0 -0.12015250106E+03  0.47486575487E+02  0.10059604789E+03  0.20599964179E+03  0.12499875680E+03 0.  0.
          2    1    1    2  501    0  0.28822473270E+02 -0.47206927575E+02 -0.75715871697E+02  0.93766316998E+02  0.00000000000E+00 0. -1.
          1    1    1    2  502    0  0.91330027793E+02 -0.27964791243E+00  0.11732241293E+04  0.11767736018E+04  0.00000000000E+00 0. -1.
         22    1    3    3    0    0 -0.96897129829E+02 -0.26894737935E+02  0.68732665502E+02  0.12180541862E+03  0.00000000000E+00 0. -1.
         22    1    3    3    0    0 -0.23255371234E+02  0.74381313423E+02  0.31863382384E+02  0.84194223167E+02  0.00000000000E+00 0. -1.
</event>
<event>
 7    1  0.6358809E-006  0.4923530E+02  0.7818608E-02  0.1463509E+00
          2   -1    0    0  502    0  0.00000000000E+00  0.00000000000E+00  0.10683435595E+04  0.10683435595E+04  0.00000000000E+00 0. -1.
          1   -1    0    0  501    0 -0.00000000000E+00 -0.00000000000E+00 -0.14056664206E+04  0.14056664206E+04  0.00000000000E+00 0. -1.
         25    2    1    2    0    0 -0.67442373331E+02  0.41376444023E+02 -0.18409500279E+01  0.14794958845E+03  0.12500083114E+03 0.  0.
          2    1    1    2  501    0  0.49109248384E+02 -0.88035387849E+00 -0.13298211952E+04  0.13307279603E+04  0.00000000000E+00 0. -1.
          1    1    1    2  502    0  0.18333124946E+02 -0.40496090144E+02  0.99433928415E+03  0.99533243130E+03  0.00000000000E+00 0. -1.
         22    1    3    3    0    0 -0.60318049118E+02 -0.35920129113E+02 -0.37293439497E+01  0.70302423366E+02  0.00000000000E+00 0. -1.
         22    1    3    3    0    0 -0.71243242129E+01  0.77296573136E+02  0.18883939219E+01  0.77647165084E+02  0.00000000000E+00 0. -1.
</event>
<event>
 7    1  0.6358809E-006  0.2377668E+02  0.7818608E-02  0.1694594E+00
          2   -1    0    0  502    0  0.00000000000E+00  0.00000000000E+00  0.20541587045E+04  0.20541587045E+04  0.00000000000E+00 0. -1.
          1   -1    0    0  501    0 -0.00000000000E+00 -0.00000000000E+00 -0.68151789773E+03  0.68151789773E+03  0.00000000000E+00 0. -1.
         25    2    1    2    0    0  0.47381228226E+01 -0.45080535361E+01  0.14621797631E+04  0.14675279413E+04  0.12500330623E+03 0.  0.
          2    1    1    2  501    0 -0.50010452532E+01 -0.21305226779E+02 -0.67838457221E+03  0.67873746835E+03  0.00000000000E+00 0. -1.
          1    1    1    2  502    0  0.26292243061E+00  0.25813280315E+02  0.58884561589E+03  0.58941119257E+03  0.00000000000E+00 0. -1.
         22    1    3    3    0    0  0.74986348312E+01  0.58537812604E+02  0.86873720600E+03  0.87073947776E+03  0.00000000000E+00 0. -1.
         22    1    3    3    0    0 -0.27605120086E+01 -0.63045866140E+02  0.59344255709E+03  0.59678846355E+03  0.00000000000E+00 0. -1.
</event>
<event>
 7    1  0.6358809E-006  0.8225711E+02  0.7818608E-02  0.1390432E+00
          2   -1    0    0  502    0  0.00000000000E+00  0.00000000000E+00  0.19823559835E+03  0.19823559835E+03  0.00000000000E+00 0. -1.
          1   -1    0    0  501    0 -0.00000000000E+00 -0.00000000000E+00 -0.24451693810E+04  0.24451693810E+04  0.00000000000E+00 0. -1.
         25    2    1    2    0    0  0.20826166280E+02  0.30740493296E+02 -0.31587606885E+03  0.34173229963E+03  0.12499826640E+03 0.  0.
          2    1    1    2  501    0  0.24897583078E+02  0.39189515388E+02 -0.21066784403E+04  0.21071900148E+04  0.00000000000E+00 0. -1.
          1    1    1    2  502    0 -0.45723749359E+02 -0.69930008684E+02  0.17562072650E+03  0.19448266490E+03  0.00000000000E+00 0. -1.
         22    1    3    3    0    0 -0.15948212440E+02  0.12900474737E+02 -0.29522786079E+03  0.29593961802E+03  0.00000000000E+00 0.  1.
         22    1    3    3    0    0  0.36774378720E+02  0.17840018558E+02 -0.20648208066E+02  0.45792681607E+02  0.00000000000E+00 0.  1.
</event>
<event>
 7    1  0.6358809E-006  0.1039251E+03  0.7818608E-02  0.1442982E+00
          2   -1    0    0  502    0  0.00000000000E+00  0.00000000000E+00  0.50002043664E+03  0.50002043664E+03  0.00000000000E+00 0. -1.
          1   -1    0    0  501    0 -0.00000000000E+00 -0.00000000000E+00 -0.62348256483E+02  0.62348256483E+02  0.00000000000E+00 0. -1.
         25    2    1    2    0    0 -0.25849854810E+02 -0.97433530090E+02  0.27183272831E+03  0.31571628148E+03  0.12498892121E+03 0.  0.
          2    1    1    2  501    0  0.22549297557E+02 -0.95318571264E+01 -0.20392705219E+02  0.31862039274E+02  0.00000000000E+00 0. -1.
          1    1    1    2  502    0  0.33005572529E+01  0.10696538722E+03  0.18623215706E+03  0.21479037237E+03  0.00000000000E+00 0. -1.
         22    1    3    3    0    0  0.13114810515E+02 -0.81735410657E+02  0.66650049969E+02  0.10627748948E+03  0.00000000000E+00 0.  1.
         22    1    3    3    0    0 -0.38964665325E+02 -0.15698119433E+02  0.20518267835E+03  0.20943879199E+03  0.00000000000E+00 0.  1.
</event>
<event>
 7    1  0.6358809E-006  0.3106123E+03  0.7818608E-02  0.1191806E+00
          2   -1    0    0  502    0  0.00000000000E+00  0.00000000000E+00  0.41714479152E+03  0.41714479152E+03  0.00000000000E+00 0. -1.
          1   -1    0    0  501    0 -0.00000000000E+00 -0.00000000000E+00 -0.32310655279E+04  0.32310655279E+04  0.00000000000E+00 0. -1.
         25    2    1    2    0    0  0.13070497181E+03 -0.20494369614E+03 -0.22046886391E+03  0.35116327256E+03  0.12499366304E+03 0.  0.
          2    1    1    2  501    0 -0.19239634410E+03  0.25530310143E+03 -0.29319402789E+04  0.29493168405E+04  0.00000000000E+00 0. -1.
          1    1    1    2  502    0  0.61691372290E+02 -0.50359405288E+02  0.33848840642E+03  0.34773020633E+03  0.00000000000E+00 0. -1.
         22    1    3    3    0    0  0.99397399197E+02 -0.20040017882E+03 -0.22717613743E+03  0.31882451609E+03  0.00000000000E+00 0. -1.
         22    1    3    3    0    0  0.31307572613E+02 -0.45435173139E+01  0.67072735183E+01  0.32338756478E+02  0.00000000000E+00 0. -1.
</event>
<event>
 7    1  0.6358809E-006  0.6997344E+02  0.7818608E-02  0.1486497E+00
          2   -1    0    0  502    0  0.00000000000E+00  0.00000000000E+00  0.19761225397E+03  0.19761225397E+03  0.00000000000E+00 0. -1.
          1   -1    0    0  501    0 -0.00000000000E+00 -0.00000000000E+00 -0.18260901105E+03  0.18260901105E+03  0.00000000000E+00 0. -1.
         25    2    1    2    0    0 -0.63759616431E+02 -0.20947785896E+02  0.31333741994E+02  0.14529614980E+03  0.12500027735E+03 0.  0.
          2    1    1    2  501    0  0.70651560941E+02 -0.47022725679E+01 -0.11372895467E+03  0.13397025625E+03  0.00000000000E+00 0. -1.
          1    1    1    2  502    0 -0.68919445100E+01  0.25650058464E+02  0.97398455594E+02  0.10095485897E+03  0.00000000000E+00 0. -1.
         22    1    3    3    0    0 -0.80547261035E+02  0.17221088479E+02 -0.14169108948E+02  0.83577453880E+02  0.00000000000E+00 0.  1.
         22    1    3    3    0    0  0.16787644604E+02 -0.38168874374E+02  0.45502850942E+02  0.61718695921E+02  0.00000000000E+00 0.  1.
</event>
<event>
 7    1  0.6358809E-006  0.1135559E+03  0.7818608E-02  0.1317269E+00
          2   -1    0    0  502    0  0.00000000000E+00  0.00000000000E+00  0.37090525225E+03  0.37090525225E+03  0.00000000000E+00 0. -1.
          1   -1    0    0  501    0 -0.00000000000E+00 -0.00000000000E+00 -0.41827471329E+03  0.41827471329E+03  0.00000000000E+00 0. -1.
         25    2    1    2    0    0 -0.50449106603E+02  0.18042183802E+02 -0.20604697209E+03  0.24688111723E+03  0.12499719431E+03 0.  0.
          2    1    1    2  501    0 -0.59631454035E+02  0.18995204568E+02 -0.17665978786E+03  0.18741773863E+03  0.00000000000E+00 0. -1.
          1    1    1    2  502    0  0.11008056064E+03 -0.37037388369E+02  0.33533729891E+03  0.35488110968E+03  0.00000000000E+00 0. -1.
         22    1    3    3    0    0 -0.52020695322E+02  0.22067249014E+02 -0.22265836834E+03  0.22971692409E+03  0.00000000000E+00 0. -1.
         22    1    3    3    0    0  0.15715887189E+01 -0.40250652120E+01  0.16611396247E+02  0.17164193146E+02  0.00000000000E+00 0. -1.
</event>
<event>
 7    1  0.6358809E-006  0.1269049E+03  0.7818608E-02  0.1400559E+00
          2   -1    0    0  502    0  0.00000000000E+00  0.00000000000E+00  0.73639753737E+03  0.73639753737E+03  0.00000000000E+00 0. -1.
          1   -1    0    0  501    0 -0.00000000000E+00 -0.00000000000E+00 -0.67572469096E+03  0.67572469096E+03  0.00000000000E+00 0. -1.
         25    2    1    2    0    0  0.13933920622E+03  0.59564595811E+02 -0.10479439925E+03  0.22264112896E+03  0.12499540281E+03 0.  0.
          2    1    1    2  501    0 -0.11386434534E+03 -0.48532518713E+02 -0.50423454402E+03  0.51920416975E+03  0.00000000000E+00 0. -1.
          1    1    1    2  502    0 -0.25474860885E+02 -0.11032077098E+02  0.66970178968E+03  0.67027692961E+03  0.00000000000E+00 0. -1.
         22    1    3    3    0    0  0.71858358866E+02 -0.15365559598E+02  0.48936979316E+01  0.73645586698E+02  0.00000000000E+00 0. -1.
         22    1    3    3    0    0  0.67480847356E+02  0.74930155409E+02 -0.10968809719E+03  0.14899554226E+03  0.00000000000E+00 0. -1.
</event>
<event>
 7    1  0.6358809E-006  0.7570481E+02  0.7818608E-02  0.1411846E+00
          2   -1    0    0  502    0  0.00000000000E+00  0.00000000000E+00  0.52237436451E+03  0.52237436451E+03  0.00000000000E+00 0. -1.
          1   -1    0    0  501    0 -0.00000000000E+00 -0.00000000000E+00 -0.66880609423E+02  0.66880609423E+02  0.00000000000E+00 0. -1.
         25    2    1    2    0    0  0.60375257963E+01 -0.44356104233E+02  0.13145649134E+03  0.18684190159E+03  0.12500068549E+03 0.  0.
          2    1    1    2  501    0 -0.24215557233E+02 -0.35038218186E+02 -0.21285800400E+02  0.47614653673E+02  0.00000000000E+00 0. -1.
          1    1    1    2  502    0  0.18178031436E+02  0.79394322419E+02  0.34532306415E+03  0.35479841867E+03  0.00000000000E+00 0. -1.
         22    1    3    3    0    0 -0.50205290107E+02 -0.20645500441E+02  0.16585004731E+02  0.56761520637E+02  0.00000000000E+00 0. -1.
         22    1    3    3    0    0  0.56242815903E+02 -0.23710603792E+02  0.11487148661E+03  0.13008038095E+03  0.00000000000E+00 0. -1.
</event>
<event>
 7    1  0.6358809E-006  0.8850602E+02  0.7818608E-02  0.1367555E+00
          2   -1    0    0  502    0  0.00000000000E+00  0.00000000000E+00  0.20627167812E+04  0.20627167812E+04  0.00000000000E+00 0. -1.
          1   -1    0    0  501    0 -0.00000000000E+00 -0.00000000000E+00 -0.25197981261E+04  0.25197981261E+04  0.00000000000E+00 0. -1.
         25    2    1    2    0    0  0.98999917949E+02 -0.14012374769E+02 -0.13982161268E+03  0.21253746617E+03  0.12499904300E+03 0.  0.
          2    1    1    2  501    0 -0.17654992515E+02  0.48929581334E+02 -0.23423629102E+04  0.23429404188E+04  0.00000000000E+00 0. -1.
          1    1    1    2  502    0 -0.81344925434E+02 -0.34917206565E+02  0.20251031780E+04  0.20270370223E+04  0.00000000000E+00 0. -1.
         22    1    3    3    0    0  0.24912116896E+01 -0.26491430919E+02 -0.10635246821E+03  0.10963051374E+03  0.00000000000E+00 0.  1.
         22    1    3    3    0    0  0.96508706259E+02  0.12479056150E+02 -0.33469144470E+02  0.10290695243E+03  0.00000000000E+00 0.  1.
</event>
<event>
 7    1  0.6358809E-006  0.1248435E+03  0.7818608E-02  0.1344437E+00
          2   -1    0    0  502    0  0.00000000000E+00  0.00000000000E+00  0.16681976899E+04  0.16681976899E+04  0.00000000000E+00 0. -1.
          1   -1    0    0  501    0 -0.00000000000E+00 -0.00000000000E+00 -0.59657437024E+02  0.59657437024E+02  0.00000000000E+00 0. -1.
         25    2    1    2    0    0  0.53760307162E+02 -0.63758043420E+02  0.12552353398E+04  0.12641982787E+04  0.12500508382E+03 0.  0.
          2    1    1    2  501    0 -0.73400572508E+02  0.10406527652E+03  0.21880176796E+02  0.12921287846E+03  0.00000000000E+00 0. -1.
          1    1    1    2  502    0  0.19640265347E+02 -0.40307233103E+02  0.33142473632E+03  0.33444396976E+03  0.00000000000E+00 0. -1.
         22    1    3    3    0    0  0.43944670877E+02 -0.97235493145E+02  0.10962182094E+04  0.11013992182E+04  0.00000000000E+00 0. -1.
         22    1    3    3    0    0  0.98156362843E+01  0.33477449725E+02  0.15901713042E+03  0.16279906057E+03  0.00000000000E+00 0. -1.
</event>
<event>
 7    1  0.6358809E-006  0.1850463E+03  0.7818608E-02  0.1251329E+00
          2   -1    0    0  502    0  0.00000000000E+00  0.00000000000E+00  0.23675404618E+04  0.23675404618E+04  0.00000000000E+00 0. -1.
          1   -1    0    0  501    0 -0.00000000000E+00 -0.00000000000E+00 -0.17840133883E+04  0.17840133883E+04  0.00000000000E+00 0. -1.
         25    2    1    2    0    0  0.18224364566E+03  0.10782135161E+03 -0.18915095725E+03  0.31022909685E+03  0.12500327060E+03 0.  0.
          2    1    1    2  501    0 -0.17999038775E+03 -0.36208709313E+02 -0.15282714865E+04  0.15392599998E+04  0.00000000000E+00 0. -1.
          1    1    1    2  502    0 -0.22532579092E+01 -0.71612642298E+02  0.23009495173E+04  0.23020647534E+04  0.00000000000E+00 0. -1.
         22    1    3    3    0    0  0.14156337670E+03  0.13603026662E+03 -0.14821208044E+03  0.24599033283E+03  0.00000000000E+00 0. -1.
         22    1    3    3    0    0  0.40680268961E+02 -0.28208915008E+02 -0.40938876809E+02  0.64238764022E+02  0.00000000000E+00 0. -1.
</event>
<event>
 7    1  0.6358809E-006  0.9427994E+02  0.7818608E-02  0.1419806E+00
          2   -1    0    0  502    0  0.00000000000E+00  0.00000000000E+00  0.14092130854E+03  0.14092130854E+03  0.00000000000E+00 0. -1.
          1   -1    0    0  501    0 -0.00000000000E+00 -0.00000000000E+00 -0.13859775892E+04  0.13859775892E+04  0.00000000000E+00 0. -1.
         25    2    1    2    0    0 -0.58742110802E+01  0.70717019736E+02 -0.96177282681E+03  0.97245440048E+03  0.12500074954E+03 0.  0.
          2    1    1    2  501    0 -0.26421954364E+02  0.18329998505E+02 -0.40159801864E+03  0.40288345349E+03  0.00000000000E+00 0. -1.
          1    1    1    2  502    0  0.32296165444E+02 -0.89047018241E+02  0.11831456476E+03  0.15156104379E+03  0.00000000000E+00 0. -1.
         22    1    3    3    0    0  0.48387956268E+02  0.62562524463E+02 -0.38268205336E+03  0.39076977588E+03  0.00000000000E+00 0. -1.
         22    1    3    3    0    0 -0.54262167348E+02  0.81544952723E+01 -0.57909077345E+03  0.58168462459E+03  0.00000000000E+00 0. -1.
</event>
<event>
 7    1  0.6358809E-006  0.9675824E+02  0.7818608E-02  0.1352844E+00
          2   -1    0    0  502    0  0.00000000000E+00  0.00000000000E+00  0.28368273813E+04  0.28368273813E+04  0.00000000000E+00 0. -1.
          1   -1    0    0  501    0 -0.00000000000E+00 -0.00000000000E+00 -0.19199900241E+03  0.19199900241E+03  0.00000000000E+00 0. -1.
         25    2    1    2    0    0  0.90751530154E+02  0.11503936094E+03  0.98331891708E+03  0.10020033257E+04  0.12499870864E+03 0.  0.
          2    1    1    2  501    0 -0.46748535143E+02 -0.84015673496E+02 -0.16958142637E+03  0.19494080923E+03  0.00000000000E+00 0. -1.
          1    1    1    2  502    0 -0.44002995011E+02 -0.31023687447E+02  0.18310908882E+04  0.18318822488E+04  0.00000000000E+00 0. -1.
         22    1    3    3    0    0  0.78068826906E+01 -0.13142909783E+02  0.35760477659E+03  0.35793136176E+03  0.00000000000E+00 0. -1.
         22    1    3    3    0    0  0.82944647464E+02  0.12818227073E+03  0.62571414049E+03  0.64407196390E+03  0.00000000000E+00 0. -1.
</event>
<event>
 7    1  0.6358809E-006  0.8817756E+02  0.7818608E-02  0.1401997E+00
          2   -1    0    0  502    0  0.00000000000E+00  0.00000000000E+00  0.13447096403E+04  0.13447096403E+04  0.00000000000E+00 0. -1.
          1   -1    0    0  501    0 -0.00000000000E+00 -0.00000000000E+00 -0.30204919539E+03  0.30204919539E+03  0.00000000000E+00 0. -1.
         25    2    1    2    0    0 -0.11012395573E+03  0.29648483177E+02  0.35359281151E+03  0.39199733985E+03  0.12501087919E+03 0.  0.
          2    1    1    2  501    0  0.74427018972E+02 -0.46564090286E+02 -0.27562045440E+03  0.28926498326E+03  0.00000000000E+00 0. -1.
          1    1    1    2  502    0  0.35696936757E+02  0.16915607109E+02  0.96468808781E+03  0.96549651258E+03  0.00000000000E+00 0. -1.
         22    1    3    3    0    0 -0.50204842370E+02  0.56778293124E+02  0.78368727361E+02  0.10902274164E+03  0.00000000000E+00 0.  1.
         22    1    3    3    0    0 -0.59919113359E+02 -0.27129809947E+02  0.27522408415E+03  0.28297459820E+03  0.00000000000E+00 0.  1.
</event>
<event>
 7    1  0.6358809E-006  0.9805818E+02  0.7818608E-02  0.1458403E+00
          2   -1    0    0  502    0  0.00000000000E+00  0.00000000000E+00  0.13463740803E+04  0.13463740803E+04  0.00000000000E+00 0. -1.
          1   -1    0    0  501    0 -0.00000000000E+00 -0.00000000000E+00 -0.15031124672E+03  0.15031124672E+03  0.00000000000E+00 0. -1.
         25    2    1    2    0    0  0.15605804811E+02 -0.11532874272E+03  0.17366683744E+03  0.24357518524E+03  0.12499776157E+03 0.  0.
          2    1    1    2  501    0 -0.23701482235E+01  0.96321019010E+02 -0.95097375776E+02  0.13537676014E+03  0.00000000000E+00 0. -1.
          1    1    1    2  502    0 -0.13235656587E+02  0.19007723709E+02  0.11174933719E+04  0.11177333816E+04  0.00000000000E+00 0. -1.
         22    1    3    3    0    0 -0.19503200555E+02 -0.42777165660E+02 -0.52851800676E+01  0.47309553603E+02  0.00000000000E+00 0.  1.
         22    1    3    3    0    0  0.35109005365E+02 -0.72551577059E+02  0.17895201751E+03  0.19626563164E+03  0.00000000000E+00 0.  1.
</event>
<event>
 7    1  0.6358809E-006  0.6218059E+02  0.7818608E-02  0.1477342E+00
          2   -1    0    0  502    0  0.00000000000E+00  0.00000000000E+00  0.90731736888E+02  0.90731736888E+02  0.00000000000E+00 0. -1.
          1   -1    0    0  501    0 -0.00000000000E+00 -0.00000000000E+00 -0.10957054827E+04  0.10957054827E+04  0.00000000000E+00 0. -1.
         25    2    1    2    0    0  0.66219101323E+02  0.39828949055E+02 -0.87991049580E+03  0.89209799203E+03  0.12500012884E+03 0.  0.
          2    1    1    2  501    0 -0.47115354367E+01 -0.31529559867E+02 -0.19686589942E+03  0.19943042413E+03  0.00000000000E+00 0. -1.
          1    1    1    2  502    0 -0.61507565886E+02 -0.82993891875E+01  0.71802649361E+02  0.94908803477E+02  0.00000000000E+00 0. -1.
         22    1    3    3    0    0  0.11729961364E+02  0.32495283374E+02 -0.52404732361E+02  0.62767757718E+02  0.00000000000E+00 0. -1.
         22    1    3    3    0    0  0.54489139958E+02  0.73336656808E+01 -0.82750576344E+03  0.82933023432E+03  0.00000000000E+00 0. -1.
</event>
<event>
 7    1  0.6358809E-006  0.7753631E+02  0.7818608E-02  0.1480908E+00
          2   -1    0    0  502    0  0.00000000000E+00  0.00000000000E+00  0.17721119138E+04  0.17721119138E+04  0.00000000000E+00 0. -1.
          1   -1    0    0  501    0 -0.00000000000E+00 -0.00000000000E+00 -0.39560087443E+02  0.39560087443E+02  0.00000000000E+00 0. -1.
         25    2    1    2    0    0 -0.93244802796E+02  0.27709832682E+02  0.51142521505E+03  0.53539111837E+03  0.12500188386E+03 0.  0.
          2    1    1    2  501    0  0.24572436031E+02  0.42026114203E+01 -0.20543822514E+02  0.32303485860E+02  0.00000000000E+00 0. -1.
          1    1    1    2  502    0  0.68672366765E+02 -0.31912444103E+02  0.12416704338E+04  0.12439773970E+04  0.00000000000E+00 0. -1.
         22    1    3    3    0    0 -0.56795456276E+02  0.73269467674E+02  0.22997656060E+03  0.24795837790E+03  0.00000000000E+00 0. -1.
         22    1    3    3    0    0 -0.36449346521E+02 -0.45559634992E+02  0.28144865445E+03  0.28743274047E+03  0.00000000000E+00 0. -1.
</event>
<event>
 7    1  0.6358809E-006  0.5877694E+02  0.7818608E-02  0.1506588E+00
          2   -1    0    0  502    0  0.00000000000E+00  0.00000000000E+00  0.21061279355E+04  0.21061279355E+04  0.00000000000E+00 0. -1.
          1   -1    0    0  501    0 -0.00000000000E+00 -0.00000000000E+00 -0.26210447571E+03  0.26210447571E+03  0.00000000000E+00 0. -1.
         25    2    1    2    0    0  0.56263828536E+02 -0.36347232744E+02  0.32657914127E+03  0.35604213604E+03  0.12500130957E+03 0.  0.
          2    1    1    2  501    0 -0.24318731457E+02 -0.12890348355E+02 -0.24611765876E+03  0.24765190032E+03  0.00000000000E+00 0. -1.
          1    1    1    2  502    0 -0.31945097080E+02  0.49237581100E+02  0.17635619773E+04  0.17645383749E+04  0.00000000000E+00 0. -1.
         22    1    3    3    0    0  0.74325988191E+01 -0.67494766987E+02  0.25541543526E+03  0.26428740353E+03  0.00000000000E+00 0.  1.
         22    1    3    3    0    0  0.48831229717E+02  0.31147534242E+02  0.71163706012E+02  0.91754732513E+02  0.00000000000E+00 0.  1.
</event>
<event>
 7    1  0.6358809E-006  0.6660752E+02  0.7818608E-02  0.1474364E+00
          2   -1    0    0  502    0  0.00000000000E+00  0.00000000000E+00  0.25481585671E+04  0.25481585671E+04  0.00000000000E+00 0. -1.
          1   -1    0    0  501    0 -0.00000000000E+00 -0.00000000000E+00 -0.61349451044E+02  0.61349451044E+02  0.00000000000E+00 0. -1.
         25    2    1    2    0    0 -0.57354891920E+02  0.59560320693E+01  0.12271682790E+03  0.18441735711E+03  0.12500113523E+03 0.  0.
          2    1    1    2  501    0 -0.50153936260E+01 -0.29980426471E+02 -0.22339486359E+02  0.37723106916E+02  0.00000000000E+00 0. -1.
          1    1    1    2  502    0  0.62370285546E+02  0.24024394402E+02  0.23864317745E+04  0.23873675541E+04  0.00000000000E+00 0. -1.
         22    1    3    3    0    0  0.36885041167E+02  0.15646240695E+02  0.20344540592E+02  0.44935636656E+02  0.00000000000E+00 0. -1.
         22    1    3    3    0    0 -0.94239933087E+02 -0.96902086259E+01  0.10237228730E+03  0.13948172045E+03  0.00000000000E+00 0. -1.
</event>
<event>
 7    1  0.6358809E-006  0.9467656E+02  0.7818608E-02  0.1316962E+00
          2   -1    0    0  502    0  0.00000000000E+00  0.00000000000E+00  0.11043284671E+03  0.11043284671E+03  0.00000000000E+00 0. -1.
          1   -1    0    0  501    0 -0.00000000000E+00 -0.00000000000E+00 -0.15080562748E+04  0.15080562748E+04  0.00000000000E+00 0. -1.
         25    2    1    2    0    0 -0.48379959557E+02  0.86318370443E+02 -0.33823294920E+03  0.37392323605E+03  0.12500230787E+03 0.  0.
          2    1    1    2  501    0  0.93663048938E+02 -0.26192509182E+02 -0.11342472944E+04  0.11384093021E+04  0.00000000000E+00 0. -1.
          1    1    1    2  502    0 -0.45283089381E+02 -0.60125861261E+02  0.74856815460E+02  0.10615658339E+03  0.00000000000E+00 0. -1.
         22    1    3    3    0    0 -0.74166033961E+02  0.78168308086E+02 -0.32759737396E+03  0.34486363161E+03  0.00000000000E+00 0.  1.
         22    1    3    3    0    0  0.25786074403E+02  0.81500623577E+01 -0.10635575239E+02  0.29059604440E+02  0.00000000000E+00 0.  1.
</event>
<event>
 7    1  0.6358809E-006  0.1679436E+03  0.7818608E-02  0.1211090E+00
          2   -1    0    0  502    0  0.00000000000E+00  0.00000000000E+00  0.20570954524E+04  0.20570954524E+04  0.00000000000E+00 0. -1.
          1   -1    0    0  501    0 -0.00000000000E+00 -0.00000000000E+00 -0.10640276048E+04  0.10640276048E+04  0.00000000000E+00 0. -1.
         25    2    1    2    0    0 -0.35551366584E+02 -0.71255661340E+02  0.40268554562E+01  0.14826425935E+03  0.12499922438E+03 0.  0.
          2    1    1    2  501    0  0.15334868467E+03  0.91468803786E+02 -0.98204847984E+03  0.99814907599E+03  0.00000000000E+00 0. -1.
          1    1    1    2  502    0 -0.11779731809E+03 -0.20213142446E+02  0.19710894719E+04  0.19747097219E+04  0.00000000000E+00 0. -1.
         22    1    3    3    0    0 -0.82177999410E+02 -0.53740863423E+02  0.64134644460E+01  0.98399372532E+02  0.00000000000E+00 0. -1.
         22    1    3    3    0    0  0.46626632825E+02 -0.17514797916E+02 -0.23866089898E+01  0.49864886816E+02  0.00000000000E+00 0. -1.
</event>
<event>
 7    1  0.6358809E-006  0.1304595E+03  0.7818608E-02  0.1345890E+00
          2   -1    0    0  502    0  0.00000000000E+00  0.00000000000E+00  0.59013633953E+03  0.59013633953E+03  0.00000000000E+00 0. -1.
          1   -1    0    0  501    0 -0.00000000000E+00 -0.00000000000E+00 -0.16106000558E+03  0.16106000558E+03  0.00000000000E+00 0. -1.
         25    2    1    2    0    0  0.98238984663E+02  0.68723743056E+01  0.82254237995E+02  0.17913399551E+03  0.12500040417E+03 0.  0.
          2    1    1    2  501    0  0.36186716021E+02  0.22048893672E+02 -0.97841965108E+02  0.10662402292E+03  0.00000000000E+00 0. -1.
          1    1    1    2  502    0 -0.13442570068E+03 -0.28921267977E+02  0.44466406105E+03  0.46543832668E+03  0.00000000000E+00 0. -1.
         22    1    3    3    0    0  0.12068127664E+03  0.43468626016E+01  0.33370410802E+02  0.12528547427E+03  0.00000000000E+00 0.  1.
         22    1    3    3    0    0 -0.22442291977E+02  0.25255117040E+01  0.48883827193E+02  0.53848521239E+02  0.00000000000E+00 0.  1.
</event>
<event>
 7    1  0.6358809E-006  0.9142557E+02  0.7818608E-02  0.1416354E+00
          2   -1    0    0  502    0  0.00000000000E+00  0.00000000000E+00  0.55886828979E+03  0.55886828979E+03  0.00000000000E+00 0. -1.
          1   -1    0    0  501    0 -0.00000000000E+00 -0.00000000000E+00 -0.10493161098E+03  0.10493161098E+03  0.00000000000E+00 0. -1.
         25    2    1    2    0    0 -0.10240117389E+03  0.26789614337E+02  0.13930410236E+03  0.21502214510E+03  0.12500082440E+03 0.  0.
          2    1    1    2  501    0  0.75748705433E+02 -0.47990355351E+02 -0.35902966130E+02  0.96591736492E+02  0.00000000000E+00 0. -1.
          1    1    1    2  502    0  0.26652468452E+02  0.21200741014E+02  0.35053554258E+03  0.35218601918E+03  0.00000000000E+00 0. -1.
         22    1    3    3    0    0 -0.10107143049E+03  0.61516553805E+02  0.13576737155E+03  0.18009025412E+03  0.00000000000E+00 0.  1.
         22    1    3    3    0    0 -0.13297433915E+01 -0.34726939468E+02  0.35367308111E+01  0.34931890975E+02  0.00000000000E+00 0.  1.
</event>
<event>
 7    1  0.6358809E-006  0.9057884E+02  0.7818608E-02  0.1341897E+00
          2   -1    0    0  502    0  0.00000000000E+00  0.00000000000E+00  0.88800182459E+03  0.88800182459E+03  0.00000000000E+00 0. -1.
          1   -1    0    0  501    0 -0.00000000000E+00 -0.00000000000E+00 -0.38287919397E+03  0.38287919397E+03  0.00000000000E+00 0. -1.
         25    2    1    2    0    0 -0.65757940040E+02 -0.64309738103E+02 -0.46115614979E+02  0.16189823836E+03  0.12499816217E+03 0.  0.
          2    1    1    2  501    0 -0.25083519382E+02  0.57972837120E+02 -0.27275460493E+03  0.27997340463E+03  0.00000000000E+00 0. -1.
          1    1    1    2  502    0  0.90841459422E+02  0.63369009828E+01  0.82399285053E+03  0.82900937557E+03  0.00000000000E+00 0. -1.
         22    1    3    3    0    0  0.15831093041E+02  0.19589010744E+02 -0.36673117675E+02  0.44488991996E+02  0.00000000000E+00 0.  1.
         22    1    3    3    0    0 -0.81589033081E+02 -0.83898748847E+02 -0.94424973037E+01  0.11740924637E+03  0.00000000000E+00 0.  1.
</event>
<event>
 7    1  0.6358809E-006  0.1210234E+03  0.7818608E-02  0.1303709E+00
          2   -1    0    0  502    0  0.00000000000E+00  0.00000000000E+00  0.96621664872E+02  0.96621664872E+02  0.00000000000E+00 0. -1.
          1   -1    0    0  501    0 -0.00000000000E+00 -0.00000000000E+00 -0.13890912463E+04  0.13890912463E+04  0.00000000000E+00 0. -1.
         25    2    1    2    0    0  0.90877033908E+02 -0.14659306878E+03 -0.36047354436E+03  0.41870649304E+03  0.12500315207E+03 0.  0.
          2    1    1    2  501    0 -0.91167573969E+01  0.65776516520E+02 -0.94853945748E+03  0.95086106650E+03  0.00000000000E+00 0. -1.
          1    1    1    2  502    0 -0.81760276511E+02  0.80816552261E+02  0.16543420455E+02  0.11614535158E+03  0.00000000000E+00 0. -1.
         22    1    3    3    0    0  0.89344699517E+02 -0.12984674000E+03 -0.18762750285E+03  0.24504434506E+03  0.00000000000E+00 0.  1.
         22    1    3    3    0    0  0.15323343910E+01 -0.16746328779E+02 -0.17284604150E+03  0.17366214798E+03  0.00000000000E+00 0.  1.
</event>
<event>
 7    1  0.6358809E-006  0.1010984E+03  0.7818608E-02  0.1306526E+00
          2   -1    0    0  502    0  0.00000000000E+00  0.00000000000E+00  0.22079927751E+04  0.22079927751E+04  0.00000000000E+00 0. -1.
          1   -1    0    0  501    0 -0.00000000000E+00 -0.00000000000E+00 -0.65285401108E+03  0.65285401108E+03  0.00000000000E+00 0. -1.
         25    2    1    2    0    0  0.22646936989E+02 -0.90345140350E+02  0.53036627599E+02  0.16466056097E+03  0.12500035333E+03 0.  0.
          2    1    1    2  501    0 -0.77347931653E+02  0.43610621786E+01 -0.59328536027E+03  0.59832202041E+03  0.00000000000E+00 0. -1.
          1    1    1    2  502    0  0.54700994664E+02  0.85984078171E+02  0.20953874967E+04  0.20978642048E+04  0.00000000000E+00 0. -1.
         22    1    3    3    0    0 -0.36477373362E+02 -0.51236849325E+02 -0.16852001457E+02  0.65113773115E+02  0.00000000000E+00 0.  1.
         22    1    3    3    0    0  0.59124310351E+02 -0.39108291025E+02  0.69888629055E+02  0.99546787857E+02  0.00000000000E+00 0.  1.
</event>
<event>
 7    1  0.6358809E-006  0.5638422E+02  0.7818608E-02  0.1454053E+00
          2   -1    0    0  502    0  0.00000000000E+00  0.00000000000E+00  0.96022606115E+03  0.96022606115E+03  0.00000000000E+00 0. -1.
          1   -1    0    0  501    0 -0.00000000000E+00 -0.00000000000E+00 -0.30323174546E+02  0.30323174546E+02  0.00000000000E+00 0. -1.
         25    2    1    2    0    0 -0.62217237277E+02 -0.50491225557E+02  0.28165806467E+03  0.31839614598E+03  0.12499796761E+03 0.  0.
          2    1    1    2  501    0  0.76521336078E+01  0.40871149849E+02  0.29621036021E+02  0.51053029427E+02  0.00000000000E+00 0. -1.
          1    1    1    2  502    0  0.54565103669E+02  0.96200757082E+01  0.61862378591E+03  0.62110006029E+03  0.00000000000E+00 0. -1.
         22    1    3    3    0    0 -0.52263334937E+01 -0.59663011405E+02  0.23960823652E+03  0.24697995162E+03  0.00000000000E+00 0.  1.
         22    1    3    3    0    0 -0.56990903783E+02  0.91717858476E+01  0.42049828148E+02  0.71416194360E+02  0.00000000000E+00 0.  1.
</event>
<event>
 7    1  0.6358809E-006  0.7055560E+02  0.7818608E-02  0.1428355E+00
          2   -1    0    0  502    0  0.00000000000E+00  0.00000000000E+00  0.11652960067E+04  0.11652960067E+04  0.00000000000E+00 0. -1.
          1   -1    0    0  501    0 -0.00000000000E+00 -0.00000000000E+00 -0.53883964382E+03  0.53883964382E+03  0.00000000000E+00 0. -1.
         25    2    1    2    0    0 -0.26328811370E+02  0.15653718874E+02 -0.10782741294E+03  0.16789835418E+03  0.12499944453E+03 0.  0.
          2    1    1    2  501    0 -0.35139305387E+02  0.19632500075E+02 -0.39885658119E+03  0.40088249924E+03  0.00000000000E+00 0. -1.
          1    1    1    2  502    0  0.61468116758E+02 -0.35286218949E+02  0.11331403570E+04  0.11353547971E+04  0.00000000000E+00 0. -1.
         22    1    3    3    0    0 -0.19682548541E+02  0.46875064162E+02  0.45808146865E+01  0.51045648399E+02  0.00000000000E+00 0.  1.
         22    1    3    3    0    0 -0.66462628294E+01 -0.31221345288E+02 -0.11240822763E+03  0.11685270578E+03  0.00000000000E+00 0.  1.
</event>
<event>
 7    1  0.6358809E-006  0.1371514E+03  0.7818608E-02  0.1280900E+00
          2   -1    0    0  502    0  0.00000000000E+00  0.00000000000E+00  0.31258416798E+04  0.31258416798E+04  0.00000000000E+00 0. -1.
          1   -1    0    0  501    0 -0.00000000000E+00 -0.00000000000E+00 -0.44659946930E+03  0.44659946930E+03  0.00000000000E+00 0. -1.
         25    2    1    2    0    0  0.14715935877E+03 -0.72249855046E+02 -0.63240379361E+02  0.21563863851E+03  0.12499903363E+03 0.  0.
          2    1    1    2  501    0 -0.82958439573E+02  0.10592111872E+03 -0.29197337538E+03  0.32148069618E+03  0.00000000000E+00 0. -1.
          1    1    1    2  502    0 -0.64200919196E+02 -0.33671263675E+02  0.30344559652E+04  0.30353218144E+04  0.00000000000E+00 0. -1.
         22    1    3    3    0    0  0.49424951781E+02  0.27591443704E+02  0.10634178515E+02  0.57595133275E+02  0.00000000000E+00 0. -1.
         22    1    3    3    0    0  0.97734406987E+02 -0.99841298750E+02 -0.73874557876E+02  0.15804350523E+03  0.00000000000E+00 0. -1.
</event>
<event>
 7    1  0.6358809E-006  0.8480839E+02  0.7818608E-02  0.1405464E+00
          2   -1    0    0  502    0  0.00000000000E+00  0.00000000000E+00  0.11741552704E+03  0.11741552704E+03  0.00000000000E+00 0. -1.
          1   -1    0    0  501    0 -0.00000000000E+00 -0.00000000000E+00 -0.98717778155E+03  0.98717778155E+03  0.00000000000E+00 0. -1.
         25    2    1    2    0    0  0.71201517808E+02  0.95368930635E+02 -0.41806538112E+03  0.45229189098E+03  0.12499761074E+03 0.  0.
          2    1    1    2  501    0 -0.48662383532E+02 -0.62365958691E+02 -0.54504628235E+03  0.55075674329E+03  0.00000000000E+00 0. -1.
          1    1    1    2  502    0 -0.22539134276E+02 -0.33002971944E+02  0.93349408950E+02  0.10154467432E+03  0.00000000000E+00 0. -1.
         22    1    3    3    0    0 -0.15279840226E+02  0.24869540415E+02 -0.24264367163E+03  0.24439296008E+03  0.00000000000E+00 0. -1.
         22    1    3    3    0    0  0.86481358033E+02  0.70499390220E+02 -0.17542170949E+03  0.20789893090E+03  0.00000000000E+00 0. -1.
</event>
<event>
 7    1  0.6358809E-006  0.3949114E+02  0.7818608E-02  0.1540250E+00
          2   -1    0    0  502    0  0.00000000000E+00  0.00000000000E+00  0.23618447314E+03  0.23618447314E+03  0.00000000000E+00 0. -1.
          1   -1    0    0  501    0 -0.00000000000E+00 -0.00000000000E+00 -0.17235018076E+03  0.17235018076E+03  0.00000000000E+00 0. -1.
         25    2    1    2    0    0 -0.97207670283E+00 -0.14107879281E+02 -0.28641750567E+02  0.12901803146E+03  0.12500130150E+03 0.  0.
          2    1    1    2  501    0  0.29405180141E+02  0.30343226412E+02 -0.87191373983E+02  0.96890204382E+02  0.00000000000E+00 0. -1.
          1    1    1    2  502    0 -0.28433103438E+02 -0.16235347131E+02  0.17966741692E+03  0.18262641806E+03  0.00000000000E+00 0. -1.
         22    1    3    3    0    0  0.47722481192E+02 -0.28360485061E+02  0.19731773933E+02  0.58916001447E+02  0.00000000000E+00 0. -1.
         22    1    3    3    0    0 -0.48694557894E+02  0.14252605779E+02 -0.48373524500E+02  0.70102030017E+02  0.00000000000E+00 0. -1.
</event>
<event>
 7    1  0.6358809E-006  0.1208683E+03  0.7818608E-02  0.1284812E+00
          2   -1    0    0  502    0  0.00000000000E+00  0.00000000000E+00  0.23849939600E+04  0.23849939600E+04  0.00000000000E+00 0. -1.
          1   -1    0    0  501    0 -0.00000000000E+00 -0.00000000000E+00 -0.61035973603E+03  0.61035973603E+03  0.00000000000E+00 0. -1.
         25    2    1    2    0    0  0.24533531655E+02  0.59187764468E+02 -0.34874749006E+03  0.37596694006E+03  0.12498496933E+03 0.  0.
          2    1    1    2  501    0 -0.53541160469E+02  0.58453577972E+02 -0.24007666167E+03  0.25282460347E+03  0.00000000000E+00 0. -1.
          1    1    1    2  502    0  0.29007628813E+02 -0.11764134244E+03  0.23634583757E+04  0.23665621525E+04  0.00000000000E+00 0. -1.
         22    1    3    3    0    0  0.35248830670E+02  0.68570395214E+02 -0.97427491352E+02  0.12424369294E+03  0.00000000000E+00 0. -1.
         22    1    3    3    0    0 -0.10715299015E+02 -0.93826307462E+01 -0.25131999871E+03  0.25172324712E+03  0.00000000000E+00 0. -1.
</event>
<event>
 7    1  0.6358809E-006  0.4984234E+02  0.7818608E-02  0.1496593E+00
          2   -1    0    0  502    0  0.00000000000E+00  0.00000000000E+00  0.93201975643E+03  0.93201975643E+03  0.00000000000E+00 0. -1.
          1   -1    0    0  501    0 -0.00000000000E+00 -0.00000000000E+00 -0.21498140817E+03  0.21498140817E+03  0.00000000000E+00 0. -1.
         25    2    1    2    0    0 -0.24090896871E+01  0.31258947636E+02  0.35838948267E+02  0.13376618145E+03  0.12500414220E+03 0.  0.
          2    1    1    2  501    0  0.36938409036E+02 -0.35257026824E+02 -0.16172455716E+03  0.16959462371E+03  0.00000000000E+00 0. -1.
          1    1    1    2  502    0 -0.34529319349E+02  0.39980791879E+01  0.84292395716E+03  0.84364035944E+03  0.00000000000E+00 0. -1.
         22    1    3    3    0    0  0.33297515434E+02 -0.20979360682E+01 -0.34582324550E+02  0.48052711069E+02  0.00000000000E+00 0.  1.
         22    1    3    3    0    0 -0.35706605121E+02  0.33356883704E+02  0.70421272817E+02  0.85713470382E+02  0.00000000000E+00 0.  1.
</event>
<event>
 7    1  0.6358809E-006  0.7742100E+02  0.7818608E-02  0.1447038E+00
          2   -1    0    0  502    0  0.00000000000E+00  0.00000000000E+00  0.96710675519E+03  0.96710675519E+03  0.00000000000E+00 0. -1.
          1   -1    0    0  501    0 -0.00000000000E+00 -0.00000000000E+00 -0.42526721622E+03  0.42526721622E+03  0.00000000000E+00 0. -1.
         25    2    1    2    0    0  0.10156617206E+03 -0.39696372054E+01  0.47850146921E+03  0.50489666633E+03  0.12500216918E+03 0.  0.
          2    1    1    2  501    0 -0.74432188487E+02  0.20719914724E+02 -0.40790441712E+03  0.41515717392E+03  0.00000000000E+00 0. -1.
          1    1    1    2  502    0 -0.27133983578E+02 -0.16750277518E+02  0.47124248688E+03  0.47232013116E+03  0.00000000000E+00 0. -1.
         22    1    3    3    0    0 -0.28215563784E+02  0.17625392446E+01  0.12827085579E+03  0.13134929398E+03  0.00000000000E+00 0.  1.
         22    1    3    3    0    0  0.12978173585E+03 -0.57321764500E+01  0.35023061342E+03  0.37354737234E+03  0.00000000000E+00 0.  1.
</event>
<event>
 7    1  0.6358809E-006  0.1095928E+03  0.7818608E-02  0.1450474E+00
          2   -1    0    0  502    0  0.00000000000E+00  0.00000000000E+00  0.14236074994E+04  0.14236074994E+04  0.00000000000E+00 0. -1.
          1   -1    0    0  501    0 -0.00000000000E+00 -0.00000000000E+00 -0.12459960834E+03  0.12459960834E+03  0.00000000000E+00 0. -1.
         25    2    1    2    0    0 -0.12590009895E+03  0.10116547627E+02  0.10031322925E+03  0.20406204777E+03  0.12500158369E+03 0.  0.
          2    1    1    2  501    0  0.17086529369E+02 -0.13799063398E+02 -0.68678051507E+02  0.72104357672E+02  0.00000000000E+00 0. -1.
          1    1    1    2  502    0  0.10881356958E+03  0.36825157710E+01  0.12673727133E+04  0.12720407023E+04  0.00000000000E+00 0. -1.
         22    1    3    3    0    0 -0.12075565811E+03 -0.36394052669E+02  0.50890806401E+02  0.13600121401E+03  0.00000000000E+00 0. -1.
         22    1    3    3    0    0 -0.51444408393E+01  0.46510600296E+02  0.49422422851E+02  0.68060833758E+02  0.00000000000E+00 0. -1.
</event>
<event>
 7    1  0.6402284E-006  0.1011606E+03  0.7818608E-02  0.1306944E+00
          2   -1    0    0  502    0  0.00000000000E+00  0.00000000000E+00  0.19937549354E+04  0.19937549354E+04  0.00000000000E+00 0. -1.
          1   -1    0    0  501    0 -0.00000000000E+00 -0.00000000000E+00 -0.73990075466E+03  0.73990075466E+03  0.00000000000E+00 0. -1.
         25    2    1    2    0    0  0.82389578179E+02  0.62575783038E+02 -0.75985017233E+02  0.17916651347E+03  0.12499258174E+03 0.  0.
          2    1    1    2  501    0 -0.10254768492E+03  0.11872273518E+02 -0.60720102533E+03  0.61591400676E+03  0.00000000000E+00 0. -1.
          1    1    1    2  502    0  0.20158106739E+02 -0.74448056556E+02  0.19370402233E+04  0.19385751698E+04  0.00000000000E+00 0. -1.
         22    1    3    3    0    0  0.41345035997E+02  0.82399283872E+02 -0.92585665314E+02  0.13065664700E+03  0.00000000000E+00 0.  1.
         22    1    3    3    0    0  0.41044542183E+02 -0.19823500833E+02  0.16600648081E+02  0.48509866470E+02  0.00000000000E+00 0.  1.
</event>
<event>
 7    1  0.6358809E-006  0.3198445E+02  0.7818608E-02  0.1615732E+00
          2   -1    0    0  502    0  0.00000000000E+00  0.00000000000E+00  0.38812275465E+03  0.38812275465E+03  0.00000000000E+00 0. -1.
          1   -1    0    0  501    0 -0.00000000000E+00 -0.00000000000E+00 -0.62829884719E+02  0.62829884719E+02  0.00000000000E+00 0. -1.
         25    2    1    2    0    0 -0.16346192259E+02  0.42234777923E+02  0.84097618948E+02  0.15731736618E+03  0.12500147888E+03 0.  0.
          2    1    1    2  501    0 -0.62582793184E+01 -0.30808107231E+02 -0.15945550768E+02  0.35250051354E+02  0.00000000000E+00 0. -1.
          1    1    1    2  502    0  0.22604471578E+02 -0.11426670693E+02  0.25714080175E+03  0.25838522183E+03  0.00000000000E+00 0. -1.
         22    1    3    3    0    0 -0.31403463819E+02 -0.38886316919E+02  0.25442312562E+02  0.56085955924E+02  0.00000000000E+00 0.  1.
         22    1    3    3    0    0  0.15057271560E+02  0.81121094842E+02  0.58655306386E+02  0.10123141026E+03  0.00000000000E+00 0.  1.
</event>
<event>
 7    1  0.6358809E-006  0.6978733E+02  0.7818608E-02  0.1495880E+00
          2   -1    0    0  502    0  0.00000000000E+00  0.00000000000E+00  0.37935691638E+03  0.37935691638E+03  0.00000000000E+00 0. -1.
          1   -1    0    0  501    0 -0.00000000000E+00 -0.00000000000E+00 -0.58489317933E+03  0.58489317933E+03  0.00000000000E+00 0. -1.
         25    2    1    2    0    0  0.19730666875E+02 -0.40771348116E+02 -0.21614538243E+03  0.25376555407E+03  0.12500611202E+03 0.  0.
          2    1    1    2  501    0  0.83149012353E+01 -0.23521853673E+02 -0.34607280974E+03  0.34697089910E+03  0.00000000000E+00 0. -1.
          1    1    1    2  502    0 -0.28045568110E+02  0.64293201789E+02  0.35668192922E+03  0.36351364255E+03  0.00000000000E+00 0. -1.
         22    1    3    3    0    0  0.68845021360E+02 -0.13455638505E+02 -0.79549466510E+02  0.10606040164E+03  0.00000000000E+00 0. -1.
         22    1    3    3    0    0 -0.49114354485E+02 -0.27315709611E+02 -0.13659591592E+03  0.14770515243E+03  0.00000000000E+00 0. -1.
</event>
<event>
 7    1  0.6372460E-006  0.1922162E+03  0.7818608E-02  0.1336601E+00
          2   -1    0    0  502    0  0.00000000000E+00  0.00000000000E+00  0.13958289255E+04  0.13958289255E+04  0.00000000000E+00 0. -1.
          1   -1    0    0  501    0 -0.00000000000E+00 -0.00000000000E+00 -0.15932188657E+04  0.15932188657E+04  0.00000000000E+00 0. -1.
         25    2    1    2    0    0 -0.87656968168E+02 -0.20028824952E+03 -0.76888102471E+03  0.80907511632E+03  0.12500154690E+03 0.  0.
          2    1    1    2  501    0 -0.29666180552E+01  0.31023804440E+02 -0.79723603835E+03  0.79784495869E+03  0.00000000000E+00 0. -1.
          1    1    1    2  502    0  0.90623586223E+02  0.16926444508E+03  0.13687271229E+04  0.13821277162E+04  0.00000000000E+00 0. -1.
         22    1    3    3    0    0 -0.17246095692E+02 -0.15264806709E+03 -0.60808068952E+03  0.62718496886E+03  0.00000000000E+00 0.  1.
         22    1    3    3    0    0 -0.70410872476E+02 -0.47640182427E+02 -0.16080033519E+03  0.18189014746E+03  0.00000000000E+00 0.  1.
</event>
<event>
 7    1  0.6358809E-006  0.1051353E+03  0.7818608E-02  0.1344322E+00
          2   -1    0    0  502    0  0.00000000000E+00  0.00000000000E+00  0.13642396817E+03  0.13642396817E+03  0.00000000000E+00 0. -1.
          1   -1    0    0  501    0 -0.00000000000E+00 -0.00000000000E+00 -0.87935627730E+03  0.87935627730E+03  0.00000000000E+00 0. -1.
         25    2    1    2    0    0 -0.56262193547E+02  0.12042108690E+02 -0.44162946679E+02  0.14452409719E+03  0.12500560789E+03 0.  0.
          2    1    1    2  501    0  0.10047279955E+03 -0.41804773805E+02 -0.77258494931E+03  0.78021146265E+03  0.00000000000E+00 0. -1.
          1    1    1    2  502    0 -0.44210606002E+02  0.29762665115E+02  0.73815586859E+02  0.91044685628E+02  0.00000000000E+00 0. -1.
         22    1    3    3    0    0  0.36025831561E+01  0.55134178860E+02  0.56172103260E+01  0.55536558552E+02  0.00000000000E+00 0. -1.
         22    1    3    3    0    0 -0.59864776703E+02 -0.43092070170E+02 -0.49780157005E+02  0.88987538637E+02  0.00000000000E+00 0. -1.
</event>
<event>
 7    1  0.6358809E-006  0.1310205E+03  0.7818608E-02  0.1311278E+00
          2   -1    0    0  502    0  0.00000000000E+00  0.00000000000E+00  0.12702272943E+04  0.12702272943E+04  0.00000000000E+00 0. -1.
          1   -1    0    0  501    0 -0.00000000000E+00 -0.00000000000E+00 -0.82901233080E+03  0.82901233080E+03  0.00000000000E+00 0. -1.
         25    2    1    2    0    0 -0.18335340790E+03 -0.35870749083E+02  0.15195904444E+03  0.27133405188E+03  0.12500173475E+03 0.  0.
          2    1    1    2  501    0  0.12725179743E+03  0.24454826318E+02 -0.76308477910E+03  0.77400868120E+03  0.00000000000E+00 0. -1.
          1    1    1    2  502    0  0.56101610476E+02  0.11415922765E+02  0.10523406982E+04  0.10538968920E+04  0.00000000000E+00 0. -1.
         22    1    3    3    0    0 -0.11771518373E+02  0.23881907204E+02  0.64320183815E+02  0.69613218446E+02  0.00000000000E+00 0.  1.
         22    1    3    3    0    0 -0.17158188953E+03 -0.59752656287E+02  0.87638860624E+02  0.20172083343E+03  0.00000000000E+00 0.  1.
</event>
<event>
 7    1  0.6358809E-006  0.7346015E+02  0.7818608E-02  0.1484722E+00
          2   -1    0    0  502    0  0.00000000000E+00  0.00000000000E+00  0.27902863589E+03  0.27902863589E+03  0.00000000000E+00 0. -1.
          1   -1    0    0  501    0 -0.00000000000E+00 -0.00000000000E+00 -0.19115421978E+04  0.19115421978E+04  0.00000000000E+00 0. -1.
         25    2    1    2    0    0  0.13521745795E+02  0.49804102441E+02 -0.78670619693E+03  0.79824502016E+03  0.12500074276E+03 0.  0.
          2    1    1    2  501    0 -0.97161826599E+01  0.23701641132E+02 -0.11139602311E+04  0.11142547143E+04  0.00000000000E+00 0. -1.
          1    1    1    2  502    0 -0.38055631347E+01 -0.73505743573E+02  0.26815286606E+03  0.27807109923E+03  0.00000000000E+00 0. -1.
         22    1    3    3    0    0 -0.31076717774E+02  0.50830096871E+01 -0.60603481591E+03  0.60685236876E+03  0.00000000000E+00 0.  1.
         22    1    3    3    0    0  0.44598463569E+02  0.44721092754E+02 -0.18067138102E+03  0.19139265140E+03  0.00000000000E+00 0.  1.
</event>
<event>
 7    1  0.6358809E-006  0.7946190E+02  0.7818608E-02  0.1339259E+00
          2   -1    0    0  502    0  0.00000000000E+00  0.00000000000E+00  0.19031011664E+04  0.19031011664E+04  0.00000000000E+00 0. -1.
          1   -1    0    0  501    0 -0.00000000000E+00 -0.00000000000E+00 -0.62404207063E+02  0.62404207063E+02  0.00000000000E+00 0. -1.
         25    2    1    2    0    0  0.45183149215E+02  0.12996169371E+02  0.21620405986E+03  0.25412656855E+03  0.12500279977E+03 0.  0.
          2    1    1    2  501    0 -0.72842914905E+01 -0.82837924892E+02 -0.17693431559E+01  0.83176398565E+02  0.00000000000E+00 0. -1.
          1    1    1    2  502    0 -0.37898857725E+02  0.69841755521E+02  0.16262622426E+04  0.16282024064E+04  0.00000000000E+00 0. -1.
         22    1    3    3    0    0  0.85075502731E+02  0.74588704315E+01  0.18293483662E+03  0.20188766768E+03  0.00000000000E+00 0.  1.
         22    1    3    3    0    0 -0.39892353516E+02  0.55372989397E+01  0.33269223242E+02  0.52238900866E+02  0.00000000000E+00 0.  1.
</event>
<event>
 7    1  0.6358809E-006  0.1365258E+03  0.7818608E-02  0.1367498E+00
          2   -1    0    0  502    0  0.00000000000E+00  0.00000000000E+00  0.22531875902E+04  0.22531875902E+04  0.00000000000E+00 0. -1.
          1   -1    0    0  501    0 -0.00000000000E+00 -0.00000000000E+00 -0.18796426027E+03  0.18796426027E+03  0.00000000000E+00 0. -1.
         25    2    1    2    0    0  0.11360433698E+03  0.11440956523E+03  0.63888224274E+03  0.67066408664E+03  0.12499721210E+03 0.  0.
          2    1    1    2  501    0 -0.32243634062E+02 -0.99278986141E+01 -0.16764724522E+03  0.17100822769E+03  0.00000000000E+00 0. -1.
          1    1    1    2  502    0 -0.81360702921E+02 -0.10448166661E+03  0.15939883324E+04  0.15994795361E+04  0.00000000000E+00 0. -1.
         22    1    3    3    0    0  0.10270508057E+03  0.68745405125E+02  0.59032287413E+03  0.60312134767E+03  0.00000000000E+00 0.  1.
         22    1    3    3    0    0  0.10899256416E+02  0.45664160100E+02  0.48559368611E+02  0.67542738973E+02  0.00000000000E+00 0.  1.
</event>
<event>
 7    1  0.6358809E-006  0.1077220E+03  0.7818608E-02  0.1298246E+00
          2   -1    0    0  502    0  0.00000000000E+00  0.00000000000E+00  0.11109533806E+04  0.11109533806E+04  0.00000000000E+00 0. -1.
          1   -1    0    0  501    0 -0.00000000000E+00 -0.00000000000E+00 -0.57119417355E+03  0.57119417355E+03  0.00000000000E+00 0. -1.
         25    2    1    2    0    0 -0.46935594762E+02  0.28337608131E+02  0.23801907822E+03  0.27437997050E+03  0.12500126609E+03 0.  0.
          2    1    1    2  501    0  0.30001487009E+02 -0.10493983869E+03 -0.54579920349E+03  0.55660509295E+03  0.00000000000E+00 0. -1.
          1    1    1    2  502    0  0.16934107753E+02  0.76602230556E+02  0.84753933235E+03  0.85116249073E+03  0.00000000000E+00 0. -1.
         22    1    3    3    0    0  0.30157566975E+02  0.43834105696E+02  0.13249490007E+03  0.14277887173E+03  0.00000000000E+00 0.  1.
         22    1    3    3    0    0 -0.77093161737E+02 -0.15496497565E+02  0.10552417814E+03  0.13160109877E+03  0.00000000000E+00 0.  1.
</event>
<event>
 7    1  0.6358809E-006  0.9337348E+02  0.7818608E-02  0.1311221E+00
          2   -1    0    0  502    0  0.00000000000E+00  0.00000000000E+00  0.20579644950E+04  0.20579644950E+04  0.00000000000E+00 0. -1.
          1   -1    0    0  501    0 -0.00000000000E+00 -0.00000000000E+00 -0.95570756592E+03  0.95570756592E+03  0.00000000000E+00 0. -1.
         25    2    1    2    0    0 -0.99273284409E+02  0.12850995281E+03  0.36786181294E+03  0.42109537033E+03  0.12501601705E+03 0.  0.
          2    1    1    2  501    0  0.77743241154E+02 -0.51071062170E+02 -0.92578793077E+03  0.93044911613E+03  0.00000000000E+00 0. -1.
          1    1    1    2  502    0  0.21530043254E+02 -0.77438890639E+02  0.16601830469E+04  0.16621275744E+04  0.00000000000E+00 0. -1.
         22    1    3    3    0    0  0.36337787978E+01  0.13407741440E+02  0.16784794832E+03  0.16842180867E+03  0.00000000000E+00 0. -1.
         22    1    3    3    0    0 -0.10290706321E+03  0.11510221137E+03  0.20001386462E+03  0.25267356166E+03  0.00000000000E+00 0. -1.
</event>
<event>
 7    1  0.6358809E-006  0.1127444E+03  0.7818608E-02  0.1359756E+00
          2   -1    0    0  502    0  0.00000000000E+00  0.00000000000E+00  0.29984469637E+03  0.29984469637E+03  0.00000000000E+00 0. -1.
          1   -1    0    0  501    0 -0.00000000000E+00 -0.00000000000E+00 -0.25290289822E+04  0.25290289822E+04  0.00000000000E+00 0. -1.
         25    2    1    2    0    0 -0.69305462055E+02  0.58248962820E+02  0.12112522461E+03  0.19619284899E+03  0.12499650082E+03 0.  0.
          2    1    1    2  501    0  0.10697440485E+03 -0.36324975929E+02 -0.24868182561E+04  0.24893830694E+04  0.00000000000E+00 0. -1.
          1    1    1    2  502    0 -0.37668942797E+02 -0.21923986891E+02  0.13650874564E+03  0.14329776024E+03  0.00000000000E+00 0. -1.
         22    1    3    3    0    0 -0.21588972901E+02  0.86518801325E+02  0.39549243198E+02  0.97548600047E+02  0.00000000000E+00 0.  1.
         22    1    3    3    0    0 -0.47716489155E+02 -0.28269838504E+02  0.81575981409E+02  0.98644248941E+02  0.00000000000E+00 0.  1.
</event>
<event>
 7    1  0.6358809E-006  0.1880193E+03  0.7818608E-02  0.1247884E+00
          2   -1    0    0  502    0  0.00000000000E+00  0.00000000000E+00  0.26216658674E+04  0.26216658674E+04  0.00000000000E+00 0. -1.
          1   -1    0    0  501    0 -0.00000000000E+00 -0.00000000000E+00 -0.19308145012E+03  0.19308145012E+03  0.00000000000E+00 0. -1.
         25    2    1    2    0    0  0.10923857508E+03 -0.14250237355E+03  0.67742051938E+03  0.71187328977E+03  0.12500011141E+03 0.  0.
          2    1    1    2  501    0 -0.48681086276E+02  0.18324200184E+03 -0.12383407124E+03  0.22645608095E+03  0.00000000000E+00 0. -1.
          1    1    1    2  502    0 -0.60557488801E+02 -0.40739628287E+02  0.18749979691E+04  0.18764179468E+04  0.00000000000E+00 0. -1.
         22    1    3    3    0    0  0.27806171791E+01 -0.79475177059E+02  0.40419106671E+03  0.41193986698E+03  0.00000000000E+00 0. -1.
         22    1    3    3    0    0  0.10645795790E+03 -0.63027196493E+02  0.27322945267E+03  0.29993342279E+03  0.00000000000E+00 0. -1.
</event>
<event>
 7    1  0.6358809E-006  0.9009266E+02  0.7818608E-02  0.1401789E+00
          2   -1    0    0  502    0  0.00000000000E+00  0.00000000000E+00  0.18146280395E+04  0.18146280395E+04  0.00000000000E+00 0. -1.
          1   -1    0    0  501    0 -0.00000000000E+00 -0.00000000000E+00 -0.57900446806E+03  0.57900446806E+03  0.00000000000E+00 0. -1.
         25    2    1    2    0    0  0.93311085351E+02  0.43240153637E+01  0.10710723559E+03  0.18926871368E+03  0.12500012122E+03 0.  0.
          2    1    1    2  501    0 -0.80436275739E+02 -0.40847078342E+02 -0.53391428897E+03  0.54148217536E+03  0.00000000000E+00 0. -1.
          1    1    1    2  502    0 -0.12874809612E+02  0.36523062979E+02  0.16624306248E+04  0.16628816185E+04  0.00000000000E+00 0. -1.
         22    1    3    3    0    0  0.63150390424E+02 -0.12059268880E+02  0.13203007237E+03  0.14685141398E+03  0.00000000000E+00 0. -1.
         22    1    3    3    0    0  0.30160694928E+02  0.16383284243E+02 -0.24922836783E+02  0.42417299707E+02  0.00000000000E+00 0. -1.
</event>
<event>
 7    1  0.6358809E-006  0.1550827E+03  0.7818608E-02  0.1278165E+00
          2   -1    0    0  502    0  0.00000000000E+00  0.00000000000E+00  0.32988406461E+03  0.32988406461E+03  0.00000000000E+00 0. -1.
          1   -1    0    0  501    0 -0.00000000000E+00 -0.00000000000E+00 -0.20974405879E+04  0.20974405879E+04  0.00000000000E+00 0. -1.
         25    2    1    2    0    0 -0.50792592035E+02 -0.20135626646E+03 -0.57566999533E+03  0.62461597571E+03  0.12499976056E+03 0.  0.
          2    1    1    2  501    0 -0.16953563975E+02  0.63582492768E+02 -0.14772241475E+04  0.14786890608E+04  0.00000000000E+00 0. -1.
          1    1    1    2  502    0  0.67746156010E+02  0.13777377369E+03  0.28533761956E+03  0.32401961593E+03  0.00000000000E+00 0. -1.
         22    1    3    3    0    0 -0.35052369370E+02 -0.12706819914E+03 -0.18816952677E+03  0.22974500350E+03  0.00000000000E+00 0.  1.
         22    1    3    3    0    0 -0.15740222665E+02 -0.74288067322E+02 -0.38750046856E+03  0.39487097221E+03  0.00000000000E+00 0.  1.
</event>
<event>
 7    1  0.6358809E-006  0.1630122E+03  0.7818608E-02  0.1363852E+00
          2   -1    0    0  502    0  0.00000000000E+00  0.00000000000E+00  0.12181316240E+04  0.12181316240E+04  0.00000000000E+00 0. -1.
          1   -1    0    0  501    0 -0.00000000000E+00 -0.00000000000E+00 -0.80598376941E+02  0.80598376941E+02  0.00000000000E+00 0. -1.
         25    2    1    2    0    0 -0.17603503954E+03 -0.88394882934E+01  0.75560347175E+03  0.78589313798E+03  0.12499978439E+03 0.  0.
          2    1    1    2  501    0  0.25722568382E+02 -0.13665582235E+02 -0.48381572648E+02  0.56472783125E+02  0.00000000000E+00 0. -1.
          1    1    1    2  502    0  0.15031247116E+03  0.22505070528E+02  0.43031134794E+03  0.45636407982E+03  0.00000000000E+00 0. -1.
         22    1    3    3    0    0 -0.17866396975E+03 -0.21235729741E+02  0.52562561403E+03  0.55556642846E+03  0.00000000000E+00 0. -1.
         22    1    3    3    0    0  0.26289302080E+01  0.12396241447E+02  0.22997785772E+03  0.23032670952E+03  0.00000000000E+00 0. -1.
</event>
<event>
 7    1  0.6358809E-006  0.5356633E+02  0.7818608E-02  0.1530258E+00
          2   -1    0    0  502    0  0.00000000000E+00  0.00000000000E+00  0.22398556931E+03  0.22398556931E+03  0.00000000000E+00 0. -1.
          1   -1    0    0  501    0 -0.00000000000E+00 -0.00000000000E+00 -0.10726251097E+04  0.10726251097E+04  0.00000000000E+00 0. -1.
         25    2    1    2    0    0 -0.61977539189E+02  0.24205225869E+02 -0.61038431532E+03  0.62659464151E+03  0.12499889623E+03 0.  0.
          2    1    1    2  501    0  0.84564049638E+01 -0.24344414708E+02 -0.45044438241E+03  0.45118100908E+03  0.00000000000E+00 0. -1.
          1    1    1    2  502    0  0.53521134225E+02  0.13918883954E+00  0.21218915733E+03  0.21883502843E+03  0.00000000000E+00 0. -1.
         22    1    3    3    0    0  0.25056285850E+02 -0.22397468430E+02 -0.75023343399E+02  0.82206849516E+02  0.00000000000E+00 0.  1.
         22    1    3    3    0    0 -0.87033825039E+02  0.46602694298E+02 -0.53536097192E+03  0.54438779200E+03  0.00000000000E+00 0.  1.
</event>
<event>
 7    1  0.6358809E-006  0.7340608E+02  0.7818608E-02  0.1390488E+00
          2   -1    0    0  502    0  0.00000000000E+00  0.00000000000E+00  0.37295295919E+03  0.37295295919E+03  0.00000000000E+00 0. -1.
          1   -1    0    0  501    0 -0.00000000000E+00 -0.00000000000E+00 -0.27900177401E+04  0.27900177401E+04  0.00000000000E+00 0. -1.
         25    2    1    2    0    0 -0.99530581755E+02  0.46681609295E+02 -0.16842442814E+03  0.23680325659E+03  0.12499393979E+03 0.  0.
          2    1    1    2  501    0  0.72964291987E+02 -0.19745657140E+01 -0.25848898365E+04  0.25859201754E+04  0.00000000000E+00 0. -1.
          1    1    1    2  502    0  0.26566289768E+02 -0.44707043581E+02  0.33624948380E+03  0.34024726722E+03  0.00000000000E+00 0. -1.
         22    1    3    3    0    0 -0.28294291039E+02  0.66367824396E+02 -0.14023039881E+03  0.15770167967E+03  0.00000000000E+00 0.  1.
         22    1    3    3    0    0 -0.71236290716E+02 -0.19686215101E+02 -0.28194029329E+02  0.79101576911E+02  0.00000000000E+00 0.  1.
</event>
<event>
 7    1  0.6358809E-006  0.1193831E+03  0.7818608E-02  0.1375655E+00
          2   -1    0    0  502    0  0.00000000000E+00  0.00000000000E+00  0.76942244598E+02  0.76942244598E+02  0.00000000000E+00 0. -1.
          1   -1    0    0  501    0 -0.00000000000E+00 -0.00000000000E+00 -0.15344823943E+04  0.15344823943E+04  0.00000000000E+00 0. -1.
         25    2    1    2    0    0  0.41119293401E+01 -0.12765802380E+03 -0.18788912803E+03  0.25930898343E+03  0.12500138179E+03 0.  0.
          2    1    1    2  501    0 -0.33346732650E+02  0.13745244517E+02 -0.12262164021E+04  0.12267467551E+04  0.00000000000E+00 0. -1.
          1    1    1    2  502    0  0.29234803309E+02  0.11391277929E+03 -0.43434619589E+02  0.12536890040E+03  0.00000000000E+00 0. -1.
         22    1    3    3    0    0  0.62384600169E+02 -0.53531421850E+02 -0.67338118221E+02  0.10626322802E+03  0.00000000000E+00 0. -1.
         22    1    3    3    0    0 -0.58272670829E+02 -0.74126601955E+02 -0.12055100981E+03  0.15304575541E+03  0.00000000000E+00 0. -1.
</event>
<event>
 7    1  0.6358809E-006  0.4702540E+02  0.7818608E-02  0.1551253E+00
          2   -1    0    0  502    0  0.00000000000E+00  0.00000000000E+00  0.26534507307E+04  0.26534507307E+04  0.00000000000E+00 0. -1.
          1   -1    0    0  501    0 -0.00000000000E+00 -0.00000000000E+00 -0.17613839648E+04  0.17613839648E+04  0.00000000000E+00 0. -1.
         25    2    1    2    0    0 -0.68175323418E+02 -0.15779001243E+02  0.12491100309E+04  0.12572976453E+04  0.12499859228E+03 0.  0.
          2    1    1    2  501    0  0.46999857111E+02  0.13757391543E+01 -0.17568584845E+04  0.17574875856E+04  0.00000000000E+00 0. -1.
          1    1    1    2  502    0  0.21175466308E+02  0.14403262089E+02  0.13998152195E+04  0.14000494645E+04  0.00000000000E+00 0. -1.
         22    1    3    3    0    0 -0.63358305568E+02 -0.58932422889E+02  0.10473362107E+04  0.10509045835E+04  0.00000000000E+00 0.  1.
         22    1    3    3    0    0 -0.48170178502E+01  0.43153421646E+02  0.20177382012E+03  0.20639306177E+03  0.00000000000E+00 0.  1.
</event>
<event>
 7    1  0.6358809E-006  0.1146244E+03  0.7818608E-02  0.1276746E+00
          2   -1    0    0  502    0  0.00000000000E+00  0.00000000000E+00  0.20011890828E+03  0.20011890828E+03  0.00000000000E+00 0. -1.
          1   -1    0    0  501    0 -0.00000000000E+00 -0.00000000000E+00 -0.53980693349E+03  0.53980693349E+03  0.00000000000E+00 0. -1.
         25    2    1    2    0    0  0.12509058475E+03 -0.73590973650E+02 -0.16904703604E+02  0.19228622648E+03  0.12499975237E+03 0.  0.
          2    1    1    2  501    0 -0.84557786438E+02 -0.31533739883E+02 -0.40064609981E+03  0.41068442056E+03  0.00000000000E+00 0. -1.
          1    1    1    2  502    0 -0.40532798317E+02  0.10512471353E+03  0.77862778201E+02  0.13695519473E+03  0.00000000000E+00 0. -1.
         22    1    3    3    0    0  0.13097136716E+03 -0.39326306704E+02 -0.48712442830E+02  0.14516528339E+03  0.00000000000E+00 0.  1.
         22    1    3    3    0    0 -0.58807824073E+01 -0.34264666947E+02  0.31807739226E+02  0.47120943087E+02  0.00000000000E+00 0.  1.
</event>
<event>
 7    1  0.6358809E-006  0.9184839E+02  0.7818608E-02  0.1379686E+00
          2   -1    0    0  502    0  0.00000000000E+00  0.00000000000E+00  0.77860628072E+03  0.77860628072E+03  0.00000000000E+00 0. -1.
          1   -1    0    0  501    0 -0.00000000000E+00 -0.00000000000E+00 -0.15109062771E+04  0.15109062771E+04  0.00000000000E+00 0. -1.
         25    2    1    2    0    0 -0.86495591955E+02  0.10351041850E+03 -0.23627429654E+03  0.29940871078E+03  0.12499655483E+03 0.  0.
          2    1    1    2  501    0  0.20138235144E+02 -0.40644271806E+02 -0.12398523005E+04  0.12406817611E+04  0.00000000000E+00 0. -1.
          1    1    1    2  502    0  0.66357356811E+02 -0.62866146697E+02  0.74382660059E+03  0.74942208598E+03  0.00000000000E+00 0. -1.
         22    1    3    3    0    0 -0.19793568458E+02  0.96737113570E+02 -0.72670994648E+02  0.12260068498E+03  0.00000000000E+00 0. -1.
         22    1    3    3    0    0 -0.66702023497E+02  0.67733049334E+01 -0.16360330189E+03  0.17680802580E+03  0.00000000000E+00 0. -1.
</event>
<event>
 7    1  0.6358809E-006  0.4621391E+02  0.7818608E-02  0.1503112E+00
          2   -1    0    0  502    0  0.00000000000E+00  0.00000000000E+00  0.13508499487E+04  0.13508499487E+04  0.00000000000E+00 0. -1.
          1   -1    0    0  501    0 -0.00000000000E+00 -0.00000000000E+00 -0.27472441396E+03  0.27472441396E+03  0.00000000000E+00 0. -1.
         25    2    1    2    0    0 -0.78974401665E+02 -0.91634220175E+01  0.63333329692E+03  0.65042846789E+03  0.12500080971E+03 0.  0.
          2    1    1    2  501    0  0.45883825716E+02 -0.46203296288E+01 -0.26372159051E+03  0.26772327170E+03  0.00000000000E+00 0. -1.
          1    1    1    2  502    0  0.33090575950E+02  0.13783751646E+02  0.70651382836E+03  0.70742262311E+03  0.00000000000E+00 0. -1.
         22    1    3    3    0    0  0.21230009900E+02 -0.34078596316E+02  0.25989208611E+03  0.26297520885E+03  0.00000000000E+00 0. -1.
         22    1    3    3    0    0 -0.10020441157E+03  0.24915174298E+02  0.37344121081E+03  0.38745325904E+03  0.00000000000E+00 0. -1.
</event>
<event>
 7    1  0.6358809E-006  0.1383798E+03  0.7818608E-02  0.1251698E+00
          2   -1    0    0  502    0  0.00000000000E+00  0.00000000000E+00  0.27567169932E+04  0.27567169932E+04  0.00000000000E+00 0. -1.
          1   -1    0    0  501    0 -0.00000000000E+00 -0.00000000000E+00 -0.35189468515E+04  0.35189468515E+04  0.00000000000E+00 0. -1.
         25    2    1    2    0    0 -0.18158880668E+03 -0.12368121666E+03  0.20507896426E+03  0.32550590820E+03  0.12500070651E+03 0.  0.
          2    1    1    2  501    0  0.93321184621E+02  0.20088119886E+02 -0.34562152380E+04  0.34575332461E+04  0.00000000000E+00 0. -1.
          1    1    1    2  502    0  0.88267622057E+02  0.10359309678E+03  0.24889064155E+04  0.24926246905E+04  0.00000000000E+00 0. -1.
         22    1    3    3    0    0 -0.70473372257E+02 -0.12049142330E+03  0.93527495449E+02  0.16802402117E+03  0.00000000000E+00 0. -1.
         22    1    3    3    0    0 -0.11111543442E+03 -0.31897933615E+01  0.11155146881E+03  0.15748188703E+03  0.00000000000E+00 0. -1.
</event>
<event>
 7    1  0.6358809E-006  0.7190753E+02  0.7818608E-02  0.1360458E+00
          2   -1    0    0  502    0  0.00000000000E+00  0.00000000000E+00  0.21110377600E+04  0.21110377600E+04  0.00000000000E+00 0. -1.
          1   -1    0    0  501    0 -0.00000000000E+00 -0.00000000000E+00 -0.23745966731E+03  0.23745966731E+03  0.00000000000E+00 0. -1.
         25    2    1    2    0    0  0.64426727905E+02  0.90407316327E+02 -0.54643541890E+02  0.17586660971E+03  0.12497544410E+03 0.  0.
          2    1    1    2  501    0  0.37419608454E+01 -0.67831380598E+02 -0.11208254969E+03  0.13106332977E+03  0.00000000000E+00 0. -1.
          1    1    1    2  502    0 -0.68168688750E+02 -0.22575935728E+02  0.20403041843E+04  0.20415674879E+04  0.00000000000E+00 0. -1.
         22    1    3    3    0    0  0.62200571390E+02  0.90977150570E+02 -0.88862353381E+02  0.14157072740E+03  0.00000000000E+00 0.  1.
         22    1    3    3    0    0  0.22261565144E+01 -0.56983424337E+00  0.34218811491E+02  0.34295882315E+02  0.00000000000E+00 0.  1.
</event>
<event>
 7    1  0.6358809E-006  0.8522113E+02  0.7818608E-02  0.1406105E+00
          2   -1    0    0  502    0  0.00000000000E+00  0.00000000000E+00  0.12349322742E+04  0.12349322742E+04  0.00000000000E+00 0. -1.
          1   -1    0    0  501    0 -0.00000000000E+00 -0.00000000000E+00 -0.85879229595E+03  0.85879229595E+03  0.00000000000E+00 0. -1.
         25    2    1    2    0    0  0.54439552926E+02 -0.11189544381E+03  0.35741065039E+03  0.39856207962E+03  0.12500041211E+03 0.  0.
          2    1    1    2  501    0 -0.34748325833E+02  0.77570501746E+02 -0.83560264990E+03  0.83991452983E+03  0.00000000000E+00 0. -1.
          1    1    1    2  502    0 -0.19691227093E+02  0.34324942060E+02  0.85433197773E+03  0.85524796068E+03  0.00000000000E+00 0. -1.
         22    1    3    3    0    0  0.93410719227E+02 -0.81569723677E+02  0.28612351388E+03  0.31184266463E+03  0.00000000000E+00 0.  1.
         22    1    3    3    0    0 -0.38971166301E+02 -0.30325720129E+02  0.71287136513E+02  0.86719414991E+02  0.00000000000E+00 0.  1.
</event>
<event>
 7    1  0.6358809E-006  0.1453105E+03  0.7818608E-02  0.1379646E+00
          2   -1    0    0  502    0  0.00000000000E+00  0.00000000000E+00  0.66199807793E+02  0.66199807793E+02  0.00000000000E+00 0. -1.
          1   -1    0    0  501    0 -0.00000000000E+00 -0.00000000000E+00 -0.13304789332E+04  0.13304789332E+04  0.00000000000E+00 0. -1.
         25    2    1    2    0    0  0.12441718837E+03  0.39652928548E+02 -0.58617688980E+03  0.61341701153E+03  0.12500036957E+03 0.  0.
          2    1    1    2  501    0  0.75566819640E+01  0.27667308625E+02 -0.62533573758E+03  0.62599310548E+03  0.00000000000E+00 0. -1.
          1    1    1    2  502    0 -0.13197387033E+03 -0.67320237173E+02 -0.52766498057E+02  0.15726862402E+03  0.00000000000E+00 0. -1.
         22    1    3    3    0    0  0.81089894620E+02  0.70177998063E+02 -0.23562996301E+03  0.25888607898E+03  0.00000000000E+00 0. -1.
         22    1    3    3    0    0  0.43327293748E+02 -0.30525069515E+02 -0.35054692678E+03  0.35453093254E+03  0.00000000000E+00 0. -1.
</event>
<event>
 7    1  0.6358809E-006  0.7012642E+02  0.7818608E-02  0.1384884E+00
          2   -1    0    0  502    0  0.00000000000E+00  0.00000000000E+00  0.14336784484E+03  0.14336784484E+03  0.00000000000E+00 0. -1.
          1   -1    0    0  501    0 -0.00000000000E+00 -0.00000000000E+00 -0.70664609427E+03  0.70664609427E+03  0.00000000000E+00 0. -1.
         25    2    1    2    0    0 -0.73673336723E+02 -0.58133748395E+02 -0.78668987188E+02  0.17499105361E+03  0.12500306417E+03 0.  0.
          2    1    1    2  501    0  0.42457467456E+01  0.56794046879E+02 -0.56553083632E+03  0.56839134138E+03  0.00000000000E+00 0. -1.
          1    1    1    2  502    0  0.69427589978E+02  0.13397015159E+01  0.80921574078E+02  0.10663154412E+03  0.00000000000E+00 0. -1.
         22    1    3    3    0    0 -0.86252552305E+02  0.95773520368E+01 -0.35853414035E+02  0.93897261671E+02  0.00000000000E+00 0.  1.
         22    1    3    3    0    0  0.12579215582E+02 -0.67711100432E+02 -0.42815573153E+02  0.81093791937E+02  0.00000000000E+00 0.  1.
</event>
<event>
 7    1  0.6358809E-006  0.1904665E+03  0.7818608E-02  0.1232797E+00
          2   -1    0    0  502    0  0.00000000000E+00  0.00000000000E+00  0.17496173311E+04  0.17496173311E+04  0.00000000000E+00 0. -1.
          1   -1    0    0  501    0 -0.00000000000E+00 -0.00000000000E+00 -0.32026407076E+03  0.32026407076E+03  0.00000000000E+00 0. -1.
         25    2    1    2    0    0 -0.14742886124E+03  0.20482610469E+03  0.86727793301E+03  0.91185783447E+03  0.12499877962E+03 0.  0.
          2    1    1    2  501    0  0.14479386474E+03 -0.12089769552E+03 -0.26578314124E+03  0.32591746534E+03  0.00000000000E+00 0. -1.
          1    1    1    2  502    0  0.26349965077E+01 -0.83928409171E+02  0.82785846853E+03  0.83210610201E+03  0.00000000000E+00 0. -1.
         22    1    3    3    0    0 -0.15962679350E+02  0.68715830350E+02  0.42473583608E+03  0.43055452956E+03  0.00000000000E+00 0. -1.
         22    1    3    3    0    0 -0.13146618189E+03  0.13611027434E+03  0.44254209693E+03  0.48130330491E+03  0.00000000000E+00 0. -1.
</event>
<event>
 7    1  0.6358809E-006  0.1304721E+03  0.7818608E-02  0.1289484E+00
          2   -1    0    0  502    0  0.00000000000E+00  0.00000000000E+00  0.29967680713E+03  0.29967680713E+03  0.00000000000E+00 0. -1.
          1   -1    0    0  501    0 -0.00000000000E+00 -0.00000000000E+00 -0.11106866048E+04  0.11106866048E+04  0.00000000000E+00 0. -1.
         25    2    1    2    0    0  0.51559523091E+02  0.64323106223E+02 -0.20046861958E+03  0.25021767622E+03  0.12500148656E+03 0.  0.
          2    1    1    2  501    0 -0.21582901269E+02  0.66880125157E+02 -0.86735850654E+03  0.87020086856E+03  0.00000000000E+00 0. -1.
          1    1    1    2  502    0 -0.29976621822E+02 -0.13120323138E+03  0.25681732846E+03  0.28994486714E+03  0.00000000000E+00 0. -1.
         22    1    3    3    0    0 -0.16309979754E+01 -0.34470010051E+02 -0.27883186408E+02  0.44365683040E+02  0.00000000000E+00 0.  1.
         22    1    3    3    0    0  0.53190521067E+02  0.98793116274E+02 -0.17258543317E+03  0.20585199319E+03  0.00000000000E+00 0.  1.
</event>
<event>
 7    1  0.6358809E-006  0.1734218E+03  0.7818608E-02  0.1325982E+00
          2   -1    0    0  502    0  0.00000000000E+00  0.00000000000E+00  0.96820137068E+03  0.96820137068E+03  0.00000000000E+00 0. -1.
          1   -1    0    0  501    0 -0.00000000000E+00 -0.00000000000E+00 -0.18110003442E+03  0.18110003442E+03  0.00000000000E+00 0. -1.
         25    2    1    2    0    0  0.13099275796E+03  0.76893400634E+02 -0.15857562934E+01  0.19672266707E+03  0.12500238164E+03 0.  0.
          2    1    1    2  501    0  0.18647240272E+01  0.37872178013E+02 -0.68124116885E+02  0.77965853837E+02  0.00000000000E+00 0. -1.
          1    1    1    2  502    0 -0.13285748199E+03 -0.11476557865E+03  0.85681120944E+03  0.87461288419E+03  0.00000000000E+00 0. -1.
         22    1    3    3    0    0  0.86871305381E+02 -0.94255969157E+00 -0.44366456511E+02  0.97549446849E+02  0.00000000000E+00 0.  1.
         22    1    3    3    0    0  0.44121452582E+02  0.77835960325E+02  0.42780700217E+02  0.99173220220E+02  0.00000000000E+00 0.  1.
</event>
<event>
 7    1  0.6358809E-006  0.1019586E+03  0.7818608E-02  0.1385372E+00
          2   -1    0    0  502    0  0.00000000000E+00  0.00000000000E+00  0.66394596544E+03  0.66394596544E+03  0.00000000000E+00 0. -1.
          1   -1    0    0  501    0 -0.00000000000E+00 -0.00000000000E+00 -0.21889243046E+04  0.21889243046E+04  0.00000000000E+00 0. -1.
         25    2    1    2    0    0 -0.46361177328E+02  0.44167184148E+02 -0.32852964363E+02  0.14424029555E+03  0.12500338665E+03 0.  0.
          2    1    1    2  501    0  0.78050918555E+02 -0.66929253646E+02 -0.20984920121E+04  0.21010093279E+04  0.00000000000E+00 0. -1.
          1    1    1    2  502    0 -0.31689741227E+02  0.22762069498E+02  0.60636663725E+03  0.60762064669E+03  0.00000000000E+00 0. -1.
         22    1    3    3    0    0 -0.83488022716E+02  0.46095454972E+02 -0.44558756283E+02  0.10526406636E+03  0.00000000000E+00 0.  1.
         22    1    3    3    0    0  0.37126845388E+02 -0.19282708244E+01  0.11705791920E+02  0.38976229183E+02  0.00000000000E+00 0.  1.
</event>
<event>
 7    1  0.6358809E-006  0.7754065E+02  0.7818608E-02  0.1501500E+00
          2   -1    0    0  502    0  0.00000000000E+00  0.00000000000E+00  0.53396225153E+03  0.53396225153E+03  0.00000000000E+00 0. -1.
          1   -1    0    0  501    0 -0.00000000000E+00 -0.00000000000E+00 -0.21364673651E+04  0.21364673651E+04  0.00000000000E+00 0. -1.
         25    2    1    2    0    0 -0.64088268617E+01  0.90310495120E+02  0.88516533040E+02  0.17793875975E+03  0.12501986646E+03 0.  0.
          2    1    1    2  501    0 -0.10427120690E+02 -0.76776048711E+02 -0.20907470266E+04  0.20921822138E+04  0.00000000000E+00 0. -1.
          1    1    1    2  502    0  0.16835947552E+02 -0.13534446408E+02  0.39972537995E+03  0.40030864311E+03  0.00000000000E+00 0. -1.
         22    1    3    3    0    0  0.44965648430E+02  0.91999185211E+02  0.65960173894E+02  0.12180518937E+03  0.00000000000E+00 0.  1.
         22    1    3    3    0    0 -0.51374475292E+02 -0.16886900909E+01  0.22556359146E+02  0.56133570380E+02  0.00000000000E+00 0.  1.
</event>
<event>
 7    1  0.6358809E-006  0.8154094E+02  0.7818608E-02  0.1369990E+00
          2   -1    0    0  502    0  0.00000000000E+00  0.00000000000E+00  0.26421384792E+04  0.26421384792E+04  0.00000000000E+00 0. -1.
          1   -1    0    0  501    0 -0.00000000000E+00 -0.00000000000E+00 -0.18292717153E+03  0.18292717153E+03  0.00000000000E+00 0. -1.
         25    2    1    2    0    0 -0.11942934657E+03  0.38307627835E+02  0.12566090582E+04  0.12690239314E+04  0.12499828062E+03 0.  0.
          2    1    1    2  501    0  0.44885583009E+02 -0.32355431549E+02 -0.17134674458E+03  0.18005914692E+03  0.00000000000E+00 0. -1.
          1    1    1    2  502    0  0.74543763560E+02 -0.59521962863E+01  0.13739489940E+04  0.13759825723E+04  0.00000000000E+00 0. -1.
         22    1    3    3    0    0  0.68427388987E+01  0.46311928341E+02  0.23568842468E+03  0.24029284490E+03  0.00000000000E+00 0. -1.
         22    1    3    3    0    0 -0.12627208547E+03 -0.80043005063E+01  0.10209206336E+04  0.10287310865E+04  0.00000000000E+00 0. -1.
</event>
<event>
 7    1  0.6358809E-006  0.1028494E+03  0.7818608E-02  0.1323552E+00
          2   -1    0    0  502    0  0.00000000000E+00  0.00000000000E+00  0.60627339033E+03  0.60627339033E+03  0.00000000000E+00 0. -1.
          1   -1    0    0  501    0 -0.00000000000E+00 -0.00000000000E+00 -0.10377936837E+04  0.10377936837E+04  0.00000000000E+00 0. -1.
         25    2    1    2    0    0 -0.73290498559E+02 -0.13666461036E+03  0.10366497581E+03  0.22454410397E+03  0.12499965806E+03 0.  0.
          2    1    1    2  501    0  0.51133550653E+02  0.40660286344E+02 -0.97075386140E+03  0.97294961756E+03  0.00000000000E+00 0. -1.
          1    1    1    2  502    0  0.22156947906E+02  0.96004324013E+02  0.43556859225E+03  0.44657335246E+03  0.00000000000E+00 0. -1.
         22    1    3    3    0    0 -0.84737401855E+02 -0.32356131362E+02  0.69223173929E+02  0.11410168412E+03  0.00000000000E+00 0.  1.
         22    1    3    3    0    0  0.11446903297E+02 -0.10430847900E+03  0.34441801883E+02  0.11044241985E+03  0.00000000000E+00 0.  1.
</event>
<event>
 7    1  0.6358809E-006  0.1254600E+03  0.7818608E-02  0.1421597E+00
          2   -1    0    0  502    0  0.00000000000E+00  0.00000000000E+00  0.48479762230E+03  0.48479762230E+03  0.00000000000E+00 0. -1.
          1   -1    0    0  501    0 -0.00000000000E+00 -0.00000000000E+00 -0.30451232061E+03  0.30451232061E+03  0.00000000000E+00 0. -1.
         25    2    1    2    0    0 -0.66086948119E+02  0.96747194238E+02  0.14196267712E+02  0.17189051057E+03  0.12496923343E+03 0.  0.
          2    1    1    2  501    0 -0.22930735089E+02 -0.65045566907E+01 -0.21473470357E+03  0.21605351371E+03  0.00000000000E+00 0. -1.
          1    1    1    2  502    0  0.89017683209E+02 -0.90242637548E+02  0.38082373755E+03  0.40136591863E+03  0.00000000000E+00 0. -1.
         22    1    3    3    0    0 -0.60160824611E+01  0.66475809956E+02 -0.46451371340E+02  0.81320086429E+02  0.00000000000E+00 0.  1.
         22    1    3    3    0    0 -0.60070865658E+02  0.30271384282E+02  0.60647639052E+02  0.90570424146E+02  0.00000000000E+00 0.  1.
</event>
<event>
 7    1  0.6358809E-006  0.7643335E+02  0.7818608E-02  0.1365710E+00
          2   -1    0    0  502    0  0.00000000000E+00  0.00000000000E+00  0.46430949393E+03  0.46430949393E+03  0.00000000000E+00 0. -1.
          1   -1    0    0  501    0 -0.00000000000E+00 -0.00000000000E+00 -0.22278112903E+03  0.22278112903E+03  0.00000000000E+00 0. -1.
         25    2    1    2    0    0  0.10418862772E+03  0.87190573908E+01  0.17129039069E+03  0.23642334261E+03  0.12499722750E+03 0.  0.
          2    1    1    2  501    0 -0.47139186679E+02  0.38975288501E+02 -0.17974093442E+03  0.18986305470E+03  0.00000000000E+00 0. -1.
          1    1    1    2  502    0 -0.57049441038E+02 -0.47694345892E+02  0.24997890864E+03  0.26080422565E+03  0.00000000000E+00 0. -1.
         22    1    3    3    0    0  0.52885296888E+02 -0.48182805150E+02  0.13242283373E+03  0.15051326929E+03  0.00000000000E+00 0.  1.
         22    1    3    3    0    0  0.51303330830E+02  0.56901862541E+02  0.38867556956E+02  0.85910073324E+02  0.00000000000E+00 0.  1.
</event>
<event>
 7    1  0.6358809E-006  0.1251255E+03  0.7818608E-02  0.1257319E+00
          2   -1    0    0  502    0  0.00000000000E+00  0.00000000000E+00  0.16102270416E+04  0.16102270416E+04  0.00000000000E+00 0. -1.
          1   -1    0    0  501    0 -0.00000000000E+00 -0.00000000000E+00 -0.66660242971E+02  0.66660242971E+02  0.00000000000E+00 0. -1.
         25    2    1    2    0    0  0.10103592577E+02 -0.60703512326E+02  0.16051856782E+03  0.21255256714E+03  0.12500153675E+03 0.  0.
          2    1    1    2  501    0 -0.13517045355E+03  0.56873947778E+02  0.10545288957E+03  0.18062671277E+03  0.00000000000E+00 0. -1.
          1    1    1    2  502    0  0.12506686097E+03  0.38295645488E+01  0.12775953413E+04  0.12837080047E+04  0.00000000000E+00 0. -1.
         22    1    3    3    0    0  0.13181389292E+02 -0.29653622228E+02 -0.13945086346E+02  0.35320698862E+02  0.00000000000E+00 0.  1.
         22    1    3    3    0    0 -0.30777967151E+01 -0.31049890098E+02  0.17446365417E+03  0.17723186828E+03  0.00000000000E+00 0.  1.
</event>
<event>
 7    1  0.6358809E-006  0.1202114E+03  0.7818608E-02  0.1265958E+00
          2   -1    0    0  502    0  0.00000000000E+00  0.00000000000E+00  0.25088531071E+04  0.25088531071E+04  0.00000000000E+00 0. -1.
          1   -1    0    0  501    0 -0.00000000000E+00 -0.00000000000E+00 -0.50964860793E+03  0.50964860793E+03  0.00000000000E+00 0. -1.
         25    2    1    2    0    0  0.40573102988E+02  0.16627095080E+03  0.10253546661E+03  0.23543650236E+03  0.12499847586E+03 0.  0.
          2    1    1    2  501    0 -0.85979877436E+02 -0.82265437059E+02 -0.43421533304E+03  0.45022560667E+03  0.00000000000E+00 0. -1.
          1    1    1    2  502    0  0.45406774447E+02 -0.84005513740E+02  0.23308843656E+04  0.23328396060E+04  0.00000000000E+00 0. -1.
         22    1    3    3    0    0 -0.32346971606E+02  0.99194178161E+02  0.19452596185E+02  0.10613300642E+03  0.00000000000E+00 0. -1.
         22    1    3    3    0    0  0.72920074594E+02  0.67076772637E+02  0.83082870421E+02  0.12930349595E+03  0.00000000000E+00 0. -1.
</event>
<event>
 7    1  0.6358809E-006  0.9042579E+02  0.7818608E-02  0.1404974E+00
          2   -1    0    0  502    0  0.00000000000E+00  0.00000000000E+00  0.14298077852E+04  0.14298077852E+04  0.00000000000E+00 0. -1.
          1   -1    0    0  501    0 -0.00000000000E+00 -0.00000000000E+00 -0.10638578004E+03  0.10638578004E+03  0.00000000000E+00 0. -1.
         25    2    1    2    0    0  0.78289376947E+02  0.37340640554E+02 -0.26715174566E+02  0.15447039907E+03  0.12499541455E+03 0.  0.
          2    1    1    2  501    0 -0.10455860182E+03 -0.10401278774E+02  0.16263801804E+03  0.19362802670E+03  0.00000000000E+00 0. -1.
          1    1    1    2  502    0  0.26269224870E+02 -0.26939361779E+02  0.11874991617E+04  0.11880951395E+04  0.00000000000E+00 0. -1.
         22    1    3    3    0    0  0.49792920987E+02 -0.19625157049E+02  0.36458962864E+02  0.64759074598E+02  0.00000000000E+00 0.  1.
         22    1    3    3    0    0  0.28496455960E+02  0.56965797603E+02 -0.63174137429E+02  0.89711324473E+02  0.00000000000E+00 0.  1.
</event>
<event>
 7    1  0.6358809E-006  0.7019382E+02  0.7818608E-02  0.1380997E+00
          2   -1    0    0  502    0  0.00000000000E+00  0.00000000000E+00  0.96575953789E+03  0.96575953789E+03  0.00000000000E+00 0. -1.
          1   -1    0    0  501    0 -0.00000000000E+00 -0.00000000000E+00 -0.95740309455E+02  0.95740309455E+02  0.00000000000E+00 0. -1.
         25    2    1    2    0    0  0.89368181154E+02  0.85781132548E+02  0.20579993790E+03  0.27078325098E+03  0.12499952028E+03 0.  0.
          2    1    1    2  501    0 -0.53195432426E+02 -0.39522684412E+02 -0.44334929815E+02  0.79733196448E+02  0.00000000000E+00 0. -1.
          1    1    1    2  502    0 -0.36172748728E+02 -0.46258448136E+02  0.70855422036E+03  0.71098339992E+03  0.00000000000E+00 0. -1.
         22    1    3    3    0    0  0.17369572208E+02  0.98881319761E+02  0.96548259842E+02  0.13928669683E+03  0.00000000000E+00 0.  1.
         22    1    3    3    0    0  0.71998608947E+02 -0.13100187213E+02  0.10925167805E+03  0.13149655415E+03  0.00000000000E+00 0.  1.
</event>
<event>
 7    1  0.6358809E-006  0.5873569E+02  0.7818608E-02  0.1413239E+00
          2   -1    0    0  502    0  0.00000000000E+00  0.00000000000E+00  0.12771813920E+04  0.12771813920E+04  0.00000000000E+00 0. -1.
          1   -1    0    0  501    0 -0.00000000000E+00 -0.00000000000E+00 -0.57291269697E+03  0.57291269697E+03  0.00000000000E+00 0. -1.
         25    2    1    2    0    0 -0.52801762841E+01  0.73233445412E+01  0.31214675637E+02  0.12915380006E+03  0.12499934583E+03 0.  0.
          2    1    1    2  501    0 -0.54162292209E+02 -0.39420449238E+01 -0.52179274452E+03  0.52461105769E+03  0.00000000000E+00 0. -1.
          1    1    1    2  502    0  0.59442468493E+02 -0.33812996174E+01  0.11948467639E+04  0.11963292312E+04  0.00000000000E+00 0. -1.
         22    1    3    3    0    0  0.11432721365E+02  0.54099917144E+02  0.51439391755E+02  0.75521647075E+02  0.00000000000E+00 0. -1.
         22    1    3    3    0    0 -0.16712897649E+02 -0.46776572603E+02 -0.20224716118E+02  0.53632152990E+02  0.00000000000E+00 0. -1.
</event>
<event>
 7    1  0.6358809E-006  0.1559724E+03  0.7818608E-02  0.1207703E+00
          2   -1    0    0  502    0  0.00000000000E+00  0.00000000000E+00  0.17872544306E+04  0.17872544306E+04  0.00000000000E+00 0. -1.
          1   -1    0    0  501    0 -0.00000000000E+00 -0.00000000000E+00 -0.23809885195E+03  0.23809885195E+03  0.00000000000E+00 0. -1.
         25    2    1    2    0    0  0.15210765558E+03 -0.24056429749E+02  0.42585546862E+02  0.20286372335E+03  0.12499884300E+03 0.  0.
          2    1    1    2  501    0 -0.13362271363E+03 -0.10809278759E+03 -0.10762670541E+03  0.20278705098E+03  0.00000000000E+00 0. -1.
          1    1    1    2  502    0 -0.18484941952E+02  0.13214921734E+03  0.16141967372E+04  0.16197025082E+04  0.00000000000E+00 0. -1.
         22    1    3    3    0    0  0.85798339958E+02  0.12192938569E+02  0.80530769144E+02  0.11830142717E+03  0.00000000000E+00 0.  1.
         22    1    3    3    0    0  0.66309315624E+02 -0.36249368318E+02 -0.37945222281E+02  0.84562296185E+02  0.00000000000E+00 0.  1.
</event>
<event>
 7    1  0.6358809E-006  0.1165113E+03  0.7818608E-02  0.1286850E+00
          2   -1    0    0  502    0  0.00000000000E+00  0.00000000000E+00  0.14622375104E+03  0.14622375104E+03  0.00000000000E+00 0. -1.
          1   -1    0    0  501    0 -0.00000000000E+00 -0.00000000000E+00 -0.37391878080E+03  0.37391878080E+03  0.00000000000E+00 0. -1.
         25    2    1    2    0    0  0.52882098108E+02  0.39266175291E+02 -0.81985063490E+02  0.16335550769E+03  0.12500048974E+03 0.  0.
          2    1    1    2  501    0 -0.12827841755E+03 -0.67949519640E+02 -0.20885201533E+03  0.25434554043E+03  0.00000000000E+00 0. -1.
          1    1    1    2  502    0  0.75396319444E+02  0.28683344348E+02  0.63142049059E+02  0.10244148373E+03  0.00000000000E+00 0. -1.
         22    1    3    3    0    0  0.91782147009E+01  0.19763905091E+02 -0.10710946005E+03  0.10930365045E+03  0.00000000000E+00 0.  1.
         22    1    3    3    0    0  0.43703883407E+02  0.19502270200E+02  0.25124396564E+02  0.54051857235E+02  0.00000000000E+00 0.  1.
</event>
<event>
 7    1  0.6358809E-006  0.7371675E+02  0.7818608E-02  0.1397330E+00
          2   -1    0    0  502    0  0.00000000000E+00  0.00000000000E+00  0.15425481096E+03  0.15425481096E+03  0.00000000000E+00 0. -1.
          1   -1    0    0  501    0 -0.00000000000E+00 -0.00000000000E+00 -0.21201385298E+04  0.21201385298E+04  0.00000000000E+00 0. -1.
         25    2    1    2    0    0  0.11361139756E+03  0.21665980007E+02 -0.41090184867E+03  0.44479377192E+03  0.12499682378E+03 0.  0.
          2    1    1    2  501    0 -0.71850770965E+02  0.40255931580E+01 -0.16871220809E+04  0.16886561683E+04  0.00000000000E+00 0. -1.
          1    1    1    2  502    0 -0.41760626591E+02 -0.25691573165E+02  0.13214021075E+03  0.14094340057E+03  0.00000000000E+00 0. -1.
         22    1    3    3    0    0  0.19982616664E+02  0.40970008393E+02 -0.27430911407E+03  0.27807074031E+03  0.00000000000E+00 0.  1.
         22    1    3    3    0    0  0.93628780892E+02 -0.19304028386E+02 -0.13659273461E+03  0.16672303161E+03  0.00000000000E+00 0.  1.
</event>
<event>
 7    1  0.6358809E-006  0.1133770E+03  0.7818608E-02  0.1458507E+00
          2   -1    0    0  502    0  0.00000000000E+00  0.00000000000E+00  0.20858203242E+03  0.20858203242E+03  0.00000000000E+00 0. -1.
          1   -1    0    0  501    0 -0.00000000000E+00 -0.00000000000E+00 -0.32338018516E+03  0.32338018516E+03  0.00000000000E+00 0. -1.
         25    2    1    2    0    0 -0.95039237752E+02  0.31415427740E+02  0.98441759075E+02  0.18797715115E+03  0.12500097445E+03 0.  0.
          2    1    1    2  501    0  0.10319930983E+03 -0.49694020493E+02 -0.26488893484E+03  0.28859269052E+03  0.00000000000E+00 0. -1.
          1    1    1    2  502    0 -0.81600720804E+01  0.18278592753E+02  0.51649023025E+02  0.55392375908E+02  0.00000000000E+00 0. -1.
         22    1    3    3    0    0 -0.37781695640E+02 -0.35322800677E+02 -0.52871817221E+01  0.51991451833E+02  0.00000000000E+00 0. -1.
         22    1    3    3    0    0 -0.57257542112E+02  0.66738228418E+02  0.10372894080E+03  0.13598569932E+03  0.00000000000E+00 0. -1.
</event>
<event>
 7    1  0.6358809E-006  0.1355301E+03  0.7818608E-02  0.1355101E+00
          2   -1    0    0  502    0  0.00000000000E+00  0.00000000000E+00  0.31827263527E+03  0.31827263527E+03  0.00000000000E+00 0. -1.
          1   -1    0    0  501    0 -0.00000000000E+00 -0.00000000000E+00 -0.73473633447E+03  0.73473633447E+03  0.00000000000E+00 0. -1.
         25    2    1    2    0    0 -0.14680879861E+03  0.43128605051E+02  0.14633521695E+02  0.19812084565E+03  0.12499931840E+03 0.  0.
          2    1    1    2  501    0  0.13440776002E+03 -0.75169529478E+01 -0.63419211103E+03  0.64832212998E+03  0.00000000000E+00 0. -1.
          1    1    1    2  502    0  0.12401038586E+02 -0.35611652104E+02  0.20309489013E+03  0.20656599411E+03  0.00000000000E+00 0. -1.
         22    1    3    3    0    0 -0.11574478226E+03  0.85273338556E+02  0.25378495179E-01  0.14376507758E+03  0.00000000000E+00 0.  1.
         22    1    3    3    0    0 -0.31064016349E+02 -0.42144733504E+02  0.14608143200E+02  0.54355768062E+02  0.00000000000E+00 0.  1.
</event>
<event>
 7    1  0.6358809E-006  0.1669424E+03  0.7818608E-02  0.1304521E+00
          2   -1    0    0  502    0  0.00000000000E+00  0.00000000000E+00  0.99123804523E+03  0.99123804523E+03  0.00000000000E+00 0. -1.
          1   -1    0    0  501    0 -0.00000000000E+00 -0.00000000000E+00 -0.17146443415E+04  0.17146443415E+04  0.00000000000E+00 0. -1.
         25    2    1    2    0    0  0.87622705853E+02  0.88383248602E+02  0.12662018335E+03  0.21713513984E+03  0.12500264360E+03 0.  0.
          2    1    1    2  501    0 -0.13336889645E+03 -0.10218594160E+03 -0.16644573405E+04  0.16729158579E+04  0.00000000000E+00 0. -1.
          1    1    1    2  502    0  0.45746190593E+02  0.13802693002E+02  0.81443086084E+03  0.81583138906E+03  0.00000000000E+00 0. -1.
         22    1    3    3    0    0  0.10002680649E+03  0.51837201762E+02  0.35407860400E+02  0.11809392059E+03  0.00000000000E+00 0.  1.
         22    1    3    3    0    0 -0.12404100635E+02  0.36546046840E+02  0.91212322946E+02  0.99041219245E+02  0.00000000000E+00 0.  1.
</event>
<event>
 7    1  0.6358809E-006  0.1301507E+03  0.7818608E-02  0.1358823E+00
          2   -1    0    0  502    0  0.00000000000E+00  0.00000000000E+00  0.36672414139E+03  0.36672414139E+03  0.00000000000E+00 0. -1.
          1   -1    0    0  501    0 -0.00000000000E+00 -0.00000000000E+00 -0.60865147223E+03  0.60865147223E+03  0.00000000000E+00 0. -1.
         25    2    1    2    0    0  0.15396674596E+03  0.64078335598E+02 -0.43355245254E+03  0.48104500554E+03  0.12499910517E+03 0.  0.
          2    1    1    2  501    0 -0.36793462641E+02 -0.97088109582E+01 -0.13649490327E+03  0.14169995950E+03  0.00000000000E+00 0. -1.
          1    1    1    2  502    0 -0.11717328332E+03 -0.54369524640E+02  0.32812002498E+03  0.35263064859E+03  0.00000000000E+00 0. -1.
         22    1    3    3    0    0  0.78574709882E+02 -0.31909975533E+02 -0.14950182797E+03  0.17188085448E+03  0.00000000000E+00 0. -1.
         22    1    3    3    0    0  0.75392036074E+02  0.95988311132E+02 -0.28405062457E+03  0.30916415105E+03  0.00000000000E+00 0. -1.
</event>
<event>
 7    1  0.6358809E-006  0.5944154E+02  0.7818608E-02  0.1422397E+00
          2   -1    0    0  502    0  0.00000000000E+00  0.00000000000E+00  0.14745189902E+04  0.14745189902E+04  0.00000000000E+00 0. -1.
          1   -1    0    0  501    0 -0.00000000000E+00 -0.00000000000E+00 -0.53027342404E+02  0.53027342404E+02  0.00000000000E+00 0. -1.
         25    2    1    2    0    0 -0.66902999492E+02 -0.75168238405E+02  0.24218494605E+03  0.29052428128E+03  0.12499813805E+03 0.  0.
          2    1    1    2  501    0  0.47331505718E+02  0.29157406381E+02 -0.10551983124E+01  0.55601611702E+02  0.00000000000E+00 0. -1.
          1    1    1    2  502    0  0.19571493774E+02  0.46010832024E+02  0.11803619001E+04  0.11814204396E+04  0.00000000000E+00 0. -1.
         22    1    3    3    0    0 -0.35451335367E+02 -0.79465167210E+02  0.60242066573E+02  0.10583296539E+03  0.00000000000E+00 0. -1.
         22    1    3    3    0    0 -0.31451664125E+02  0.42969288044E+01  0.18194287948E+03  0.18469131589E+03  0.00000000000E+00 0. -1.
</event>
<event>
 7    1  0.6358809E-006  0.9683397E+02  0.7818608E-02  0.1356943E+00
          2   -1    0    0  502    0  0.00000000000E+00  0.00000000000E+00  0.33304779210E+03  0.33304779210E+03  0.00000000000E+00 0. -1.
          1   -1    0    0  501    0 -0.00000000000E+00 -0.00000000000E+00 -0.21701054563E+04  0.21701054563E+04  0.00000000000E+00 0. -1.
         25    2    1    2    0    0  0.56701929545E+02 -0.13170445062E+03 -0.14772917944E+03  0.24085243176E+03  0.12499924919E+03 0.  0.
          2    1    1    2  501    0 -0.21794738972E+02  0.93212881582E+02 -0.19722879633E+04  0.19746096987E+04  0.00000000000E+00 0. -1.
          1    1    1    2  502    0 -0.34907190573E+02  0.38491569040E+02  0.28295947856E+03  0.28769111795E+03  0.00000000000E+00 0. -1.
         22    1    3    3    0    0  0.57659673039E+02 -0.65607593048E+02 -0.97889559239E+01  0.87890942756E+02  0.00000000000E+00 0. -1.
         22    1    3    3    0    0 -0.95774349309E+00 -0.66096857573E+02 -0.13794022351E+03  0.15296148900E+03  0.00000000000E+00 0. -1.
</event>
<event>
 7    1  0.6358809E-006  0.1019007E+03  0.7818608E-02  0.1362160E+00
          2   -1    0    0  502    0  0.00000000000E+00  0.00000000000E+00  0.85398934928E+03  0.85398934928E+03  0.00000000000E+00 0. -1.
          1   -1    0    0  501    0 -0.00000000000E+00 -0.00000000000E+00 -0.36218189672E+02  0.36218189672E+02  0.00000000000E+00 0. -1.
         25    2    1    2    0    0 -0.61871231607E+02 -0.38308251284E+02  0.34967575505E+03  0.37840927621E+03  0.12499950095E+03 0.  0.
          2    1    1    2  501    0  0.10912816997E+03  0.38797523334E+02  0.14651683678E+03  0.18676559844E+03  0.00000000000E+00 0. -1.
          1    1    1    2  502    0 -0.47256938365E+02 -0.48927205081E+00  0.32157856778E+03  0.32503266431E+03  0.00000000000E+00 0. -1.
         22    1    3    3    0    0  0.33601322854E+02  0.64183649350E+01  0.13464819758E+03  0.13892581264E+03  0.00000000000E+00 0.  1.
         22    1    3    3    0    0 -0.95472554462E+02 -0.44726616219E+02  0.21502755747E+03  0.23948346357E+03  0.00000000000E+00 0.  1.
</event>
<event>
 7    1  0.6358809E-006  0.1032081E+03  0.7818608E-02  0.1309095E+00
          2   -1    0    0  502    0  0.00000000000E+00  0.00000000000E+00  0.14941332651E+04  0.14941332651E+04  0.00000000000E+00 0. -1.
          1   -1    0    0  501    0 -0.00000000000E+00 -0.00000000000E+00 -0.15973902290E+04  0.15973902290E+04  0.00000000000E+00 0. -1.
         25    2    1    2    0    0 -0.20599978101E+02 -0.35921035165E+02  0.71859794237E+03  0.73056364909E+03  0.12500225090E+03 0.  0.
          2    1    1    2  501    0 -0.11541871546E+02  0.10272358644E+03 -0.15879376292E+04  0.15912986094E+04  0.00000000000E+00 0. -1.
          1    1    1    2  502    0  0.32141849647E+02 -0.66802551273E+02  0.76608272290E+03  0.76966123566E+03  0.00000000000E+00 0. -1.
         22    1    3    3    0    0  0.39423792559E+02  0.12340562232E+02  0.42601249793E+03  0.42801071633E+03  0.00000000000E+00 0.  1.
         22    1    3    3    0    0 -0.60023770660E+02 -0.48261597396E+02  0.29258544444E+03  0.30255293277E+03  0.00000000000E+00 0.  1.
</event>
<event>
 7    1  0.6358809E-006  0.9201901E+02  0.7818608E-02  0.1441353E+00
          2   -1    0    0  502    0  0.00000000000E+00  0.00000000000E+00  0.17417488682E+04  0.17417488682E+04  0.00000000000E+00 0. -1.
          1   -1    0    0  501    0 -0.00000000000E+00 -0.00000000000E+00 -0.50986189414E+03  0.50986189414E+03  0.00000000000E+00 0. -1.
         25    2    1    2    0    0 -0.81050467932E+02 -0.41183164254E+02 -0.13845087409E+03  0.20750632289E+03  0.12499999254E+03 0.  0.
          2    1    1    2  501    0  0.66352577122E+02  0.64999274780E+02 -0.33036348873E+03  0.34317284989E+03  0.00000000000E+00 0. -1.
          1    1    1    2  502    0  0.14697890811E+02 -0.23816110527E+02  0.17007013369E+04  0.17009315896E+04  0.00000000000E+00 0. -1.
         22    1    3    3    0    0 -0.40684442269E+02  0.37171021832E+02 -0.17446717667E+02  0.57803950247E+02  0.00000000000E+00 0. -1.
         22    1    3    3    0    0 -0.40366025663E+02 -0.78354186086E+02 -0.12100415642E+03  0.14970237265E+03  0.00000000000E+00 0. -1.
</event>
<event>
 7    1  0.6358809E-006  0.8967732E+02  0.7818608E-02  0.1445935E+00
          2   -1    0    0  502    0  0.00000000000E+00  0.00000000000E+00  0.73140788452E+03  0.73140788452E+03  0.00000000000E+00 0. -1.
          1   -1    0    0  501    0 -0.00000000000E+00 -0.00000000000E+00 -0.31841469672E+03  0.31841469672E+03  0.00000000000E+00 0. -1.
         25    2    1    2    0    0 -0.79075771813E+02 -0.58892885606E+02  0.62148459015E+03  0.64155264917E+03  0.12500142479E+03 0.  0.
          2    1    1    2  501    0  0.54263130038E+02  0.71330335667E+02 -0.29976150761E+03  0.31287292231E+03  0.00000000000E+00 0. -1.
          1    1    1    2  502    0  0.24812641775E+02 -0.12437450060E+02  0.91270105260E+02  0.95397009754E+02  0.00000000000E+00 0. -1.
         22    1    3    3    0    0 -0.29127013533E+01 -0.75818199738E+02  0.38884916517E+03  0.39618247878E+03  0.00000000000E+00 0.  1.
         22    1    3    3    0    0 -0.76163070459E+02  0.16925314132E+02  0.23263542498E+03  0.24537017039E+03  0.00000000000E+00 0.  1.
</event>
<event>
 7    1  0.6358809E-006  0.6107884E+02  0.7818608E-02  0.1450168E+00
          2   -1    0    0  502    0  0.00000000000E+00  0.00000000000E+00  0.70895536530E+03  0.70895536530E+03  0.00000000000E+00 0. -1.
          1   -1    0    0  501    0 -0.00000000000E+00 -0.00000000000E+00 -0.44351988047E+02  0.44351988047E+02  0.00000000000E+00 0. -1.
         25    2    1    2    0    0 -0.23442512807E+02  0.87219221690E+02  0.18712566086E+03  0.24248289152E+03  0.12500078275E+03 0.  0.
          2    1    1    2  501    0  0.56493642632E+00 -0.55023310736E+02  0.32111871816E+02  0.63710722716E+02  0.00000000000E+00 0. -1.
          1    1    1    2  502    0  0.22877576381E+02 -0.32195910954E+02  0.44536584459E+03  0.44711373912E+03  0.00000000000E+00 0. -1.
         22    1    3    3    0    0 -0.56201331392E+02  0.91095512517E+02  0.89796090924E+02  0.13971513875E+03  0.00000000000E+00 0.  1.
         22    1    3    3    0    0  0.32758818584E+02 -0.38762908273E+01  0.97329569932E+02  0.10276775277E+03  0.00000000000E+00 0.  1.
</event>
<event>
 7    1  0.6358809E-006  0.2912430E+02  0.7818608E-02  0.1634332E+00
          2   -1    0    0  502    0  0.00000000000E+00  0.00000000000E+00  0.17831578009E+04  0.17831578009E+04  0.00000000000E+00 0. -1.
          1   -1    0    0  501    0 -0.00000000000E+00 -0.00000000000E+00 -0.60878969462E+02  0.60878969462E+02  0.00000000000E+00 0. -1.
         25    2    1    2    0    0  0.14408574081E+01 -0.45962815309E+02  0.54922946906E+03  0.56514720151E+03  0.12499477279E+03 0.  0.
          2    1    1    2  501    0  0.13298482765E+02  0.25821117954E+02 -0.48797880816E+02  0.56787436536E+02  0.00000000000E+00 0. -1.
          1    1    1    2  502    0 -0.14739340173E+02  0.20141697355E+02  0.12218472432E+04  0.12221021323E+04  0.00000000000E+00 0. -1.
         22    1    3    3    0    0 -0.38095258330E+02  0.29371652440E+02  0.19648668004E+03  0.20228929311E+03  0.00000000000E+00 0. -1.
         22    1    3    3    0    0  0.39536115738E+02 -0.75334467749E+02  0.35274278902E+03  0.36285790840E+03  0.00000000000E+00 0. -1.
</event>
<event>
 7    1  0.6358809E-006  0.6335758E+02  0.7818608E-02  0.1480390E+00
          2   -1    0    0  502    0  0.00000000000E+00  0.00000000000E+00  0.27140531375E+04  0.27140531375E+04  0.00000000000E+00 0. -1.
          1   -1    0    0  501    0 -0.00000000000E+00 -0.00000000000E+00 -0.57207926207E+02  0.57207926207E+02  0.00000000000E+00 0. -1.
         25    2    1    2    0    0  0.33753473565E+01  0.37252371261E+02  0.17326645847E+04  0.17375699103E+04  0.12499399205E+03 0.  0.
          2    1    1    2  501    0  0.14765022277E+02 -0.61920281736E+02 -0.35927268666E+02  0.73095114795E+02  0.00000000000E+00 0. -1.
          1    1    1    2  502    0 -0.18140369634E+02  0.24667910475E+02  0.96010789524E+03  0.96059603857E+03  0.00000000000E+00 0. -1.
         22    1    3    3    0    0 -0.59715749693E+01  0.80234935288E+02  0.84671022401E+03  0.85052425480E+03  0.00000000000E+00 0. -1.
         22    1    3    3    0    0  0.93469223258E+01 -0.42982564027E+02  0.88595436068E+03  0.88704565552E+03  0.00000000000E+00 0. -1.
</event>
<event>
 7    1  0.6358809E-006  0.1095438E+03  0.7818608E-02  0.1311870E+00
          2   -1    0    0  502    0  0.00000000000E+00  0.00000000000E+00  0.34959370361E+04  0.34959370361E+04  0.00000000000E+00 0. -1.
          1   -1    0    0  501    0 -0.00000000000E+00 -0.00000000000E+00 -0.12259181878E+03  0.12259181878E+03  0.00000000000E+00 0. -1.
         25    2    1    2    0    0  0.75637271220E+02 -0.15019899580E+03  0.40634347506E+03  0.45718838130E+03  0.12500184454E+03 0.  0.
          2    1    1    2  501    0 -0.65790811033E+01  0.67791523192E+02 -0.84169748640E+02  0.10827521189E+03  0.00000000000E+00 0. -1.
          1    1    1    2  502    0 -0.69058190117E+02  0.82407472608E+02  0.30511714909E+04  0.30530652617E+04  0.00000000000E+00 0. -1.
         22    1    3    3    0    0 -0.29255345240E+02 -0.62124836126E+02  0.96660812830E+02  0.11856931823E+03  0.00000000000E+00 0.  1.
         22    1    3    3    0    0  0.10489261646E+03 -0.88074159674E+02  0.30968266223E+03  0.33861906307E+03  0.00000000000E+00 0.  1.
</event>
<event>
 7    1  0.6358809E-006  0.8739035E+02  0.7818608E-02  0.1472420E+00
          2   -1    0    0  502    0  0.00000000000E+00  0.00000000000E+00  0.69960867295E+03  0.69960867295E+03  0.00000000000E+00 0. -1.
          1   -1    0    0  501    0 -0.00000000000E+00 -0.00000000000E+00 -0.42011884745E+03  0.42011884745E+03  0.00000000000E+00 0. -1.
         25    2    1    2    0    0 -0.46489186701E+02  0.78581250703E+02  0.58212052258E+02  0.16537887723E+03  0.12500109025E+03 0.  0.
          2    1    1    2  501    0 -0.15805178225E+02 -0.17379521142E+02 -0.36291009925E+03  0.36366961869E+03  0.00000000000E+00 0. -1.
          1    1    1    2  502    0  0.62294364926E+02 -0.61201729562E+02  0.58418787249E+03  0.59067902449E+03  0.00000000000E+00 0. -1.
         22    1    3    3    0    0  0.28893089526E+02  0.66973654859E+01 -0.19435566030E+02  0.35459928846E+02  0.00000000000E+00 0. -1.
         22    1    3    3    0    0 -0.75382276227E+02  0.71883885217E+02  0.77647618289E+02  0.12991894838E+03  0.00000000000E+00 0. -1.
</event>
<event>
 7    1  0.6358809E-006  0.1766348E+03  0.7818608E-02  0.1203181E+00
          2   -1    0    0  502    0  0.00000000000E+00  0.00000000000E+00  0.79038869724E+03  0.79038869724E+03  0.00000000000E+00 0. -1.
          1   -1    0    0  501    0 -0.00000000000E+00 -0.00000000000E+00 -0.65720292032E+03  0.65720292032E+03  0.00000000000E+00 0. -1.
         25    2    1    2    0    0  0.63467217740E+02 -0.81685345103E+02  0.85940135990E+02  0.18363522275E+03  0.12504241172E+03 0.  0.
          2    1    1    2  501    0 -0.30401689400E+02 -0.11990794830E+03 -0.58582395539E+03  0.59874191894E+03  0.00000000000E+00 0. -1.
          1    1    1    2  502    0 -0.33065528339E+02  0.20159329341E+03  0.63306959632E+03  0.66521447586E+03  0.00000000000E+00 0. -1.
         22    1    3    3    0    0  0.38397821494E+02  0.57293923297E+01  0.84155922306E+02  0.92679220384E+02  0.00000000000E+00 0.  1.
         22    1    3    3    0    0  0.25069396246E+02 -0.87414737433E+02  0.17842136837E+01  0.90956002370E+02  0.00000000000E+00 0.  1.
</event>
<event>
 7    1  0.6358809E-006  0.8229748E+02  0.7818608E-02  0.1481038E+00
          2   -1    0    0  502    0  0.00000000000E+00  0.00000000000E+00  0.13133531375E+04  0.13133531375E+04  0.00000000000E+00 0. -1.
          1   -1    0    0  501    0 -0.00000000000E+00 -0.00000000000E+00 -0.18584777459E+02  0.18584777459E+02  0.00000000000E+00 0. -1.
         25    2    1    2    0    0 -0.64466199158E+02  0.37796031619E+01  0.70772390021E+03  0.72157370552E+03  0.12500126932E+03 0.  0.
          2    1    1    2  501    0  0.86335507663E+02  0.47269897727E+01  0.15343748341E+03  0.17612275728E+03  0.00000000000E+00 0. -1.
          1    1    1    2  502    0 -0.21869308504E+02 -0.85065929347E+01  0.43360697643E+03  0.43424145218E+03  0.00000000000E+00 0. -1.
         22    1    3    3    0    0  0.36931889786E+02  0.26125828911E+01  0.25191105255E+03  0.25461729805E+03  0.00000000000E+00 0.  1.
         22    1    3    3    0    0 -0.10139808894E+03  0.11670202709E+01  0.45581284766E+03  0.46695640746E+03  0.00000000000E+00 0.  1.
</event>
<event>
 7    1  0.6358809E-006  0.3426909E+02  0.7818608E-02  0.1591010E+00
          2   -1    0    0  502    0  0.00000000000E+00  0.00000000000E+00  0.64905143497E+03  0.64905143497E+03  0.00000000000E+00 0. -1.
          1   -1    0    0  501    0 -0.00000000000E+00 -0.00000000000E+00 -0.12473867493E+04  0.12473867493E+04  0.00000000000E+00 0. -1.
         25    2    1    2    0    0 -0.48321604537E+02 -0.60448490053E+00  0.24235109287E+03  0.27693663014E+03  0.12499800811E+03 0.  0.
          2    1    1    2  501    0  0.28769012933E+02 -0.18610132833E+02 -0.12293725257E+04  0.12298499096E+04  0.00000000000E+00 0. -1.
          1    1    1    2  502    0  0.19552591604E+02  0.19214617734E+02  0.38868611851E+03  0.38965164454E+03  0.00000000000E+00 0. -1.
         22    1    3    3    0    0 -0.36217402053E+02  0.46620930526E+02  0.46615677033E+02  0.75221225195E+02  0.00000000000E+00 0.  1.
         22    1    3    3    0    0 -0.12104202484E+02 -0.47225415427E+02  0.19573541584E+03  0.20171540495E+03  0.00000000000E+00 0.  1.
</event>
<event>
 7    1  0.6358809E-006  0.7924750E+02  0.7818608E-02  0.1401827E+00
          2   -1    0    0  502    0  0.00000000000E+00  0.00000000000E+00  0.11936933847E+03  0.11936933847E+03  0.00000000000E+00 0. -1.
          1   -1    0    0  501    0 -0.00000000000E+00 -0.00000000000E+00 -0.22824727314E+04  0.22824727314E+04  0.00000000000E+00 0. -1.
         25    2    1    2    0    0  0.97938852704E+02  0.19135083596E+01 -0.12094470073E+03  0.19962130400E+03  0.12500145596E+03 0.  0.
          2    1    1    2  501    0 -0.70318048579E+02 -0.36179824543E+02 -0.21153434718E+04  0.21168211100E+04  0.00000000000E+00 0. -1.
          1    1    1    2  502    0 -0.27620804125E+02  0.34266316183E+02  0.73184779695E+02  0.85399655880E+02  0.00000000000E+00 0. -1.
         22    1    3    3    0    0 -0.21363587456E+01  0.48374084128E+02 -0.39344404736E+02  0.62390690235E+02  0.00000000000E+00 0. -1.
         22    1    3    3    0    0  0.10007521145E+03 -0.46460575769E+02 -0.81600295993E+02  0.13723061376E+03  0.00000000000E+00 0. -1.
</event>
<event>
 7    1  0.6358809E-006  0.8435378E+02  0.7818608E-02  0.1348361E+00
          2   -1    0    0  502    0  0.00000000000E+00  0.00000000000E+00  0.85970933922E+02  0.85970933922E+02  0.00000000000E+00 0. -1.
          1   -1    0    0  501    0 -0.00000000000E+00 -0.00000000000E+00 -0.78743873772E+03  0.78743873772E+03  0.00000000000E+00 0. -1.
         25    2    1    2    0    0  0.12318013153E+02  0.54785697529E+02 -0.30766908834E+03  0.33680720730E+03  0.12500248345E+03 0.  0.
          2    1    1    2  501    0  0.63457968050E+02 -0.94858343373E+01 -0.43462491581E+03  0.43933553488E+03  0.00000000000E+00 0. -1.
          1    1    1    2  502    0 -0.75775981202E+02 -0.45299863192E+02  0.40826200350E+02  0.97266929464E+02  0.00000000000E+00 0. -1.
         22    1    3    3    0    0  0.38013933369E+02 -0.29944161878E+02 -0.11507164265E+03  0.12483266761E+03  0.00000000000E+00 0. -1.
         22    1    3    3    0    0 -0.25695920217E+02  0.84729859407E+02 -0.19259744569E+03  0.21197453969E+03  0.00000000000E+00 0. -1.
</event>
<event>
 7    1  0.6358809E-006  0.6236073E+02  0.7818608E-02  0.1435476E+00
          2   -1    0    0  502    0  0.00000000000E+00  0.00000000000E+00  0.11481936806E+04  0.11481936806E+04  0.00000000000E+00 0. -1.
          1   -1    0    0  501    0 -0.00000000000E+00 -0.00000000000E+00 -0.76559811282E+02  0.76559811282E+02  0.00000000000E+00 0. -1.
         25    2    1    2    0    0 -0.19691193584E+02  0.12520284841E+02  0.27156654682E+03  0.29986180638E+03  0.12499685170E+03 0.  0.
          2    1    1    2  501    0 -0.41395195724E+02  0.12196258068E+02 -0.53527593391E+02  0.68756921064E+02  0.00000000000E+00 0. -1.
          1    1    1    2  502    0  0.61086389308E+02 -0.24716542910E+02  0.85359491592E+03  0.85613476447E+03  0.00000000000E+00 0. -1.
         22    1    3    3    0    0  0.10335252521E+01  0.20346094929E+02 -0.61365662046E+01  0.21276494027E+02  0.00000000000E+00 0. -1.
         22    1    3    3    0    0 -0.20724718836E+02 -0.78258100872E+01  0.27770311302E+03  0.27858531235E+03  0.00000000000E+00 0. -1.
</event>
<event>
 7    1  0.6358809E-006  0.2555523E+02  0.7818608E-02  0.1661981E+00
          2   -1    0    0  502    0  0.00000000000E+00  0.00000000000E+00  0.43147749964E+03  0.43147749964E+03  0.00000000000E+00 0. -1.
          1   -1    0    0  501    0 -0.00000000000E+00 -0.00000000000E+00 -0.66243909186E+03  0.66243909186E+03  0.00000000000E+00 0. -1.
         25    2    1    2    0    0  0.32006564806E+02 -0.78397585893E+01 -0.21011771524E+02  0.13096781966E+03  0.12500077295E+03 0.  0.
          2    1    1    2  501    0 -0.21373471601E+02 -0.14036920141E+02 -0.58577721745E+03  0.58633506538E+03  0.00000000000E+00 0. -1.
          1    1    1    2  502    0 -0.10633093205E+02  0.21876678731E+02  0.37582739675E+03  0.37661370646E+03  0.00000000000E+00 0. -1.
         22    1    3    3    0    0  0.80386788863E+02 -0.37295193060E+01 -0.92015614889E+01  0.80997616457E+02  0.00000000000E+00 0.  1.
         22    1    3    3    0    0 -0.48380224057E+02 -0.41102392833E+01 -0.11810210035E+02  0.49970203200E+02  0.00000000000E+00 0.  1.
</event>
<event>
 7    1  0.6358809E-006  0.1546674E+03  0.7818608E-02  0.1266407E+00
          2   -1    0    0  502    0  0.00000000000E+00  0.00000000000E+00  0.32413185902E+02  0.32413185902E+02  0.00000000000E+00 0. -1.
          1   -1    0    0  501    0 -0.00000000000E+00 -0.00000000000E+00 -0.24842098239E+04  0.24842098239E+04  0.00000000000E+00 0. -1.
         25    2    1    2    0    0  0.16887301161E+03 -0.11243195386E+02 -0.54695204483E+03  0.58602540400E+03  0.12499892518E+03 0.  0.
          2    1    1    2  501    0 -0.14330592727E+03 -0.58087639652E+02 -0.17707639796E+04  0.17775026959E+04  0.00000000000E+00 0. -1.
          1    1    1    2  502    0 -0.25567084340E+02  0.69330835038E+02 -0.13408061361E+03  0.15309490989E+03  0.00000000000E+00 0. -1.
         22    1    3    3    0    0  0.84182408396E+02 -0.36410348106E+02 -0.42876354075E+03  0.43846386990E+03  0.00000000000E+00 0.  1.
         22    1    3    3    0    0  0.84690603212E+02  0.25167152719E+02 -0.11818850408E+03  0.14756153409E+03  0.00000000000E+00 0.  1.
</event>
<event>
 7    1  0.6358809E-006  0.8703358E+02  0.7818608E-02  0.1465136E+00
          2   -1    0    0  502    0  0.00000000000E+00  0.00000000000E+00  0.11579773552E+04  0.11579773552E+04  0.00000000000E+00 0. -1.
          1   -1    0    0  501    0 -0.00000000000E+00 -0.00000000000E+00 -0.23416668005E+03  0.23416668005E+03  0.00000000000E+00 0. -1.
         25    2    1    2    0    0  0.67989765341E+02  0.83374502028E+02 -0.10637459005E+02  0.16526481036E+03  0.12500154490E+03 0.  0.
          2    1    1    2  501    0 -0.44634840305E+01 -0.24449311257E+02 -0.14340814356E+03  0.14554582491E+03  0.00000000000E+00 0. -1.
          1    1    1    2  502    0 -0.63526281310E+02 -0.58925190771E+02  0.10778562777E+04  0.10813334000E+04  0.00000000000E+00 0. -1.
         22    1    3    3    0    0  0.56937894911E+02  0.95492021582E+02 -0.50537418739E+02  0.12212567607E+03  0.00000000000E+00 0. -1.
         22    1    3    3    0    0  0.11051870429E+02 -0.12117519555E+02  0.39899959734E+02  0.43139134286E+02  0.00000000000E+00 0. -1.
</event>
<event>
 7    1  0.6358809E-006  0.2245875E+03  0.7818608E-02  0.1338914E+00
          2   -1    0    0  502    0  0.00000000000E+00  0.00000000000E+00  0.20750636764E+03  0.20750636764E+03  0.00000000000E+00 0. -1.
          1   -1    0    0  501    0 -0.00000000000E+00 -0.00000000000E+00 -0.79222360283E+03  0.79222360283E+03  0.00000000000E+00 0. -1.
         25    2    1    2    0    0 -0.22919231713E+03  0.60621058890E+02 -0.41039122996E+03  0.49015434307E+03  0.12500514943E+03 0.  0.
          2    1    1    2  501    0  0.20368068726E+03 -0.66329468980E+02 -0.30700290903E+03  0.37434770865E+03  0.00000000000E+00 0. -1.
          1    1    1    2  502    0  0.25511629861E+02  0.57084100897E+01  0.13267690381E+03  0.13522791874E+03  0.00000000000E+00 0. -1.
         22    1    3    3    0    0 -0.95642137855E+02  0.43772962550E+02 -0.29384202200E+03  0.31210034392E+03  0.00000000000E+00 0. -1.
         22    1    3    3    0    0 -0.13355017927E+03  0.16848096340E+02 -0.11654920796E+03  0.17805399914E+03  0.00000000000E+00 0. -1.
</event>
<event>
 7    1  0.6358809E-006  0.8331479E+02  0.7818608E-02  0.1453976E+00
          2   -1    0    0  502    0  0.00000000000E+00  0.00000000000E+00  0.62386267706E+03  0.62386267706E+03  0.00000000000E+00 0. -1.
          1   -1    0    0  501    0 -0.00000000000E+00 -0.00000000000E+00 -0.22249527464E+04  0.22249527464E+04  0.00000000000E+00 0. -1.
         25    2    1    2    0    0  0.84908234082E+02 -0.65928205705E+01  0.56922529641E+02  0.16160480411E+03  0.12499225909E+03 0.  0.
          2    1    1    2  501    0 -0.76343178458E+02  0.33414852394E+02 -0.21714265886E+04  0.21730251409E+04  0.00000000000E+00 0. -1.
          1    1    1    2  502    0 -0.85650556244E+01 -0.26822031823E+02  0.51341398960E+03  0.51418547849E+03  0.00000000000E+00 0. -1.
         22    1    3    3    0    0  0.51986009433E+02  0.34623803614E+02 -0.22389217590E+02  0.66352317350E+02  0.00000000000E+00 0.  1.
         22    1    3    3    0    0  0.32922224650E+02 -0.41216624184E+02  0.79311747231E+02  0.95252486760E+02  0.00000000000E+00 0.  1.
</event>
<event>
 7    1  0.6358809E-006  0.1134294E+03  0.7818608E-02  0.1331816E+00
          2   -1    0    0  502    0  0.00000000000E+00  0.00000000000E+00  0.75446548554E+03  0.75446548554E+03  0.00000000000E+00 0. -1.
          1   -1    0    0  501    0 -0.00000000000E+00 -0.00000000000E+00 -0.43474083640E+03  0.43474083640E+03  0.00000000000E+00 0. -1.
         25    2    1    2    0    0 -0.58387227612E+02  0.13072505591E+03  0.25274477703E+03  0.31622301540E+03  0.12497585592E+03 0.  0.
          2    1    1    2  501    0  0.63620744795E+01 -0.11267297078E+03 -0.39342812386E+03  0.40929373680E+03  0.00000000000E+00 0. -1.
          1    1    1    2  502    0  0.52025153133E+02 -0.18052085130E+02  0.46040799597E+03  0.46368956974E+03  0.00000000000E+00 0. -1.
         22    1    3    3    0    0 -0.49288093829E+02  0.83144580051E+02  0.52079999942E+02  0.10979373288E+03  0.00000000000E+00 0. -1.
         22    1    3    3    0    0 -0.90991337832E+01  0.47580475855E+02  0.20066477709E+03  0.20642928252E+03  0.00000000000E+00 0. -1.
</event>
<event>
 7    1  0.6358809E-006  0.3318375E+03  0.7818608E-02  0.1278371E+00
          2   -1    0    0  502    0  0.00000000000E+00  0.00000000000E+00  0.20269567520E+04  0.20269567520E+04  0.00000000000E+00 0. -1.
          1   -1    0    0  501    0 -0.00000000000E+00 -0.00000000000E+00 -0.23486354787E+04  0.23486354787E+04  0.00000000000E+00 0. -1.
         25    2    1    2    0    0  0.30124698474E+03 -0.17217480929E+02 -0.78490546403E+03  0.85014477311E+03  0.12499344113E+03 0.  0.
          2    1    1    2  501    0  0.30414393618E+02 -0.41256097172E+01 -0.15171080054E+04  0.15174184512E+04  0.00000000000E+00 0. -1.
          1    1    1    2  502    0 -0.33166137835E+03  0.21343090647E+02  0.19803347427E+04  0.20080290064E+04  0.00000000000E+00 0. -1.
         22    1    3    3    0    0  0.23379483563E+03  0.10597924837E+01 -0.71089673092E+03  0.74835506971E+03  0.00000000000E+00 0. -1.
         22    1    3    3    0    0  0.67452149107E+02 -0.18277273413E+02 -0.74008733110E+02  0.10178970340E+03  0.00000000000E+00 0. -1.
</event>
<event>
 7    1  0.6358809E-006  0.2475081E+03  0.7818608E-02  0.1221478E+00
          2   -1    0    0  502    0  0.00000000000E+00  0.00000000000E+00  0.15362084972E+03  0.15362084972E+03  0.00000000000E+00 0. -1.
          1   -1    0    0  501    0 -0.00000000000E+00 -0.00000000000E+00 -0.13055959726E+04  0.13055959726E+04  0.00000000000E+00 0. -1.
         25    2    1    2    0    0  0.22842085787E+03  0.19607548766E+03 -0.23340999730E+03  0.40090953072E+03  0.12500615910E+03 0.  0.
          2    1    1    2  501    0 -0.20065106533E+03 -0.12892206025E+03 -0.94974412509E+03  0.97923217409E+03  0.00000000000E+00 0. -1.
          1    1    1    2  502    0 -0.27769792542E+02 -0.67153427406E+02  0.31178999549E+02  0.79075117471E+02  0.00000000000E+00 0. -1.
         22    1    3    3    0    0  0.38649078659E+02  0.11936561696E+02 -0.93226556824E+02  0.10162393263E+03  0.00000000000E+00 0.  1.
         22    1    3    3    0    0  0.18977177922E+03  0.18413892596E+03 -0.14018344048E+03  0.29928559809E+03  0.00000000000E+00 0.  1.
</event>
<event>
 7    1  0.6358809E-006  0.6634016E+02  0.7818608E-02  0.1445486E+00
          2   -1    0    0  502    0  0.00000000000E+00  0.00000000000E+00  0.14930243150E+04  0.14930243150E+04  0.00000000000E+00 0. -1.
          1   -1    0    0  501    0 -0.00000000000E+00 -0.00000000000E+00 -0.13503531241E+03  0.13503531241E+03  0.00000000000E+00 0. -1.
         25    2    1    2    0    0  0.25411378819E+02 -0.17062969106E+02  0.30179138090E+03  0.32808484306E+03  0.12499897427E+03 0.  0.
          2    1    1    2  501    0 -0.61633501088E+02  0.27312033715E+02 -0.11224092979E+03  0.13092998878E+03  0.00000000000E+00 0. -1.
          1    1    1    2  502    0  0.36222122269E+02 -0.10249064609E+02  0.11684385514E+04  0.11690447955E+04  0.00000000000E+00 0. -1.
         22    1    3    3    0    0  0.51296168101E+02 -0.31503690038E+02  0.29000508480E+03  0.29618698242E+03  0.00000000000E+00 0.  1.
         22    1    3    3    0    0 -0.25884789283E+02  0.14440720932E+02  0.11786296109E+02  0.31897860637E+02  0.00000000000E+00 0.  1.
</event>
<event>
 7    1  0.6358809E-006  0.4934601E+02  0.7818608E-02  0.1454853E+00
          2   -1    0    0  502    0  0.00000000000E+00  0.00000000000E+00  0.72426880266E+03  0.72426880266E+03  0.00000000000E+00 0. -1.
          1   -1    0    0  501    0 -0.00000000000E+00 -0.00000000000E+00 -0.43106308752E+03  0.43106308752E+03  0.00000000000E+00 0. -1.
         25    2    1    2    0    0 -0.93362474229E+01 -0.24873595157E+01 -0.76410058003E+02  0.14681389693E+03  0.12498988317E+03 0.  0.
          2    1    1    2  501    0  0.19428621989E+02 -0.45815564773E+02 -0.31662165055E+03  0.32050866903E+03  0.00000000000E+00 0. -1.
          1    1    1    2  502    0 -0.10092374566E+02  0.48302924289E+02  0.68623742369E+03  0.68800932421E+03  0.00000000000E+00 0. -1.
         22    1    3    3    0    0 -0.44271674394E+02  0.19579031344E+02  0.11431167440E+02  0.49739232111E+02  0.00000000000E+00 0. -1.
         22    1    3    3    0    0  0.34935426971E+02 -0.22066390859E+02 -0.87841225443E+02  0.97074664823E+02  0.00000000000E+00 0. -1.
</event>
<event>
 7    1  0.6358809E-006  0.2666737E+02  0.7818608E-02  0.1665710E+00
          2   -1    0    0  502    0  0.00000000000E+00  0.00000000000E+00  0.14571008596E+03  0.14571008596E+03  0.00000000000E+00 0. -1.
          1   -1    0    0  501    0 -0.00000000000E+00 -0.00000000000E+00 -0.46762838383E+03  0.46762838383E+03  0.00000000000E+00 0. -1.
         25    2    1    2    0    0 -0.14835061117E+02 -0.13644582359E+02  0.91174672665E+02  0.15603422105E+03  0.12501041371E+03 0.  0.
          2    1    1    2  501    0  0.25968669816E+02 -0.62889303915E+01 -0.42877414108E+03  0.42960585018E+03  0.00000000000E+00 0. -1.
          1    1    1    2  502    0 -0.11133608699E+02  0.19933512751E+02  0.15681170534E+02  0.27698398555E+02  0.00000000000E+00 0. -1.
         22    1    3    3    0    0  0.47945562720E+02 -0.36006079638E+02  0.41775949811E+02  0.73078346575E+02  0.00000000000E+00 0. -1.
         22    1    3    3    0    0 -0.62780623838E+02  0.22361497279E+02  0.49398722854E+02  0.82955874473E+02  0.00000000000E+00 0. -1.
</event>
<event>
 7    1  0.6358809E-006  0.9317647E+02  0.7818608E-02  0.1319409E+00
          2   -1    0    0  502    0  0.00000000000E+00  0.00000000000E+00  0.12665549235E+04  0.12665549235E+04  0.00000000000E+00 0. -1.
          1   -1    0    0  501    0 -0.00000000000E+00 -0.00000000000E+00 -0.15751701889E+04  0.15751701889E+04  0.00000000000E+00 0. -1.
         25    2    1    2    0    0  0.70293016470E+02 -0.82719344553E+02  0.63165876184E+03  0.65299472833E+03  0.12500290273E+03 0.  0.
          2    1    1    2  501    0  0.38036352162E+01  0.93127681907E+02 -0.15608647979E+04  0.15636451484E+04  0.00000000000E+00 0. -1.
          1    1    1    2  502    0 -0.74096651686E+02 -0.10408337354E+02  0.62059077065E+03  0.62508523570E+03  0.00000000000E+00 0. -1.
         22    1    3    3    0    0  0.15187423280E+02 -0.10476684148E+03  0.38420461789E+03  0.39852219173E+03  0.00000000000E+00 0.  1.
         22    1    3    3    0    0  0.55105593190E+02  0.22047496928E+02  0.24745414395E+03  0.25447253659E+03  0.00000000000E+00 0.  1.
</event>
<event>
 7    1  0.8119525E-006  0.7576174E+02  0.7818608E-02  0.1424601E+00
          2   -1    0    0  502    0  0.00000000000E+00  0.00000000000E+00  0.90118239559E+03  0.90118239559E+03  0.00000000000E+00 0. -1.
          1   -1    0    0  501    0 -0.00000000000E+00 -0.00000000000E+00 -0.14618329647E+04  0.14618329647E+04  0.00000000000E+00 0. -1.
         25    2    1    2    0    0 -0.10774518822E+03  0.19075468122E+02 -0.38826473572E+03  0.42231005165E+03  0.12499350243E+03 0.  0.
          2    1    1    2  501    0  0.37510177960E+02  0.89943416437E+01 -0.10545747146E+04  0.10552799346E+04  0.00000000000E+00 0. -1.
          1    1    1    2  502    0  0.70235010255E+02 -0.28069809766E+02  0.88218888122E+03  0.88542537407E+03  0.00000000000E+00 0. -1.
         22    1    3    3    0    0 -0.43266095439E+02 -0.26456995004E+02 -0.38294447382E+02  0.63548346158E+02  0.00000000000E+00 0.  1.
         22    1    3    3    0    0 -0.64479092776E+02  0.45532463126E+02 -0.34997028834E+03  0.35876170549E+03  0.00000000000E+00 0.  1.
</event>
<event>
 7    1  0.6358809E-006  0.6004459E+02  0.7818608E-02  0.1405017E+00
          2   -1    0    0  502    0  0.00000000000E+00  0.00000000000E+00  0.11531624149E+04  0.11531624149E+04  0.00000000000E+00 0. -1.
          1   -1    0    0  501    0 -0.00000000000E+00 -0.00000000000E+00 -0.40159746483E+03  0.40159746483E+03  0.00000000000E+00 0. -1.
         25    2    1    2    0    0 -0.57920026146E+02  0.17722003248E+01  0.54340435348E+03  0.56059906182E+03  0.12500058641E+03 0.  0.
          2    1    1    2  501    0  0.34052320965E+02  0.49600440667E+02 -0.38935001306E+03  0.39397106105E+03  0.00000000000E+00 0. -1.
          1    1    1    2  502    0  0.23867705181E+02 -0.51372640992E+02  0.59751060968E+03  0.60018975689E+03  0.00000000000E+00 0. -1.
         22    1    3    3    0    0  0.27131120170E+02  0.13990570614E+02  0.31653179413E+03  0.31800033088E+03  0.00000000000E+00 0.  1.
         22    1    3    3    0    0 -0.85051146316E+02 -0.12218370289E+02  0.22687255936E+03  0.24259873093E+03  0.00000000000E+00 0.  1.
</event>
<event>
 7    1  0.6358809E-006  0.1016749E+03  0.7818608E-02  0.1322202E+00
          2   -1    0    0  502    0  0.00000000000E+00  0.00000000000E+00  0.10789636646E+04  0.10789636646E+04  0.00000000000E+00 0. -1.
          1   -1    0    0  501    0 -0.00000000000E+00 -0.00000000000E+00 -0.66014441542E+03  0.66014441542E+03  0.00000000000E+00 0. -1.
         25    2    1    2    0    0  0.34658763563E+02  0.13577307529E+02  0.88244315501E+02  0.15747114476E+03  0.12499811615E+03 0.  0.
          2    1    1    2  501    0 -0.93730962000E+02 -0.44941235430E+02 -0.62002949728E+03  0.62868257919E+03  0.00000000000E+00 0. -1.
          1    1    1    2  502    0  0.59072198438E+02  0.31363927900E+02  0.95060443097E+03  0.95295435608E+03  0.00000000000E+00 0. -1.
         22    1    3    3    0    0 -0.37472068486E+02 -0.19371763913E+02  0.49627460469E+01  0.42474109786E+02  0.00000000000E+00 0.  1.
         22    1    3    3    0    0  0.72130832049E+02  0.32949071443E+02  0.83281569455E+02  0.11499703497E+03  0.00000000000E+00 0.  1.
</event>
<event>
 7    1  0.6358809E-006  0.1065021E+03  0.7818608E-02  0.1306410E+00
          2   -1    0    0  502    0  0.00000000000E+00  0.00000000000E+00  0.42504372437E+03  0.42504372437E+03  0.00000000000E+00 0. -1.
          1   -1    0    0  501    0 -0.00000000000E+00 -0.00000000000E+00 -0.77786026565E+03  0.77786026565E+03  0.00000000000E+00 0. -1.
         25    2    1    2    0    0  0.18821872373E+02  0.74265852689E+02 -0.37844394698E+03  0.40585037263E+03  0.12500009681E+03 0.  0.
          2    1    1    2  501    0 -0.70947294339E+02  0.19651026030E+02 -0.37506108028E+03  0.38221786371E+03  0.00000000000E+00 0. -1.
          1    1    1    2  502    0  0.52125421966E+02 -0.93916878719E+02  0.40068848599E+03  0.41483575367E+03  0.00000000000E+00 0. -1.
         22    1    3    3    0    0 -0.38423410107E+02  0.79502081850E+02 -0.20773828695E+03  0.22572579677E+03  0.00000000000E+00 0.  1.
         22    1    3    3    0    0  0.57245282480E+02 -0.52362291604E+01 -0.17070566003E+03  0.18012457586E+03  0.00000000000E+00 0.  1.
</event>
<event>
 7    1  0.6358809E-006  0.9489857E+02  0.7818608E-02  0.1394591E+00
          2   -1    0    0  502    0  0.00000000000E+00  0.00000000000E+00  0.18207895249E+04  0.18207895249E+04  0.00000000000E+00 0. -1.
          1   -1    0    0  501    0 -0.00000000000E+00 -0.00000000000E+00 -0.11865404435E+04  0.11865404435E+04  0.00000000000E+00 0. -1.
         25    2    1    2    0    0  0.70731130313E+02 -0.10888249741E+03 -0.11404019832E+03  0.21328388819E+03  0.12500623622E+03 0.  0.
          2    1    1    2  501    0 -0.78882009689E+01  0.38119147716E+02 -0.10212430923E+04  0.10219847096E+04  0.00000000000E+00 0. -1.
          1    1    1    2  502    0 -0.62842929344E+02  0.70763349695E+02  0.17695323720E+04  0.17720613705E+04  0.00000000000E+00 0. -1.
         22    1    3    3    0    0  0.15022617508E+01  0.22872862936E+02  0.40670033590E+01  0.23280145308E+02  0.00000000000E+00 0.  1.
         22    1    3    3    0    0  0.69228868562E+02 -0.13175536035E+03 -0.11810720168E+03  0.19000374288E+03  0.00000000000E+00 0.  1.
</event>
<event>
 7    1  0.6358809E-006  0.8815860E+02  0.7818608E-02  0.1316148E+00
          2   -1    0    0  502    0  0.00000000000E+00  0.00000000000E+00  0.20626183583E+03  0.20626183583E+03  0.00000000000E+00 0. -1.
          1   -1    0    0  501    0 -0.00000000000E+00 -0.00000000000E+00 -0.95679673211E+03  0.95679673211E+03  0.00000000000E+00 0. -1.
         25    2    1    2    0    0  0.59486693936E+02 -0.46756824459E+02 -0.53316562247E+03  0.55282398351E+03  0.12499563342E+03 0.  0.
          2    1    1    2  501    0 -0.95589338973E+02 -0.33670401202E+02 -0.39721701946E+03  0.40994192050E+03  0.00000000000E+00 0. -1.
          1    1    1    2  502    0  0.36102645037E+02  0.80427225660E+02  0.17984774564E+03  0.20029266392E+03  0.00000000000E+00 0. -1.
         22    1    3    3    0    0 -0.37655788601E+02 -0.52467409500E+00 -0.16621102017E+03  0.17042399163E+03  0.00000000000E+00 0. -1.
         22    1    3    3    0    0  0.97142482536E+02 -0.46232150364E+02 -0.36695460230E+03  0.38239999188E+03  0.00000000000E+00 0. -1.
</event>
<event>
 7    1  0.6358809E-006  0.6481452E+02  0.7818608E-02  0.1404094E+00
          2   -1    0    0  502    0  0.00000000000E+00  0.00000000000E+00  0.53235354457E+03  0.53235354457E+03  0.00000000000E+00 0. -1.
          1   -1    0    0  501    0 -0.00000000000E+00 -0.00000000000E+00 -0.14486902771E+04  0.14486902771E+04  0.00000000000E+00 0. -1.
         25    2    1    2    0    0 -0.58209961905E+02  0.19278753908E+02  0.17990158178E+03  0.22748400623E+03  0.12499729576E+03 0.  0.
          2    1    1    2  501    0  0.24587827225E+02 -0.60067298723E+02 -0.14220286398E+04  0.14235090777E+04  0.00000000000E+00 0. -1.
          1    1    1    2  502    0  0.33622134680E+02  0.40788544815E+02  0.32579032551E+03  0.33005073781E+03  0.00000000000E+00 0. -1.
         22    1    3    3    0    0  0.38824688335E+02  0.16351186861E+02  0.52611084867E+02  0.67399139364E+02  0.00000000000E+00 0.  1.
         22    1    3    3    0    0 -0.97034650239E+02  0.29275670469E+01  0.12729049692E+03  0.16008486687E+03  0.00000000000E+00 0.  1.
</event>
<event>
 7    1  0.6358809E-006  0.3332558E+02  0.7818608E-02  0.1565092E+00
          2   -1    0    0  502    0  0.00000000000E+00  0.00000000000E+00  0.57581999872E+03  0.57581999872E+03  0.00000000000E+00 0. -1.
          1   -1    0    0  501    0 -0.00000000000E+00 -0.00000000000E+00 -0.85314012993E+02  0.85314012993E+02  0.00000000000E+00 0. -1.
         25    2    1    2    0    0  0.17938549452E+02 -0.19994684277E+02  0.13594549106E+02  0.12856907016E+03  0.12499446020E+03 0.  0.
          2    1    1    2  501    0  0.11729165181E+02  0.34662795707E+02 -0.14994871999E+02  0.39546541042E+02  0.00000000000E+00 0. -1.
          1    1    1    2  502    0 -0.29667714633E+02 -0.14668111430E+02  0.49190630862E+03  0.49301840052E+03  0.00000000000E+00 0. -1.
         22    1    3    3    0    0 -0.14645152545E+02 -0.62462732021E+02 -0.17714163703E+02  0.66557230864E+02  0.00000000000E+00 0. -1.
         22    1    3    3    0    0  0.32583701997E+02  0.42468047744E+02  0.31308712809E+02  0.62011839295E+02  0.00000000000E+00 0. -1.
</event>
<event>
 7    1  0.6358809E-006  0.7487912E+02  0.7818608E-02  0.1481959E+00
          2   -1    0    0  502    0  0.00000000000E+00  0.00000000000E+00  0.47440284801E+04  0.47440284801E+04  0.00000000000E+00 0. -1.
          1   -1    0    0  501    0 -0.00000000000E+00 -0.00000000000E+00 -0.47272907124E+03  0.47272907124E+03  0.00000000000E+00 0. -1.
         25    2    1    2    0    0  0.82776720533E+02  0.43501440333E+02  0.63111521273E+03  0.65013527174E+03  0.12500039620E+03 0.  0.
          2    1    1    2  501    0 -0.11389541688E+02 -0.22952831265E+02 -0.46252820487E+03  0.46323740611E+03  0.00000000000E+00 0. -1.
          1    1    1    2  502    0 -0.71387178845E+02 -0.20548609068E+02  0.41027124010E+04  0.41033848734E+04  0.00000000000E+00 0. -1.
         22    1    3    3    0    0 -0.90469405014E+01  0.49919858602E+02  0.36590711413E+03  0.36940743846E+03  0.00000000000E+00 0. -1.
         22    1    3    3    0    0  0.91823661034E+02 -0.64184182693E+01  0.26520809860E+03  0.28072783329E+03  0.00000000000E+00 0. -1.
</event>
<event>
 7    1  0.6358809E-006  0.2811313E+03  0.7818608E-02  0.1211528E+00
          2   -1    0    0  502    0  0.00000000000E+00  0.00000000000E+00  0.14324806438E+04  0.14324806438E+04  0.00000000000E+00 0. -1.
          1   -1    0    0  501    0 -0.00000000000E+00 -0.00000000000E+00 -0.88408381670E+03  0.88408381670E+03  0.00000000000E+00 0. -1.
         25    2    1    2    0    0  0.12638148986E+03 -0.29374937024E+03  0.29749113507E+03  0.45429753137E+03  0.12499719225E+03 0.  0.
          2    1    1    2  501    0 -0.15787770967E+03  0.23004347431E+03 -0.78026574286E+03  0.82864950417E+03  0.00000000000E+00 0. -1.
          1    1    1    2  502    0  0.31496219810E+02  0.63705895927E+02  0.10311714348E+04  0.10336174249E+04  0.00000000000E+00 0. -1.
         22    1    3    3    0    0  0.27284940454E+02 -0.49954077541E+02 -0.25412603448E+00  0.56920492080E+02  0.00000000000E+00 0. -1.
         22    1    3    3    0    0  0.99096549401E+02 -0.24379529270E+03  0.29774526111E+03  0.39737703929E+03  0.00000000000E+00 0. -1.
</event>
<event>
 7    1  0.6358809E-006  0.3723763E+02  0.7818608E-02  0.1566452E+00
          2   -1    0    0  502    0  0.00000000000E+00  0.00000000000E+00  0.12138032371E+03  0.12138032371E+03  0.00000000000E+00 0. -1.
          1   -1    0    0  501    0 -0.00000000000E+00 -0.00000000000E+00 -0.21399630322E+04  0.21399630322E+04  0.00000000000E+00 0. -1.
         25    2    1    2    0    0  0.54426408783E+01  0.81833458448E+01 -0.46977006773E+03  0.48621644758E+03  0.12500371143E+03 0.  0.
          2    1    1    2  501    0 -0.57500037705E+01 -0.37548249239E+02 -0.16598435099E+04  0.16602781125E+04  0.00000000000E+00 0. -1.
          1    1    1    2  502    0  0.30736289212E+00  0.29364903394E+02  0.11103086909E+03  0.11484879587E+03  0.00000000000E+00 0. -1.
         22    1    3    3    0    0  0.57989890597E+02 -0.23629979809E+01 -0.35293444162E+03  0.35767461645E+03  0.00000000000E+00 0.  1.
         22    1    3    3    0    0 -0.52547249719E+02  0.10546343826E+02 -0.11683562611E+03  0.12854183113E+03  0.00000000000E+00 0.  1.
</event>
<event>
 7    1  0.6358809E-006  0.1168375E+03  0.7818608E-02  0.1382535E+00
          2   -1    0    0  502    0  0.00000000000E+00  0.00000000000E+00  0.17703155146E+04  0.17703155146E+04  0.00000000000E+00 0. -1.
          1   -1    0    0  501    0 -0.00000000000E+00 -0.00000000000E+00 -0.15556305633E+04  0.15556305633E+04  0.00000000000E+00 0. -1.
         25    2    1    2    0    0 -0.64265759264E+02  0.56508102291E+02  0.10967366069E+03  0.18702280653E+03  0.12500385943E+03 0.  0.
          2    1    1    2  501    0 -0.32854988583E+02  0.11594101649E+02 -0.15145866685E+04  0.15149873431E+04  0.00000000000E+00 0. -1.
          1    1    1    2  502    0  0.97120747847E+02 -0.68102203940E+02  0.16195979591E+04  0.16239359283E+04  0.00000000000E+00 0. -1.
         22    1    3    3    0    0 -0.78443660251E+02 -0.12589966678E+02  0.71154908172E+02  0.10665334524E+03  0.00000000000E+00 0. -1.
         22    1    3    3    0    0  0.14177900986E+02  0.69098068969E+02  0.38518752521E+02  0.80369461286E+02  0.00000000000E+00 0. -1.
</event>
<event>
 7    1  0.6358809E-006  0.7238785E+02  0.7818608E-02  0.1475928E+00
          2   -1    0    0  502    0  0.00000000000E+00  0.00000000000E+00  0.40023926935E+04  0.40023926935E+04  0.00000000000E+00 0. -1.
          1   -1    0    0  501    0 -0.00000000000E+00 -0.00000000000E+00 -0.91753722019E+02  0.91753722019E+02  0.00000000000E+00 0. -1.
         25    2    1    2    0    0 -0.80556899514E+01  0.97219695715E+02  0.27299658698E+03  0.31570377762E+03  0.12500070130E+03 0.  0.
          2    1    1    2  501    0  0.11182099073E+02 -0.25299419600E+02 -0.67319942185E+02  0.72781004304E+02  0.00000000000E+00 0. -1.
          1    1    1    2  502    0 -0.31264091215E+01 -0.71920276115E+02  0.37049623267E+04  0.37056616336E+04  0.00000000000E+00 0. -1.
         22    1    3    3    0    0 -0.42667038764E+02  0.10868833855E+03  0.23831411368E+03  0.26538132548E+03  0.00000000000E+00 0.  1.
         22    1    3    3    0    0  0.34611348813E+02 -0.11468642837E+02  0.34682473303E+02  0.50322452142E+02  0.00000000000E+00 0.  1.
</event>
<event>
 7    1  0.6358809E-006  0.1576292E+03  0.7818608E-02  0.1313470E+00
          2   -1    0    0  502    0  0.00000000000E+00  0.00000000000E+00  0.15482924572E+04  0.15482924572E+04  0.00000000000E+00 0. -1.
          1   -1    0    0  501    0 -0.00000000000E+00 -0.00000000000E+00 -0.42567389653E+03  0.42567389653E+03  0.00000000000E+00 0. -1.
         25    2    1    2    0    0  0.19291447975E+02  0.19867541366E+03 -0.14977188660E+03  0.27910589191E+03  0.12499760366E+03 0.  0.
          2    1    1    2  501    0  0.12194850215E+02 -0.45031212349E+02 -0.20445514920E+03  0.20971035380E+03  0.00000000000E+00 0. -1.
          1    1    1    2  502    0 -0.31486298190E+02 -0.15364420131E+03  0.14768455965E+04  0.14851501081E+04  0.00000000000E+00 0. -1.
         22    1    3    3    0    0  0.45924803661E+01  0.99692375373E+02 -0.99077421012E+00  0.99803017073E+02  0.00000000000E+00 0.  1.
         22    1    3    3    0    0  0.14698967609E+02  0.98983038290E+02 -0.14878111239E+03  0.17930287483E+03  0.00000000000E+00 0.  1.
</event>
<event>
 7    1  0.6358809E-006  0.1075157E+03  0.7818608E-02  0.1267058E+00
          2   -1    0    0  502    0  0.00000000000E+00  0.00000000000E+00  0.16415229483E+04  0.16415229483E+04  0.00000000000E+00 0. -1.
          1   -1    0    0  501    0 -0.00000000000E+00 -0.00000000000E+00 -0.41173895248E+03  0.41173895248E+03  0.00000000000E+00 0. -1.
         25    2    1    2    0    0 -0.35561130384E+02 -0.28222013276E+02  0.37368136139E+03  0.39664089672E+03  0.12500066028E+03 0.  0.
          2    1    1    2  501    0  0.41135438227E+02 -0.99335254025E+02 -0.38971698208E+03  0.40427582551E+03  0.00000000000E+00 0. -1.
          1    1    1    2  502    0 -0.55743078421E+01  0.12755726730E+03  0.12458196165E+04  0.12523451785E+04  0.00000000000E+00 0. -1.
         22    1    3    3    0    0 -0.45744031533E+02  0.20521721467E+02  0.31805394573E+03  0.32198131913E+03  0.00000000000E+00 0.  1.
         22    1    3    3    0    0  0.10182901149E+02 -0.48743734743E+02  0.55627415660E+02  0.74659577587E+02  0.00000000000E+00 0.  1.
</event>
<event>
 7    1  0.6358809E-006  0.1397838E+03  0.7818608E-02  0.1374048E+00
          2   -1    0    0  502    0  0.00000000000E+00  0.00000000000E+00  0.11406561593E+04  0.11406561593E+04  0.00000000000E+00 0. -1.
          1   -1    0    0  501    0 -0.00000000000E+00 -0.00000000000E+00 -0.36402327878E+03  0.36402327878E+03  0.00000000000E+00 0. -1.
         25    2    1    2    0    0  0.10253406540E+03 -0.12944146119E+03 -0.27826409247E+02  0.20898910796E+03  0.12503524205E+03 0.  0.
          2    1    1    2  501    0 -0.28930709628E+02  0.11718874235E+02 -0.24001127619E+03  0.24203249921E+03  0.00000000000E+00 0. -1.
          1    1    1    2  502    0 -0.73603355770E+02  0.11772258695E+03  0.10444705660E+04  0.10536578309E+04  0.00000000000E+00 0. -1.
         22    1    3    3    0    0  0.22832565439E+01 -0.80690579131E+02 -0.50517714449E+02  0.95227214041E+02  0.00000000000E+00 0. -1.
         22    1    3    3    0    0  0.10025080885E+03 -0.48750882055E+02  0.22691305202E+02  0.11376189392E+03  0.00000000000E+00 0. -1.
</event>
<event>
 7    1  0.6358809E-006  0.1490397E+03  0.7818608E-02  0.1271743E+00
          2   -1    0    0  502    0  0.00000000000E+00  0.00000000000E+00  0.17714918053E+03  0.17714918053E+03  0.00000000000E+00 0. -1.
          1   -1    0    0  501    0 -0.00000000000E+00 -0.00000000000E+00 -0.12338929516E+04  0.12338929516E+04  0.00000000000E+00 0. -1.
         25    2    1    2    0    0 -0.31179403424E+02  0.86713021524E+02  0.60262919392E+02  0.16657778819E+03  0.12500094706E+03 0.  0.
          2    1    1    2  501    0 -0.15390189751E+01 -0.15177222515E+03 -0.11531983144E+04  0.11631438128E+04  0.00000000000E+00 0. -1.
          1    1    1    2  502    0  0.32718422400E+02  0.65059203627E+02  0.36191623948E+02  0.81320531140E+02  0.00000000000E+00 0. -1.
         22    1    3    3    0    0  0.44668208606E+02  0.10792675151E+02  0.30697062455E+02  0.55263372502E+02  0.00000000000E+00 0.  1.
         22    1    3    3    0    0 -0.75847612030E+02  0.75920346373E+02  0.29565856937E+02  0.11131441569E+03  0.00000000000E+00 0.  1.
</event>
<event>
 7    1  0.6358809E-006  0.6152979E+02  0.7818608E-02  0.1405404E+00
          2   -1    0    0  502    0  0.00000000000E+00  0.00000000000E+00  0.73450611463E+02  0.73450611463E+02  0.00000000000E+00 0. -1.
          1   -1    0    0  501    0 -0.00000000000E+00 -0.00000000000E+00 -0.20380751265E+04  0.20380751265E+04  0.00000000000E+00 0. -1.
         25    2    1    2    0    0 -0.71870715957E+02  0.63828472635E+02 -0.22635715689E+03  0.27586225922E+03  0.12499179917E+03 0.  0.
          2    1    1    2  501    0  0.16999999505E+02 -0.58686710722E+02 -0.17706757758E+04  0.17717296162E+04  0.00000000000E+00 0. -1.
          1    1    1    2  502    0  0.54870716451E+02 -0.51417619125E+01  0.32408417662E+02  0.63933862505E+02  0.00000000000E+00 0. -1.
         22    1    3    3    0    0  0.34176395815E+02  0.18940557791E+02 -0.84890185007E+02  0.93451133064E+02  0.00000000000E+00 0. -1.
         22    1    3    3    0    0 -0.10604711177E+03  0.44887914844E+02 -0.14146697188E+03  0.18241112616E+03  0.00000000000E+00 0. -1.
</event>
<event>
 7    1  0.6358809E-006  0.1210354E+03  0.7818608E-02  0.1357702E+00
          2   -1    0    0  502    0  0.00000000000E+00  0.00000000000E+00  0.20714794610E+03  0.20714794610E+03  0.00000000000E+00 0. -1.
          1   -1    0    0  501    0 -0.00000000000E+00 -0.00000000000E+00 -0.19663661084E+04  0.19663661084E+04  0.00000000000E+00 0. -1.
         25    2    1    2    0    0 -0.61234117982E+02  0.12079985142E+03 -0.27059906061E+03  0.32740059637E+03  0.12500031037E+03 0.  0.
          2    1    1    2  501    0  0.19980743242E+02 -0.11869662462E+03 -0.16627749984E+04  0.16671259143E+04  0.00000000000E+00 0. -1.
          1    1    1    2  502    0  0.41253374740E+02 -0.21032268012E+01  0.17415589671E+03  0.17898754384E+03  0.00000000000E+00 0. -1.
         22    1    3    3    0    0  0.62112535190E+01 -0.17634347391E+02 -0.81077993152E+02  0.83205714057E+02  0.00000000000E+00 0.  1.
         22    1    3    3    0    0 -0.67445371501E+02  0.13843419881E+03 -0.18952106745E+03  0.24419488231E+03  0.00000000000E+00 0.  1.
</event>
<event>
 7    1  0.6358809E-006  0.5624814E+02  0.7818608E-02  0.1477796E+00
          2   -1    0    0  502    0  0.00000000000E+00  0.00000000000E+00  0.89770870458E+03  0.89770870458E+03  0.00000000000E+00 0. -1.
          1   -1    0    0  501    0 -0.00000000000E+00 -0.00000000000E+00 -0.45572917448E+03  0.45572917448E+03  0.00000000000E+00 0. -1.
         25    2    1    2    0    0 -0.72853172210E+02  0.54262376606E+02  0.26479709004E+03  0.30658523087E+03  0.12500005871E+03 0.  0.
          2    1    1    2  501    0  0.47051885183E+02 -0.30422800561E+02 -0.43252247434E+03  0.43613658124E+03  0.00000000000E+00 0. -1.
          1    1    1    2  502    0  0.25801287027E+02 -0.23839576045E+02  0.60970491439E+03  0.61071606695E+03  0.00000000000E+00 0. -1.
         22    1    3    3    0    0 -0.70192345229E+02 -0.21627534985E+02  0.16952845603E+03  0.18475554931E+03  0.00000000000E+00 0.  1.
         22    1    3    3    0    0 -0.26608269802E+01  0.75889911591E+02  0.95268634008E+02  0.12182968155E+03  0.00000000000E+00 0.  1.
</event>
<event>
 7    1  0.6358809E-006  0.6558896E+02  0.7818608E-02  0.1396564E+00
          2   -1    0    0  502    0  0.00000000000E+00  0.00000000000E+00  0.66409068381E+03  0.66409068381E+03  0.00000000000E+00 0. -1.
          1   -1    0    0  501    0 -0.00000000000E+00 -0.00000000000E+00 -0.13776704398E+04  0.13776704398E+04  0.00000000000E+00 0. -1.
         25    2    1    2    0    0  0.10468406426E+03 -0.43735062865E+02 -0.12343560157E+03  0.20913220120E+03  0.12501368249E+03 0.  0.
          2    1    1    2  501    0 -0.49268581660E+02  0.41979501528E+02 -0.12092822633E+04  0.12110133212E+04  0.00000000000E+00 0. -1.
          1    1    1    2  502    0 -0.55415482603E+02  0.17555613367E+01  0.61913810893E+03  0.62161560119E+03  0.00000000000E+00 0. -1.
         22    1    3    3    0    0  0.79874574067E+02  0.22342466140E+02 -0.10920426159E+03  0.13713024511E+03  0.00000000000E+00 0.  1.
         22    1    3    3    0    0  0.24809490195E+02 -0.66077529005E+02 -0.14231339985E+02  0.72001956091E+02  0.00000000000E+00 0.  1.
</event>
<event>
 7    1  0.6358809E-006  0.7122644E+02  0.7818608E-02  0.1415188E+00
          2   -1    0    0  502    0  0.00000000000E+00  0.00000000000E+00  0.22938694642E+03  0.22938694642E+03  0.00000000000E+00 0. -1.
          1   -1    0    0  501    0 -0.00000000000E+00 -0.00000000000E+00 -0.60126270127E+03  0.60126270127E+03  0.00000000000E+00 0. -1.
         25    2    1    2    0    0  0.43064132554E+02 -0.65397694037E+02 -0.28550665928E+03  0.32135535770E+03  0.12499534204E+03 0.  0.
          2    1    1    2  501    0  0.22729150091E+02  0.37803669169E+02 -0.29009883544E+03  0.29343323941E+03  0.00000000000E+00 0. -1.
          1    1    1    2  502    0 -0.65793282644E+02  0.27594024868E+02  0.20372973987E+03  0.21586105058E+03  0.00000000000E+00 0. -1.
         22    1    3    3    0    0  0.78560047033E+02 -0.74545759134E+02 -0.23685784858E+03  0.26044268396E+03  0.00000000000E+00 0.  1.
         22    1    3    3    0    0 -0.35495914479E+02  0.91480650972E+01 -0.48648810697E+02  0.60912673738E+02  0.00000000000E+00 0.  1.
</event>
<event>
 7    1  0.6358809E-006  0.6870016E+02  0.7818608E-02  0.1393661E+00
          2   -1    0    0  502    0  0.00000000000E+00  0.00000000000E+00  0.20269962076E+04  0.20269962076E+04  0.00000000000E+00 0. -1.
          1   -1    0    0  501    0 -0.00000000000E+00 -0.00000000000E+00 -0.78443630607E+03  0.78443630607E+03  0.00000000000E+00 0. -1.
         25    2    1    2    0    0  0.11280439854E+03 -0.40449739364E+02  0.36745727094E+03  0.40621461137E+03  0.12499780311E+03 0.  0.
          2    1    1    2  501    0 -0.58910542770E+02  0.34965846536E+02 -0.76307544697E+03  0.76614437297E+03  0.00000000000E+00 0. -1.
          1    1    1    2  502    0 -0.53893855769E+02  0.54838928276E+01  0.16381780775E+04  0.16390735293E+04  0.00000000000E+00 0. -1.
         22    1    3    3    0    0  0.14872130469E+02  0.27682417386E+02  0.18872969338E+03  0.19132797407E+03  0.00000000000E+00 0. -1.
         22    1    3    3    0    0  0.97932268070E+02 -0.68132156750E+02  0.17872757756E+03  0.21488663731E+03  0.00000000000E+00 0. -1.
</event>
<event>
 7    1  0.6358809E-006  0.1728681E+03  0.7818608E-02  0.1315771E+00
          2   -1    0    0  502    0  0.00000000000E+00  0.00000000000E+00  0.16983994406E+04  0.16983994406E+04  0.00000000000E+00 0. -1.
          1   -1    0    0  501    0 -0.00000000000E+00 -0.00000000000E+00 -0.10202403524E+04  0.10202403524E+04  0.00000000000E+00 0. -1.
         25    2    1    2    0    0  0.13322331994E+03  0.13645313241E+01  0.46424267178E+03  0.49889479246E+03  0.12499776287E+03 0.  0.
          2    1    1    2  501    0 -0.17292388948E+03 -0.14016082321E+02 -0.99504977258E+03  0.10100609744E+04  0.00000000000E+00 0. -1.
          1    1    1    2  502    0  0.39700569533E+02  0.12651550997E+02  0.12089661890E+04  0.12096840262E+04  0.00000000000E+00 0. -1.
         22    1    3    3    0    0  0.13937685054E+03  0.33808221401E+02  0.31606443765E+03  0.34708159134E+03  0.00000000000E+00 0. -1.
         22    1    3    3    0    0 -0.61535305962E+01 -0.32443690077E+02  0.14817823414E+03  0.15181320113E+03  0.00000000000E+00 0. -1.
</event>
<event>
 7    1  0.6358809E-006  0.1649029E+03  0.7818608E-02  0.1213796E+00
          2   -1    0    0  502    0  0.00000000000E+00  0.00000000000E+00  0.18564161885E+04  0.18564161885E+04  0.00000000000E+00 0. -1.
          1   -1    0    0  501    0 -0.00000000000E+00 -0.00000000000E+00 -0.36555275120E+03  0.36555275120E+03  0.00000000000E+00 0. -1.
         25    2    1    2    0    0  0.10423005188E+03  0.22075193418E+03  0.10102242367E+03  0.29227003218E+03  0.12498368480E+03 0.  0.
          2    1    1    2  501    0 -0.11897162819E+03 -0.10340454733E+03 -0.24459628640E+03  0.29098813041E+03  0.00000000000E+00 0. -1.
          1    1    1    2  502    0  0.14741576304E+02 -0.11734738685E+03  0.16344373000E+04  0.16387107771E+04  0.00000000000E+00 0. -1.
         22    1    3    3    0    0  0.89088913182E+02  0.22048733699E+03  0.55363228063E+02  0.24416508195E+03  0.00000000000E+00 0. -1.
         22    1    3    3    0    0  0.15141138701E+02  0.26459719116E+00  0.45659195605E+02  0.48104950225E+02  0.00000000000E+00 0. -1.
</event>
<event>
 7    1  0.6358809E-006  0.3343720E+03  0.7818608E-02  0.1251990E+00
          2   -1    0    0  502    0  0.00000000000E+00  0.00000000000E+00  0.25332938767E+04  0.25332938767E+04  0.00000000000E+00 0. -1.
          1   -1    0    0  501    0 -0.00000000000E+00 -0.00000000000E+00 -0.18308673332E+03  0.18308673332E+03  0.00000000000E+00 0. -1.
         25    2    1    2    0    0  0.18659618687E+03  0.23537763199E+03  0.11650973263E+04  0.12096685814E+04  0.12500212261E+03 0.  0.
          2    1    1    2  501    0 -0.20728102535E+03 -0.26890060499E+03  0.19119618795E+02  0.34005664037E+03  0.00000000000E+00 0. -1.
          1    1    1    2  502    0  0.20684838482E+02  0.33522973006E+02  0.11659901983E+04  0.11666553882E+04  0.00000000000E+00 0. -1.
         22    1    3    3    0    0  0.68037651624E+02  0.50901947033E+02  0.16255494288E+03  0.18342366179E+03  0.00000000000E+00 0.  1.
         22    1    3    3    0    0  0.11855853525E+03  0.18447568495E+03  0.10025423834E+04  0.10262449196E+04  0.00000000000E+00 0.  1.
</event>
<event>
 7    1  0.6358809E-006  0.1775648E+03  0.7818608E-02  0.1332859E+00
          2   -1    0    0  502    0  0.00000000000E+00  0.00000000000E+00  0.71466158796E+03  0.71466158796E+03  0.00000000000E+00 0. -1.
          1   -1    0    0  501    0 -0.00000000000E+00 -0.00000000000E+00 -0.42332512474E+03  0.42332512474E+03  0.00000000000E+00 0. -1.
         25    2    1    2    0    0  0.68932462879E+02  0.13216694637E+03  0.47138342724E+02  0.20016767470E+03  0.12500115395E+03 0.  0.
          2    1    1    2  501    0 -0.91686879646E+02 -0.15857336485E+03 -0.32205096089E+03  0.37049806660E+03  0.00000000000E+00 0. -1.
          1    1    1    2  502    0  0.22754416767E+02  0.26406418477E+02  0.56624908139E+03  0.56732097140E+03  0.00000000000E+00 0. -1.
         22    1    3    3    0    0  0.64616027718E+02  0.10446142827E+03  0.87651193052E+02  0.15089782198E+03  0.00000000000E+00 0. -1.
         22    1    3    3    0    0  0.43164351616E+01  0.27705518103E+02 -0.40512850328E+02  0.49269852725E+02  0.00000000000E+00 0. -1.
</event>
<event>
 7    1  0.6358809E-006  0.1056862E+03  0.7818608E-02  0.1271347E+00
          2   -1    0    0  502    0  0.00000000000E+00  0.00000000000E+00  0.72351085540E+03  0.72351085540E+03  0.00000000000E+00 0. -1.
          1   -1    0    0  501    0 -0.00000000000E+00 -0.00000000000E+00 -0.15492140313E+03  0.15492140313E+03  0.00000000000E+00 0. -1.
         25    2    1    2    0    0 -0.59052344012E+02  0.21144100843E+02  0.38629896429E+03  0.41083557736E+03  0.12499891792E+03 0.  0.
          2    1    1    2  501    0  0.75129191159E+02  0.80683785758E+02 -0.11116357811E+03  0.15656184001E+03  0.00000000000E+00 0. -1.
          1    1    1    2  502    0 -0.16076847147E+02 -0.10182788660E+03  0.29345406610E+03  0.31103484116E+03  0.00000000000E+00 0. -1.
         22    1    3    3    0    0 -0.67401369989E+02  0.20151334449E+02  0.39351619933E+03  0.39975495005E+03  0.00000000000E+00 0.  1.
         22    1    3    3    0    0  0.83490259767E+01  0.99276639330E+00 -0.72172350426E+01  0.11080627308E+02  0.00000000000E+00 0.  1.
</event>
<event>
 7    1  0.6358809E-006  0.6792742E+02  0.7818608E-02  0.1368329E+00
          2   -1    0    0  502    0  0.00000000000E+00  0.00000000000E+00  0.66159999432E+03  0.66159999432E+03  0.00000000000E+00 0. -1.
          1   -1    0    0  501    0 -0.00000000000E+00 -0.00000000000E+00 -0.14677855536E+03  0.14677855536E+03  0.00000000000E+00 0. -1.
         25    2    1    2    0    0 -0.11202234531E+02  0.42915649773E+01  0.33579042596E+02  0.12998611214E+03  0.12499971863E+03 0.  0.
          2    1    1    2  501    0  0.52093105224E+02 -0.58532422558E+02 -0.80628244362E+02  0.11243064480E+03  0.00000000000E+00 0. -1.
          1    1    1    2  502    0 -0.40890870694E+02  0.54240857581E+02  0.56187064072E+03  0.56596179274E+03  0.00000000000E+00 0. -1.
         22    1    3    3    0    0  0.12172983615E+02 -0.56474302301E+02  0.24577206794E+01  0.57823600211E+02  0.00000000000E+00 0.  1.
         22    1    3    3    0    0 -0.23375218145E+02  0.60765867278E+02  0.31121321917E+02  0.72162511924E+02  0.00000000000E+00 0.  1.
</event>
<event>
 7    1  0.6358809E-006  0.1605504E+03  0.7818608E-02  0.1303496E+00
          2   -1    0    0  502    0  0.00000000000E+00  0.00000000000E+00  0.16005996340E+03  0.16005996340E+03  0.00000000000E+00 0. -1.
          1   -1    0    0  501    0 -0.00000000000E+00 -0.00000000000E+00 -0.87404707198E+03  0.87404707198E+03  0.00000000000E+00 0. -1.
         25    2    1    2    0    0  0.61200391397E+02 -0.12670861918E+03 -0.13566769331E+02  0.18870633831E+03  0.12500185121E+03 0.  0.
          2    1    1    2  501    0  0.42724316176E+02 -0.26269140684E+02 -0.65240502583E+03  0.65433000288E+03  0.00000000000E+00 0. -1.
          1    1    1    2  502    0 -0.10392470757E+03  0.15297775986E+03 -0.48015313427E+02  0.19107069419E+03  0.00000000000E+00 0. -1.
         22    1    3    3    0    0  0.40344399010E+02 -0.99523867320E+01  0.40799769404E+02  0.58235227454E+02  0.00000000000E+00 0. -1.
         22    1    3    3    0    0  0.20855992386E+02 -0.11675623245E+03 -0.54366538735E+02  0.13047111085E+03  0.00000000000E+00 0. -1.
</event>
<event>
 7    1  0.6358809E-006  0.5331381E+02  0.7818608E-02  0.1520247E+00
          2   -1    0    0  502    0  0.00000000000E+00  0.00000000000E+00  0.42220811191E+03  0.42220811191E+03  0.00000000000E+00 0. -1.
          1   -1    0    0  501    0 -0.00000000000E+00 -0.00000000000E+00 -0.22253121359E+03  0.22253121359E+03  0.00000000000E+00 0. -1.
         25    2    1    2    0    0 -0.40248579685E+02  0.27205663358E+02  0.24415728972E+02  0.13631555032E+03  0.12500282058E+03 0.  0.
          2    1    1    2  501    0  0.17459977433E+02  0.21469454280E+02 -0.16329748704E+03  0.16562565487E+03  0.00000000000E+00 0. -1.
          1    1    1    2  502    0  0.22788602252E+02 -0.48675117638E+02  0.33855865639E+03  0.34279812031E+03  0.00000000000E+00 0. -1.
         22    1    3    3    0    0  0.32790954944E+01 -0.36180378759E+02  0.43910416222E+02  0.56990323102E+02  0.00000000000E+00 0. -1.
         22    1    3    3    0    0 -0.43527675180E+02  0.63386042118E+02 -0.19494687251E+02  0.79325227216E+02  0.00000000000E+00 0. -1.
</event>
<event>
 7    1  0.6358809E-006  0.1515591E+03  0.7818608E-02  0.1318663E+00
          2   -1    0    0  502    0  0.00000000000E+00  0.00000000000E+00  0.23445718300E+04  0.23445718300E+04  0.00000000000E+00 0. -1.
          1   -1    0    0  501    0 -0.00000000000E+00 -0.00000000000E+00 -0.59643067949E+03  0.59643067949E+03  0.00000000000E+00 0. -1.
         25    2    1    2    0    0 -0.15349686987E+01 -0.10813389533E+03  0.12246862177E+02  0.16573635609E+03  0.12499303440E+03 0.  0.
          2    1    1    2  501    0 -0.14111955875E+02 -0.44106417856E+02 -0.51605191371E+03  0.51812556493E+03  0.00000000000E+00 0. -1.
          1    1    1    2  502    0  0.15646924574E+02  0.15224031319E+03  0.22519462021E+04  0.22571405885E+04  0.00000000000E+00 0. -1.
         22    1    3    3    0    0  0.55293716922E+01 -0.13019437466E+03  0.33229636933E+02  0.13448181258E+03  0.00000000000E+00 0. -1.
         22    1    3    3    0    0 -0.70643403909E+01  0.22060479330E+02 -0.20982774755E+02  0.31254543508E+02  0.00000000000E+00 0. -1.
</event>
<event>
 7    1  0.6358809E-006  0.9237796E+02  0.7818608E-02  0.1409421E+00
          2   -1    0    0  502    0  0.00000000000E+00  0.00000000000E+00  0.15727552444E+03  0.15727552444E+03  0.00000000000E+00 0. -1.
          1   -1    0    0  501    0 -0.00000000000E+00 -0.00000000000E+00 -0.13287884792E+04  0.13287884792E+04  0.00000000000E+00 0. -1.
         25    2    1    2    0    0 -0.68068655370E+02 -0.17596763122E+02 -0.35229864482E+03  0.38037062279E+03  0.12499795046E+03 0.  0.
          2    1    1    2  501    0  0.96589178251E+02 -0.36604079021E+01 -0.95777483997E+03  0.96263986622E+03  0.00000000000E+00 0. -1.
          1    1    1    2  502    0 -0.28520522881E+02  0.21257171024E+02  0.13856053007E+03  0.14305351460E+03  0.00000000000E+00 0. -1.
         22    1    3    3    0    0 -0.10068209883E+03  0.38123404067E+00 -0.20434713500E+03  0.22780426235E+03  0.00000000000E+00 0.  1.
         22    1    3    3    0    0  0.32613443464E+02 -0.17977997162E+02 -0.14795150983E+03  0.15256636044E+03  0.00000000000E+00 0.  1.
</event>
<event>
 7    1  0.6358809E-006  0.7882389E+02  0.7818608E-02  0.1352153E+00
          2   -1    0    0  502    0  0.00000000000E+00  0.00000000000E+00  0.52469631335E+03  0.52469631335E+03  0.00000000000E+00 0. -1.
          1   -1    0    0  501    0 -0.00000000000E+00 -0.00000000000E+00 -0.94932504412E+03  0.94932504412E+03  0.00000000000E+00 0. -1.
         25    2    1    2    0    0  0.12002916906E+03  0.81154265347E+02  0.32548146641E+03  0.37756576323E+03  0.12499881751E+03 0.  0.
          2    1    1    2  501    0 -0.66488747886E+02 -0.41747081298E+02 -0.91515951661E+03  0.91852082896E+03  0.00000000000E+00 0. -1.
          1    1    1    2  502    0 -0.53540421173E+02 -0.39407184049E+02  0.16504931943E+03  0.17793476529E+03  0.00000000000E+00 0. -1.
         22    1    3    3    0    0  0.87335572642E+02  0.95257482647E+02  0.31495248716E+03  0.34043583744E+03  0.00000000000E+00 0.  1.
         22    1    3    3    0    0  0.32693596416E+02 -0.14103217300E+02  0.10528979250E+02  0.37129925786E+02  0.00000000000E+00 0.  1.
</event>
<event>
 7    1  0.6358809E-006  0.1024616E+03  0.7818608E-02  0.1374873E+00
          2   -1    0    0  502    0  0.00000000000E+00  0.00000000000E+00  0.99499818736E+03  0.99499818736E+03  0.00000000000E+00 0. -1.
          1   -1    0    0  501    0 -0.00000000000E+00 -0.00000000000E+00 -0.62092135190E+03  0.62092135190E+03  0.00000000000E+00 0. -1.
         25    2    1    2    0    0 -0.10550147884E+03  0.26619971039E+02  0.26543218921E+03  0.31291913079E+03  0.12499980179E+03 0.  0.
          2    1    1    2  501    0  0.81851402681E+02 -0.61685830867E+02 -0.59213788477E+03  0.60094264987E+03  0.00000000000E+00 0. -1.
          1    1    1    2  502    0  0.23650076161E+02  0.35065859828E+02  0.70078253102E+03  0.70205775860E+03  0.00000000000E+00 0. -1.
         22    1    3    3    0    0 -0.13354605602E+03  0.24125624519E+02  0.20009655904E+03  0.24177515955E+03  0.00000000000E+00 0.  1.
         22    1    3    3    0    0  0.28044577174E+02  0.24943465200E+01  0.65335630170E+02  0.71143971235E+02  0.00000000000E+00 0.  1.
</event>
<event>
 7    1  0.6358809E-006  0.1581320E+03  0.7818608E-02  0.1213550E+00
          2   -1    0    0  502    0  0.00000000000E+00  0.00000000000E+00  0.54147993905E+03  0.54147993905E+03  0.00000000000E+00 0. -1.
          1   -1    0    0  501    0 -0.00000000000E+00 -0.00000000000E+00 -0.72760113594E+03  0.72760113594E+03  0.00000000000E+00 0. -1.
         25    2    1    2    0    0 -0.77341411563E+02  0.56130677394E+02  0.14727159944E+03  0.21551347475E+03  0.12499914763E+03 0.  0.
          2    1    1    2  501    0  0.11628570204E+03  0.10716049923E+03 -0.66411385632E+03  0.68268070960E+03  0.00000000000E+00 0. -1.
          1    1    1    2  502    0 -0.38944290476E+02 -0.16329117663E+03  0.33072106000E+03  0.37088689064E+03  0.00000000000E+00 0. -1.
         22    1    3    3    0    0 -0.79220536199E+02  0.56022749698E+02  0.16837241572E+03  0.19432887643E+03  0.00000000000E+00 0.  1.
         22    1    3    3    0    0  0.18791246365E+01  0.10792769645E+00 -0.21100816284E+02  0.21184598312E+02  0.00000000000E+00 0.  1.
</event>
<event>
 7    1  0.6358809E-006  0.5321222E+02  0.7818608E-02  0.1469039E+00
          2   -1    0    0  502    0  0.00000000000E+00  0.00000000000E+00  0.30859687113E+03  0.30859687113E+03  0.00000000000E+00 0. -1.
          1   -1    0    0  501    0 -0.00000000000E+00 -0.00000000000E+00 -0.10956718175E+04  0.10956718175E+04  0.00000000000E+00 0. -1.
         25    2    1    2    0    0 -0.81818380526E+01  0.22819927250E+02 -0.71216928361E+03  0.72346513507E+03  0.12501608533E+03 0.  0.
          2    1    1    2  501    0 -0.39510996995E+02  0.10422607868E+01 -0.37445949962E+03  0.37653966862E+03  0.00000000000E+00 0. -1.
          1    1    1    2  502    0  0.47692835047E+02 -0.23862188037E+02  0.29955383683E+03  0.30426388496E+03  0.00000000000E+00 0. -1.
         22    1    3    3    0    0 -0.11919263038E+02 -0.32324899702E+02 -0.61825129532E+02  0.70776511737E+02  0.00000000000E+00 0.  1.
         22    1    3    3    0    0  0.37374249856E+01  0.55144826952E+02 -0.65034415408E+03  0.65268862333E+03  0.00000000000E+00 0.  1.
</event>
<event>
 7    1  0.6358809E-006  0.6445521E+02  0.7818608E-02  0.1495107E+00
          2   -1    0    0  502    0  0.00000000000E+00  0.00000000000E+00  0.63714778668E+03  0.63714778668E+03  0.00000000000E+00 0. -1.
          1   -1    0    0  501    0 -0.00000000000E+00 -0.00000000000E+00 -0.93939524433E+03  0.93939524433E+03  0.00000000000E+00 0. -1.
         25    2    1    2    0    0  0.32278929584E+02  0.55064636250E+02 -0.54828361709E+03  0.56596321714E+03  0.12500157968E+03 0.  0.
          2    1    1    2  501    0  0.20413375837E+02 -0.17910649322E+02 -0.38013213657E+03  0.38110095582E+03  0.00000000000E+00 0. -1.
          1    1    1    2  502    0 -0.52692305420E+02 -0.37153986928E+02  0.62616829601E+03  0.62947885805E+03  0.00000000000E+00 0. -1.
         22    1    3    3    0    0 -0.42543891217E+01 -0.13663882548E+02 -0.23422728551E+01  0.14501301845E+02  0.00000000000E+00 0.  1.
         22    1    3    3    0    0  0.36533318705E+02  0.68728518797E+02 -0.54594134424E+03  0.55146191529E+03  0.00000000000E+00 0.  1.
</event>
<event>
 7    1  0.6358809E-006  0.6494418E+02  0.7818608E-02  0.1379711E+00
          2   -1    0    0  502    0  0.00000000000E+00  0.00000000000E+00  0.67939156072E+02  0.67939156072E+02  0.00000000000E+00 0. -1.
          1   -1    0    0  501    0 -0.00000000000E+00 -0.00000000000E+00 -0.64781888090E+03  0.64781888090E+03  0.00000000000E+00 0. -1.
         25    2    1    2    0    0  0.69599061793E+02  0.16764270790E+02 -0.23818929209E+03  0.27836006064E+03  0.12500045727E+03 0.  0.
          2    1    1    2  501    0 -0.46548458349E+02  0.45287829179E+02 -0.36229526827E+03  0.36807011269E+03  0.00000000000E+00 0. -1.
          1    1    1    2  502    0 -0.23050603444E+02 -0.62052099969E+02  0.20604835529E+02  0.69327863640E+02  0.00000000000E+00 0. -1.
         22    1    3    3    0    0 -0.28561886295E+02  0.16388200763E+02 -0.12145175303E+03  0.12583673068E+03  0.00000000000E+00 0.  1.
         22    1    3    3    0    0  0.98160948087E+02  0.37607002631E+00 -0.11673753906E+03  0.15252332996E+03  0.00000000000E+00 0.  1.
</event>
<event>
 7    1  0.6358809E-006  0.1802610E+03  0.7818608E-02  0.1236862E+00
          2   -1    0    0  502    0  0.00000000000E+00  0.00000000000E+00  0.77311889598E+03  0.77311889598E+03  0.00000000000E+00 0. -1.
          1   -1    0    0  501    0 -0.00000000000E+00 -0.00000000000E+00 -0.40003699768E+03  0.40003699768E+03  0.00000000000E+00 0. -1.
         25    2    1    2    0    0  0.19290482037E+03 -0.15527838076E+03  0.42936053285E+03  0.51117415414E+03  0.12499961377E+03 0.  0.
          2    1    1    2  501    0 -0.10923202249E+03  0.13972587793E+03 -0.33037863450E+03  0.37497332949E+03  0.00000000000E+00 0. -1.
          1    1    1    2  502    0 -0.83672797885E+02  0.15552502825E+02  0.27409999995E+03  0.28700841002E+03  0.00000000000E+00 0. -1.
         22    1    3    3    0    0 -0.88474181531E+01  0.10569773054E+02  0.96008427199E+01  0.16798008552E+02  0.00000000000E+00 0.  1.
         22    1    3    3    0    0  0.20175223852E+03 -0.16584815381E+03  0.41975969013E+03  0.49437614559E+03  0.00000000000E+00 0.  1.
</event>
<event>
 7    1  0.6358809E-006  0.1076467E+03  0.7818608E-02  0.1331036E+00
          2   -1    0    0  502    0  0.00000000000E+00  0.00000000000E+00  0.13744585413E+03  0.13744585413E+03  0.00000000000E+00 0. -1.
          1   -1    0    0  501    0 -0.00000000000E+00 -0.00000000000E+00 -0.60555526501E+03  0.60555526501E+03  0.00000000000E+00 0. -1.
         25    2    1    2    0    0 -0.64397628244E+02  0.44328895104E+02 -0.42318215908E+02  0.15338689273E+03  0.12499840798E+03 0.  0.
          2    1    1    2  501    0 -0.56172610099E+01  0.58154327959E+02 -0.45773853786E+03  0.46145210860E+03  0.00000000000E+00 0. -1.
          1    1    1    2  502    0  0.70014889254E+02 -0.10248322306E+03  0.31947342892E+02  0.12816211782E+03  0.00000000000E+00 0. -1.
         22    1    3    3    0    0 -0.19069497723E+02  0.84549681873E+02 -0.21377767759E+02  0.89270954978E+02  0.00000000000E+00 0. -1.
         22    1    3    3    0    0 -0.45328130521E+02 -0.40220786769E+02 -0.20940448149E+02  0.64115937750E+02  0.00000000000E+00 0. -1.
</event>
<event>
 7    1  0.6358809E-006  0.8055329E+02  0.7818608E-02  0.1348881E+00
          2   -1    0    0  502    0  0.00000000000E+00  0.00000000000E+00  0.19851371813E+04  0.19851371813E+04  0.00000000000E+00 0. -1.
          1   -1    0    0  501    0 -0.00000000000E+00 -0.00000000000E+00 -0.12318457122E+04  0.12318457122E+04  0.00000000000E+00 0. -1.
         25    2    1    2    0    0 -0.26089375420E+02  0.43070839895E+02  0.47426397282E+02  0.14288264398E+03  0.12502173424E+03 0.  0.
          2    1    1    2  501    0 -0.55237261438E+02 -0.37727898962E+02 -0.11822930913E+04  0.11841838975E+04  0.00000000000E+00 0. -1.
          1    1    1    2  502    0  0.81326636858E+02 -0.53429409326E+01  0.18881581631E+04  0.18899163521E+04  0.00000000000E+00 0. -1.
         22    1    3    3    0    0  0.35768404826E+02  0.16532942750E+01 -0.21218206285E+02  0.41621201853E+02  0.00000000000E+00 0. -1.
         22    1    3    3    0    0 -0.61857780245E+02  0.41417545620E+02  0.68644603567E+02  0.10126144212E+03  0.00000000000E+00 0. -1.
</event>
<event>
 7    1  0.6358809E-006  0.7507934E+02  0.7818608E-02  0.1347270E+00
          2   -1    0    0  502    0  0.00000000000E+00  0.00000000000E+00  0.12464705919E+04  0.12464705919E+04  0.00000000000E+00 0. -1.
          1   -1    0    0  501    0 -0.00000000000E+00 -0.00000000000E+00 -0.38618514584E+03  0.38618514584E+03  0.00000000000E+00 0. -1.
         25    2    1    2    0    0 -0.68254739579E+02 -0.78241080985E+02  0.26241811285E+02  0.16458141956E+03  0.12497213601E+03 0.  0.
          2    1    1    2  501    0 -0.66090451020E+01  0.72464653690E+02 -0.31159458922E+03  0.31997811417E+03  0.00000000000E+00 0. -1.
          1    1    1    2  502    0  0.74863784681E+02  0.57764272944E+01  0.11456382240E+04  0.11480962040E+04  0.00000000000E+00 0. -1.
         22    1    3    3    0    0 -0.30916049352E+01 -0.14302441883E+02 -0.45931124734E+02  0.48205664442E+02  0.00000000000E+00 0.  1.
         22    1    3    3    0    0 -0.65163134643E+02 -0.63938639101E+02  0.72172936020E+02  0.11637575512E+03  0.00000000000E+00 0.  1.
</event>
<event>
 7    1  0.6358809E-006  0.9643816E+02  0.7818608E-02  0.1417182E+00
          2   -1    0    0  502    0  0.00000000000E+00  0.00000000000E+00  0.12479748260E+04  0.12479748260E+04  0.00000000000E+00 0. -1.
          1   -1    0    0  501    0 -0.00000000000E+00 -0.00000000000E+00 -0.27057553992E+04  0.27057553992E+04  0.00000000000E+00 0. -1.
         25    2    1    2    0    0 -0.81526586152E+02 -0.11106070124E+00 -0.17748952349E+03  0.23189223869E+03  0.12499953132E+03 0.  0.
          2    1    1    2  501    0  0.92224089328E+02  0.30355064043E+02 -0.24999112508E+04  0.25017959498E+04  0.00000000000E+00 0. -1.
          1    1    1    2  502    0 -0.10697503176E+02 -0.30244003342E+02  0.12196202011E+04  0.12200420367E+04  0.00000000000E+00 0. -1.
         22    1    3    3    0    0  0.23808325356E+02 -0.26796120177E+02 -0.21540042498E+02  0.41819156420E+02  0.00000000000E+00 0. -1.
         22    1    3    3    0    0 -0.10533491151E+03  0.26685059476E+02 -0.15594948099E+03  0.19007308227E+03  0.00000000000E+00 0. -1.
</event>
<event>
 7    1  0.6358809E-006  0.8777387E+02  0.7818608E-02  0.1323804E+00
          2   -1    0    0  502    0  0.00000000000E+00  0.00000000000E+00  0.23127874336E+04  0.23127874336E+04  0.00000000000E+00 0. -1.
          1   -1    0    0  501    0 -0.00000000000E+00 -0.00000000000E+00 -0.27157141475E+02  0.27157141475E+02  0.00000000000E+00 0. -1.
         25    2    1    2    0    0  0.13053834466E+03 -0.43370607042E+02  0.96818733374E+03  0.98586029171E+03  0.12495012034E+03 0.  0.
          2    1    1    2  501    0 -0.82573226380E+02 -0.16068871418E+02  0.86095200810E+02  0.12036997111E+03  0.00000000000E+00 0. -1.
          1    1    1    2  502    0 -0.47965118278E+02  0.59439478460E+02  0.12313477576E+04  0.12337143123E+04  0.00000000000E+00 0. -1.
         22    1    3    3    0    0 -0.14873319837E+02 -0.33066284829E+01  0.31972153159E+03  0.32008437512E+03  0.00000000000E+00 0.  1.
         22    1    3    3    0    0  0.14541166450E+03 -0.40063978559E+02  0.64846580216E+03  0.66577591659E+03  0.00000000000E+00 0.  1.
</event>
<event>
 7    1  0.6358809E-006  0.1470800E+03  0.7818608E-02  0.1257713E+00
          2   -1    0    0  502    0  0.00000000000E+00  0.00000000000E+00  0.59368957930E+03  0.59368957930E+03  0.00000000000E+00 0. -1.
          1   -1    0    0  501    0 -0.00000000000E+00 -0.00000000000E+00 -0.12357429082E+04  0.12357429082E+04  0.00000000000E+00 0. -1.
         25    2    1    2    0    0  0.78882527930E+02 -0.13022788766E+03 -0.34797144202E+03  0.39986181640E+03  0.12499436715E+03 0.  0.
          2    1    1    2  501    0 -0.13497536926E+03  0.66878730064E+02 -0.85202981485E+03  0.86524327229E+03  0.00000000000E+00 0. -1.
          1    1    1    2  502    0  0.56092841325E+02  0.63349157601E+02  0.55794792802E+03  0.56432739877E+03  0.00000000000E+00 0. -1.
         22    1    3    3    0    0  0.17933552256E+02 -0.11657652170E+03 -0.14182718634E+03  0.18446313587E+03  0.00000000000E+00 0. -1.
         22    1    3    3    0    0  0.60948975675E+02 -0.13651365962E+02 -0.20614425567E+03  0.21539868053E+03  0.00000000000E+00 0. -1.
</event>
<event>
 7    1  0.6358809E-006  0.6173755E+02  0.7818608E-02  0.1488054E+00
          2   -1    0    0  502    0  0.00000000000E+00  0.00000000000E+00  0.82309375010E+03  0.82309375010E+03  0.00000000000E+00 0. -1.
          1   -1    0    0  501    0 -0.00000000000E+00 -0.00000000000E+00 -0.77088958701E+02  0.77088958701E+02  0.00000000000E+00 0. -1.
         25    2    1    2    0    0  0.19990021436E+02  0.65165680991E+02  0.29869916617E+03  0.33089628659E+03  0.12499997469E+03 0.  0.
          2    1    1    2  501    0 -0.29479127284E+02 -0.42010868303E+01 -0.55353738454E+02  0.62854629399E+02  0.00000000000E+00 0. -1.
          1    1    1    2  502    0  0.94891058482E+01 -0.60964594161E+02  0.50265936368E+03  0.50643179281E+03  0.00000000000E+00 0. -1.
         22    1    3    3    0    0  0.57916171933E+02  0.48052170909E+02  0.86490145269E+02  0.11464658446E+03  0.00000000000E+00 0. -1.
         22    1    3    3    0    0 -0.37926150497E+02  0.17113510083E+02  0.21220902090E+03  0.21624970213E+03  0.00000000000E+00 0. -1.
</event>
<event>
 7    1  0.6358809E-006  0.1655250E+03  0.7818608E-02  0.1335691E+00
          2   -1    0    0  502    0  0.00000000000E+00  0.00000000000E+00  0.24521932781E+04  0.24521932781E+04  0.00000000000E+00 0. -1.
          1   -1    0    0  501    0 -0.00000000000E+00 -0.00000000000E+00 -0.21394632207E+03  0.21394632207E+03  0.00000000000E+00 0. -1.
         25    2    1    2    0    0 -0.75817637547E+02 -0.11160837480E+03  0.31575321681E+03  0.36541852281E+03  0.12500343754E+03 0.  0.
          2    1    1    2  501    0 -0.93494252929E+01 -0.35260542245E+02 -0.18390671055E+03  0.18748972179E+03  0.00000000000E+00 0. -1.
          1    1    1    2  502    0  0.85167062840E+02  0.14686891705E+03  0.21064004498E+04  0.21132313556E+04  0.00000000000E+00 0. -1.
         22    1    3    3    0    0 -0.18765188796E+02  0.20419728771E+02  0.13834741527E+02  0.30991897437E+02  0.00000000000E+00 0.  1.
         22    1    3    3    0    0 -0.57052448751E+02 -0.13202810357E+03  0.30191847528E+03  0.33442662537E+03  0.00000000000E+00 0.  1.
</event>
<event>
 7    1  0.6358809E-006  0.5286718E+02  0.7818608E-02  0.1523480E+00
          2   -1    0    0  502    0  0.00000000000E+00  0.00000000000E+00  0.23971325547E+04  0.23971325547E+04  0.00000000000E+00 0. -1.
          1   -1    0    0  501    0 -0.00000000000E+00 -0.00000000000E+00 -0.18426386003E+04  0.18426386003E+04  0.00000000000E+00 0. -1.
         25    2    1    2    0    0  0.58335509161E+02  0.49412183335E+02  0.16693114796E+02  0.14747200538E+03  0.12499894718E+03 0.  0.
          2    1    1    2  501    0 -0.11732960118E+02 -0.24662801976E+02 -0.17768435209E+04  0.17770534078E+04  0.00000000000E+00 0. -1.
          1    1    1    2  502    0 -0.46602549042E+02 -0.24749381359E+02  0.23146443605E+04  0.23152457418E+04  0.00000000000E+00 0. -1.
         22    1    3    3    0    0  0.49879000405E+02  0.11124136264E+02  0.66635635049E+02  0.83976002211E+02  0.00000000000E+00 0. -1.
         22    1    3    3    0    0  0.84565087557E+01  0.38288047070E+02 -0.49942520253E+02  0.63496003165E+02  0.00000000000E+00 0. -1.
</event>
<event>
 7    1  0.6358809E-006  0.2433796E+03  0.7818608E-02  0.1252349E+00
          2   -1    0    0  502    0  0.00000000000E+00  0.00000000000E+00  0.13583706197E+04  0.13583706197E+04  0.00000000000E+00 0. -1.
          1   -1    0    0  501    0 -0.00000000000E+00 -0.00000000000E+00 -0.25111823923E+04  0.25111823923E+04  0.00000000000E+00 0. -1.
         25    2    1    2    0    0  0.27830611207E+03 -0.52689500681E+02  0.46348206427E+03  0.55737926408E+03  0.12500217849E+03 0.  0.
          2    1    1    2  501    0 -0.24263330360E+03  0.12250125391E+02 -0.24573804916E+04  0.24693602140E+04  0.00000000000E+00 0. -1.
          1    1    1    2  502    0 -0.35672808470E+02  0.40439375290E+02  0.84108665474E+03  0.84281353402E+03  0.00000000000E+00 0. -1.
         22    1    3    3    0    0  0.28808157253E+03 -0.46811711182E+02  0.46113153561E+03  0.54573310498E+03  0.00000000000E+00 0.  1.
         22    1    3    3    0    0 -0.97754604652E+01 -0.58777894988E+01  0.23505286564E+01  0.11646159095E+02  0.00000000000E+00 0.  1.
</event>
<event>
 7    1  0.6358809E-006  0.6164532E+02  0.7818608E-02  0.1441366E+00
          2   -1    0    0  502    0  0.00000000000E+00  0.00000000000E+00  0.46532902544E+03  0.46532902544E+03  0.00000000000E+00 0. -1.
          1   -1    0    0  501    0 -0.00000000000E+00 -0.00000000000E+00 -0.58292785051E+03  0.58292785051E+03  0.00000000000E+00 0. -1.
         25    2    1    2    0    0 -0.48462880839E+01  0.28464822624E+02  0.20582168535E+03  0.24253187815E+03  0.12500165249E+03 0.  0.
          2    1    1    2  501    0  0.43643940170E+02 -0.43943872359E+02 -0.56104693908E+03  0.56445506932E+03  0.00000000000E+00 0. -1.
          1    1    1    2  502    0 -0.38797652086E+02  0.15479049735E+02  0.23762642867E+03  0.24126992848E+03  0.00000000000E+00 0. -1.
         22    1    3    3    0    0 -0.21507917391E+02  0.34927779639E+02  0.54667245799E+01  0.41381461775E+02  0.00000000000E+00 0. -1.
         22    1    3    3    0    0  0.16661629307E+02 -0.64629570147E+01  0.20035496077E+03  0.20115041638E+03  0.00000000000E+00 0. -1.
</event>
<event>
 7    1  0.6358809E-006  0.1454525E+03  0.7818608E-02  0.1270782E+00
          2   -1    0    0  502    0  0.00000000000E+00  0.00000000000E+00  0.54288485041E+03  0.54288485041E+03  0.00000000000E+00 0. -1.
          1   -1    0    0  501    0 -0.00000000000E+00 -0.00000000000E+00 -0.35795718052E+03  0.35795718052E+03  0.00000000000E+00 0. -1.
         25    2    1    2    0    0 -0.30525624741E+02  0.12278917617E+03 -0.16085824628E+03  0.23980936354E+03  0.12499663955E+03 0.  0.
          2    1    1    2  501    0  0.10336848598E+03 -0.14192401637E+03 -0.10461291245E+03  0.20438036052E+03  0.00000000000E+00 0. -1.
          1    1    1    2  502    0 -0.72842861240E+02  0.19134840195E+02  0.45039882862E+03  0.45665230686E+03  0.00000000000E+00 0. -1.
         22    1    3    3    0    0 -0.53369318433E+02  0.13486202707E+03 -0.10752903214E+03  0.18055066671E+03  0.00000000000E+00 0. -1.
         22    1    3    3    0    0  0.22843693692E+02 -0.12072850898E+02 -0.53329214139E+02  0.59258696839E+02  0.00000000000E+00 0. -1.
</event>
<event>
 7    1  0.6358809E-006  0.4423772E+02  0.7818608E-02  0.1496036E+00
          2   -1    0    0  502    0  0.00000000000E+00  0.00000000000E+00  0.37697883500E+02  0.37697883500E+02  0.00000000000E+00 0. -1.
          1   -1    0    0  501    0 -0.00000000000E+00 -0.00000000000E+00 -0.56941971336E+03  0.56941971336E+03  0.00000000000E+00 0. -1.
         25    2    1    2    0    0  0.14559368838E+02 -0.37485557153E+02 -0.19090298824E+03  0.23170168603E+03  0.12499831269E+03 0.  0.
          2    1    1    2  501    0  0.30819772666E+02  0.24408924429E+02 -0.32230011950E+03  0.32468911440E+03  0.00000000000E+00 0. -1.
          1    1    1    2  502    0 -0.45379141504E+02  0.13076632724E+02 -0.18518722120E+02  0.50726796430E+02  0.00000000000E+00 0. -1.
         22    1    3    3    0    0  0.66000037317E+02  0.21437918141E+01 -0.87950101184E+02  0.10998100321E+03  0.00000000000E+00 0. -1.
         22    1    3    3    0    0 -0.51440668479E+02 -0.39629348967E+02 -0.10295288706E+03  0.12172068282E+03  0.00000000000E+00 0. -1.
</event>
<event>
 7    1  0.6358809E-006  0.4812513E+02  0.7818608E-02  0.1467235E+00
          2   -1    0    0  502    0  0.00000000000E+00  0.00000000000E+00  0.12170841104E+03  0.12170841104E+03  0.00000000000E+00 0. -1.
          1   -1    0    0  501    0 -0.00000000000E+00 -0.00000000000E+00 -0.24353026104E+03  0.24353026104E+03  0.00000000000E+00 0. -1.
         25    2    1    2    0    0 -0.34524833796E+02  0.82123906731E+02 -0.85870706295E+02  0.17588346270E+03  0.12499965619E+03 0.  0.
          2    1    1    2  501    0  0.10542635128E+02 -0.42999192142E+02 -0.10069467283E+03  0.10999770369E+03  0.00000000000E+00 0. -1.
          1    1    1    2  502    0  0.23982198668E+02 -0.39124714588E+02  0.64743529133E+02  0.79357505689E+02  0.00000000000E+00 0. -1.
         22    1    3    3    0    0 -0.57710059893E+02  0.10420677445E+03 -0.79568399004E+02  0.14325024598E+03  0.00000000000E+00 0. -1.
         22    1    3    3    0    0  0.23185226097E+02 -0.22082867722E+02 -0.63023072908E+01  0.32633216715E+02  0.00000000000E+00 0. -1.
</event>
<event>
 7    1  0.6358809E-006  0.1555987E+03  0.7818608E-02  0.1347696E+00
          2   -1    0    0  502    0  0.00000000000E+00  0.00000000000E+00  0.35790439386E+03  0.35790439386E+03  0.00000000000E+00 0. -1.
          1   -1    0    0  501    0 -0.00000000000E+00 -0.00000000000E+00 -0.93583419367E+03  0.93583419367E+03  0.00000000000E+00 0. -1.
         25    2    1    2    0    0  0.13090780815E+03 -0.27728107525E+02 -0.36328033031E+03  0.40681955855E+03  0.12499541051E+03 0.  0.
          2    1    1    2  501    0 -0.16579310211E+03  0.30338100420E+02 -0.53692125172E+03  0.56275410580E+03  0.00000000000E+00 0. -1.
          1    1    1    2  502    0  0.34885293956E+02 -0.26099928945E+01  0.32227178223E+03  0.32416492318E+03  0.00000000000E+00 0. -1.
         22    1    3    3    0    0  0.91582822912E+02 -0.28826223136E+01 -0.86001868516E+02  0.12566640105E+03  0.00000000000E+00 0. -1.
         22    1    3    3    0    0  0.39324985237E+02 -0.24845485212E+02 -0.27727846180E+03  0.28115315751E+03  0.00000000000E+00 0. -1.
</event>
<event>
 7    1  0.6358809E-006  0.6504710E+02  0.7818608E-02  0.1381798E+00
          2   -1    0    0  502    0  0.00000000000E+00  0.00000000000E+00  0.30373605714E+03  0.30373605714E+03  0.00000000000E+00 0. -1.
          1   -1    0    0  501    0 -0.00000000000E+00 -0.00000000000E+00 -0.94420881100E+03  0.94420881100E+03  0.00000000000E+00 0. -1.
         25    2    1    2    0    0 -0.94371698749E+01  0.84083951470E+02 -0.37762798792E+03  0.40667893067E+03  0.12500273726E+03 0.  0.
          2    1    1    2  501    0  0.53032329105E+02 -0.38663507645E+02 -0.54664291878E+03  0.55056859283E+03  0.00000000000E+00 0. -1.
          1    1    1    2  502    0 -0.43595159230E+02 -0.45420443825E+02  0.28379815284E+03  0.29069734464E+03  0.00000000000E+00 0. -1.
         22    1    3    3    0    0 -0.31336216281E+02  0.18911681267E+02 -0.18465248690E+02  0.40994823433E+02  0.00000000000E+00 0. -1.
         22    1    3    3    0    0  0.21899046406E+02  0.65172270203E+02 -0.35916273923E+03  0.36568410724E+03  0.00000000000E+00 0. -1.
</event>
<event>
 7    1  0.6358809E-006  0.7791418E+02  0.7818608E-02  0.1418444E+00
          2   -1    0    0  502    0  0.00000000000E+00  0.00000000000E+00  0.84217288806E+03  0.84217288806E+03  0.00000000000E+00 0. -1.
          1   -1    0    0  501    0 -0.00000000000E+00 -0.00000000000E+00 -0.31545977668E+03  0.31545977668E+03  0.00000000000E+00 0. -1.
         25    2    1    2    0    0  0.11582160311E+03  0.98844096172E+01  0.10753211765E+02  0.17103837024E+03  0.12500458884E+03 0.  0.
          2    1    1    2  501    0 -0.39284432773E+02 -0.17345037991E+01 -0.23168474501E+03  0.23499807708E+03  0.00000000000E+00 0. -1.
          1    1    1    2  502    0 -0.76537170337E+02 -0.81499058181E+01  0.74764464462E+03  0.75159621742E+03  0.00000000000E+00 0. -1.
         22    1    3    3    0    0  0.75812763542E+02  0.54086292950E+02 -0.31111884569E+02  0.98187838159E+02  0.00000000000E+00 0.  1.
         22    1    3    3    0    0  0.40008839568E+02 -0.44201883333E+02  0.41865096334E+02  0.72850532083E+02  0.00000000000E+00 0.  1.
</event>
<event>
 7    1  0.6358809E-006  0.6962726E+02  0.7818608E-02  0.1510516E+00
          2   -1    0    0  502    0  0.00000000000E+00  0.00000000000E+00  0.19355715680E+04  0.19355715680E+04  0.00000000000E+00 0. -1.
          1   -1    0    0  501    0 -0.00000000000E+00 -0.00000000000E+00 -0.12269465912E+03  0.12269465912E+03  0.00000000000E+00 0. -1.
         25    2    1    2    0    0 -0.41549757796E+02 -0.44148678928E+02 -0.23848063038E+02  0.14095835116E+03  0.12500015371E+03 0.  0.
          2    1    1    2  501    0  0.12160619810E+02 -0.19076787548E+02 -0.36415281171E+02  0.42870470024E+02  0.00000000000E+00 0. -1.
          1    1    1    2  502    0  0.29389137986E+02  0.63225466476E+02  0.18731402531E+04  0.18744374060E+04  0.00000000000E+00 0. -1.
         22    1    3    3    0    0 -0.21230458087E+02  0.43731034718E+02 -0.11105478559E+02  0.49864490392E+02  0.00000000000E+00 0.  1.
         22    1    3    3    0    0 -0.20319299709E+02 -0.87879713646E+02 -0.12742584479E+02  0.91093860772E+02  0.00000000000E+00 0.  1.
</event>
<event>
 7    1  0.6358809E-006  0.8771431E+02  0.7818608E-02  0.1365272E+00
          2   -1    0    0  502    0  0.00000000000E+00  0.00000000000E+00  0.25831689946E+04  0.25831689946E+04  0.00000000000E+00 0. -1.
          1   -1    0    0  501    0 -0.00000000000E+00 -0.00000000000E+00 -0.31275036428E+03  0.31275036428E+03  0.00000000000E+00 0. -1.
         25    2    1    2    0    0 -0.32635488159E+01 -0.60175201059E+02  0.25950143851E+03  0.29427526671E+03  0.12500092172E+03 0.  0.
          2    1    1    2  501    0 -0.48326531771E+02  0.74318454062E+02 -0.28839363726E+03  0.30171108084E+03  0.00000000000E+00 0. -1.
          1    1    1    2  502    0  0.51590080587E+02 -0.14143253003E+02  0.22993108291E+04  0.22999330113E+04  0.00000000000E+00 0. -1.
         22    1    3    3    0    0 -0.46523121880E+02 -0.75843098557E+02  0.13637614893E+03  0.16283436512E+03  0.00000000000E+00 0. -1.
         22    1    3    3    0    0  0.43259573064E+02  0.15667897497E+02  0.12312528958E+03  0.13144090158E+03  0.00000000000E+00 0. -1.
</event>
<event>
 7    1  0.6358809E-006  0.1549034E+03  0.7818608E-02  0.1272262E+00
          2   -1    0    0  502    0  0.00000000000E+00  0.00000000000E+00  0.17322390266E+04  0.17322390266E+04  0.00000000000E+00 0. -1.
          1   -1    0    0  501    0 -0.00000000000E+00 -0.00000000000E+00 -0.67400882823E+03  0.67400882823E+03  0.00000000000E+00 0. -1.
         25    2    1    2    0    0  0.14335292167E+03  0.16903105373E+03  0.32918377264E+03  0.41606439982E+03  0.12500428534E+03 0.  0.
          2    1    1    2  501    0 -0.10744489039E+03 -0.10927290320E+03 -0.62034429224E+03  0.63899296769E+03  0.00000000000E+00 0. -1.
          1    1    1    2  502    0 -0.35908031281E+02 -0.59758150538E+02  0.13493907179E+04  0.13511904873E+04  0.00000000000E+00 0. -1.
         22    1    3    3    0    0  0.51573142552E+02  0.52510345501E+02  0.21972045842E+03  0.23172010113E+03  0.00000000000E+00 0.  1.
         22    1    3    3    0    0  0.91779779122E+02  0.11652070823E+03  0.10946331422E+03  0.18434429870E+03  0.00000000000E+00 0.  1.
</event>
<event>
 7    1  0.6358809E-006  0.2218455E+03  0.7818608E-02  0.1237367E+00
          2   -1    0    0  502    0  0.00000000000E+00  0.00000000000E+00  0.92506063387E+03  0.92506063387E+03  0.00000000000E+00 0. -1.
          1   -1    0    0  501    0 -0.00000000000E+00 -0.00000000000E+00 -0.37547589787E+03  0.37547589787E+03  0.00000000000E+00 0. -1.
         25    2    1    2    0    0  0.17456197153E+03 -0.21011802545E+03 -0.16072266605E+02  0.30083940707E+03  0.12499825826E+03 0.  0.
          2    1    1    2  501    0 -0.13072235357E+03  0.15709738244E+03 -0.16693314557E+03  0.26388367964E+03  0.00000000000E+00 0. -1.
          1    1    1    2  502    0 -0.43839617957E+02  0.53020643009E+02  0.73259014817E+03  0.73581344503E+03  0.00000000000E+00 0. -1.
         22    1    3    3    0    0  0.12536552818E+03 -0.21699170948E+03 -0.10089803916E+02  0.25080614383E+03  0.00000000000E+00 0.  1.
         22    1    3    3    0    0  0.49196443348E+02  0.68736840347E+01 -0.59824626894E+01  0.50033263237E+02  0.00000000000E+00 0.  1.
</event>
<event>
 7    1  0.6358809E-006  0.1845166E+03  0.7818608E-02  0.1247572E+00
          2   -1    0    0  502    0  0.00000000000E+00  0.00000000000E+00  0.13462641314E+04  0.13462641314E+04  0.00000000000E+00 0. -1.
          1   -1    0    0  501    0 -0.00000000000E+00 -0.00000000000E+00 -0.15443010840E+03  0.15443010840E+03  0.00000000000E+00 0. -1.
         25    2    1    2    0    0  0.22197610437E+03  0.12275076755E+03  0.82360782396E+03  0.87080182416E+03  0.12499930969E+03 0.  0.
          2    1    1    2  501    0 -0.15403628915E+03 -0.91928941247E+02 -0.64617807950E+02  0.19066612106E+03  0.00000000000E+00 0. -1.
          1    1    1    2  502    0 -0.67939815222E+02 -0.30821826306E+02  0.43284400694E+03  0.43922629454E+03  0.00000000000E+00 0. -1.
         22    1    3    3    0    0  0.66467729877E+02  0.46242190455E+02  0.11083494242E+03  0.13726137022E+03  0.00000000000E+00 0. -1.
         22    1    3    3    0    0  0.15550837450E+03  0.76508577097E+02  0.71277288154E+03  0.73354045394E+03  0.00000000000E+00 0. -1.
</event>
<event>
 7    1  0.6358809E-006  0.7355964E+02  0.7818608E-02  0.1431551E+00
          2   -1    0    0  502    0  0.00000000000E+00  0.00000000000E+00  0.41991564213E+03  0.41991564213E+03  0.00000000000E+00 0. -1.
          1   -1    0    0  501    0 -0.00000000000E+00 -0.00000000000E+00 -0.61431523358E+02  0.61431523358E+02  0.00000000000E+00 0. -1.
         25    2    1    2    0    0 -0.99745869085E+02  0.98632703644E+01  0.11585449527E+03  0.19772205182E+03  0.12500089279E+03 0.  0.
          2    1    1    2  501    0  0.62498272273E+02 -0.15581532835E+02  0.36408520953E+02  0.73989178942E+02  0.00000000000E+00 0. -1.
          1    1    1    2  502    0  0.37247596812E+02  0.57182624705E+01  0.20622110255E+03  0.20963593473E+03  0.00000000000E+00 0. -1.
         22    1    3    3    0    0 -0.52232185507E+02  0.40722410250E+02 -0.27422922405E+01  0.66287525721E+02  0.00000000000E+00 0. -1.
         22    1    3    3    0    0 -0.47513683578E+02 -0.30859139886E+02  0.11859678752E+03  0.13143452610E+03  0.00000000000E+00 0. -1.
</event>
<event>
 7    1  0.6358809E-006  0.1368617E+03  0.7818608E-02  0.1321967E+00
          2   -1    0    0  502    0  0.00000000000E+00  0.00000000000E+00  0.31807433286E+03  0.31807433286E+03  0.00000000000E+00 0. -1.
          1   -1    0    0  501    0 -0.00000000000E+00 -0.00000000000E+00 -0.29880615688E+03  0.29880615688E+03  0.00000000000E+00 0. -1.
         25    2    1    2    0    0 -0.25333022670E+01 -0.12523655651E+03  0.19250562973E+03  0.26148328075E+03  0.12499790368E+03 0.  0.
          2    1    1    2  501    0  0.33152269431E+02 -0.37149202421E+02 -0.18320414157E+03  0.18984966078E+03  0.00000000000E+00 0. -1.
          1    1    1    2  502    0 -0.30618967164E+02  0.16238575893E+03  0.99666878180E+01  0.16554754822E+03  0.00000000000E+00 0. -1.
         22    1    3    3    0    0 -0.44171958477E+02 -0.89168797920E+02  0.17894278035E+03  0.20475047027E+03  0.00000000000E+00 0.  1.
         22    1    3    3    0    0  0.41638656210E+02 -0.36067758592E+02  0.13562849381E+02  0.56732810473E+02  0.00000000000E+00 0.  1.
</event>
<event>
 7    1  0.6358809E-006  0.7361369E+02  0.7818608E-02  0.1389712E+00
          2   -1    0    0  502    0  0.00000000000E+00  0.00000000000E+00  0.10754425309E+03  0.10754425309E+03  0.00000000000E+00 0. -1.
          1   -1    0    0  501    0 -0.00000000000E+00 -0.00000000000E+00 -0.55522141871E+03  0.55522141871E+03  0.00000000000E+00 0. -1.
         25    2    1    2    0    0  0.64310990156E+02 -0.39163559487E+02 -0.29613878826E+02  0.14890342478E+03  0.12500224096E+03 0.  0.
          2    1    1    2  501    0 -0.39161024734E+02 -0.34487670801E+02 -0.43170629097E+03  0.43484860234E+03  0.00000000000E+00 0. -1.
          1    1    1    2  502    0 -0.25149965423E+02  0.73651230288E+02  0.13643004170E+02  0.79013644685E+02  0.00000000000E+00 0. -1.
         22    1    3    3    0    0 -0.22360275962E+02 -0.41914845146E+02  0.16996920783E+02  0.50455242551E+02  0.00000000000E+00 0. -1.
         22    1    3    3    0    0  0.86671266119E+02  0.27512856594E+01 -0.46610799609E+02  0.98448182226E+02  0.00000000000E+00 0. -1.
</event>
<event>
 7    1  0.6358809E-006  0.8840730E+02  0.7818608E-02  0.1491550E+00
          2   -1    0    0  502    0  0.00000000000E+00  0.00000000000E+00  0.22765387635E+03  0.22765387635E+03  0.00000000000E+00 0. -1.
          1   -1    0    0  501    0 -0.00000000000E+00 -0.00000000000E+00 -0.86397422607E+03  0.86397422607E+03  0.00000000000E+00 0. -1.
         25    2    1    2    0    0 -0.49546177110E+02  0.80306290427E+02 -0.36463557903E+03  0.39685556961E+03  0.12502525219E+03 0.  0.
          2    1    1    2  501    0 -0.11639945135E+02 -0.16623589088E+02 -0.47378493479E+03  0.47421935480E+03  0.00000000000E+00 0. -1.
          1    1    1    2  502    0  0.61186122245E+02 -0.63682701338E+02  0.20210016410E+03  0.22055317802E+03  0.00000000000E+00 0. -1.
         22    1    3    3    0    0 -0.45734076857E+02  0.85863819823E+02 -0.13125190573E+03  0.16337461277E+03  0.00000000000E+00 0.  1.
         22    1    3    3    0    0 -0.38121002537E+01 -0.55575293966E+01 -0.23338367330E+03  0.23348095683E+03  0.00000000000E+00 0.  1.
</event>
<event>
 7    1  0.6358809E-006  0.9526404E+02  0.7818608E-02  0.1427457E+00
          2   -1    0    0  502    0  0.00000000000E+00  0.00000000000E+00  0.27949281141E+04  0.27949281141E+04  0.00000000000E+00 0. -1.
          1   -1    0    0  501    0 -0.00000000000E+00 -0.00000000000E+00 -0.94443428817E+03  0.94443428817E+03  0.00000000000E+00 0. -1.
         25    2    1    2    0    0 -0.83290605166E+02  0.92539321721E+02  0.71816884717E+03  0.73952542013E+03  0.12502201003E+03 0.  0.
          2    1    1    2  501    0  0.67687127595E+02 -0.66897670916E+02 -0.93122172910E+03  0.93607198140E+03  0.00000000000E+00 0. -1.
          1    1    1    2  502    0  0.15603477571E+02 -0.25641650806E+02  0.20635467079E+04  0.20637650008E+04  0.00000000000E+00 0. -1.
         22    1    3    3    0    0 -0.10909936084E+03  0.43693941816E+02  0.41297554537E+03  0.42937237005E+03  0.00000000000E+00 0. -1.
         22    1    3    3    0    0  0.25808755679E+02  0.48845379906E+02  0.30519330181E+03  0.31015305008E+03  0.00000000000E+00 0. -1.
</event>
<event>
 7    1  0.6358809E-006  0.6279061E+02  0.7818608E-02  0.1443679E+00
          2   -1    0    0  502    0  0.00000000000E+00  0.00000000000E+00  0.46393788163E+04  0.46393788163E+04  0.00000000000E+00 0. -1.
          1   -1    0    0  501    0 -0.00000000000E+00 -0.00000000000E+00 -0.10119091418E+02  0.10119091418E+02  0.00000000000E+00 0. -1.
         25    2    1    2    0    0 -0.54730581519E+02  0.82463954021E+02  0.12458549083E+04  0.12560155144E+04  0.12499911787E+03 0.  0.
          2    1    1    2  501    0  0.30109072854E+02 -0.26800797040E+02  0.80608517469E+02  0.90125313196E+02  0.00000000000E+00 0. -1.
          1    1    1    2  502    0  0.24621508665E+02 -0.55663156981E+02  0.33027962991E+04  0.33033570802E+04  0.00000000000E+00 0. -1.
         22    1    3    3    0    0 -0.11182468560E+02  0.83999555878E+02  0.11124797899E+04  0.11157025840E+04  0.00000000000E+00 0. -1.
         22    1    3    3    0    0 -0.43548112959E+02 -0.15356018573E+01  0.13337511840E+03  0.14031293035E+03  0.00000000000E+00 0. -1.
</event>
<event>
 7    1  0.6358809E-006  0.1904571E+03  0.7818608E-02  0.1369483E+00
          2   -1    0    0  502    0  0.00000000000E+00  0.00000000000E+00  0.91335678503E+03  0.91335678503E+03  0.00000000000E+00 0. -1.
          1   -1    0    0  501    0 -0.00000000000E+00 -0.00000000000E+00 -0.15184685896E+04  0.15184685896E+04  0.00000000000E+00 0. -1.
         25    2    1    2    0    0  0.18985579426E+03  0.28091695448E+02 -0.13500073559E+03  0.26586378136E+03  0.12499594259E+03 0.  0.
          2    1    1    2  501    0 -0.18348472236E+03 -0.51011723646E+02 -0.13109879020E+04  0.13247483227E+04  0.00000000000E+00 0. -1.
          1    1    1    2  502    0 -0.63710718969E+01  0.22920028198E+02  0.84087683303E+03  0.84121327057E+03  0.00000000000E+00 0. -1.
         22    1    3    3    0    0  0.20091279285E+03  0.15362143837E+02 -0.14311528010E+03  0.24715163198E+03  0.00000000000E+00 0.  1.
         22    1    3    3    0    0 -0.11056998588E+02  0.12729551611E+02  0.81145445061E+01  0.18712149383E+02  0.00000000000E+00 0.  1.
</event>
<event>
 7    1  0.6358809E-006  0.1205901E+03  0.7818608E-02  0.1262854E+00
          2   -1    0    0  502    0  0.00000000000E+00  0.00000000000E+00  0.33734239353E+03  0.33734239353E+03  0.00000000000E+00 0. -1.
          1   -1    0    0  501    0 -0.00000000000E+00 -0.00000000000E+00 -0.73978280071E+03  0.73978280071E+03  0.00000000000E+00 0. -1.
         25    2    1    2    0    0 -0.71236340416E+02  0.15508519980E+03 -0.45798394387E+02  0.21644424629E+03  0.12499833371E+03 0.  0.
          2    1    1    2  501    0 -0.19353753750E+02 -0.11739223722E+03 -0.59297286213E+03  0.60479113780E+03  0.00000000000E+00 0. -1.
          1    1    1    2  502    0  0.90590094166E+02 -0.37692962587E+02  0.23633084934E+03  0.25588981015E+03  0.00000000000E+00 0. -1.
         22    1    3    3    0    0 -0.10225275308E+03  0.11160436453E+03 -0.90920012061E+01  0.15163714644E+03  0.00000000000E+00 0.  1.
         22    1    3    3    0    0  0.31016412666E+02  0.43480835276E+02 -0.36706393181E+02  0.64807099852E+02  0.00000000000E+00 0.  1.
</event>
<event>
 7    1  0.6358809E-006  0.1065453E+03  0.7818608E-02  0.1384397E+00
          2   -1    0    0  502    0  0.00000000000E+00  0.00000000000E+00  0.14954799170E+03  0.14954799170E+03  0.00000000000E+00 0. -1.
          1   -1    0    0  501    0 -0.00000000000E+00 -0.00000000000E+00 -0.39445447391E+03  0.39445447391E+03  0.00000000000E+00 0. -1.
         25    2    1    2    0    0  0.45764784929E+02 -0.11610240710E+03 -0.14364751091E+03  0.22767026521E+03  0.12499983118E+03 0.  0.
          2    1    1    2  501    0 -0.11122686138E+02  0.10139878126E+03 -0.19237703330E+03  0.21774836378E+03  0.00000000000E+00 0. -1.
          1    1    1    2  502    0 -0.34642098791E+02  0.14703625848E+02  0.91118061997E+02  0.98583836626E+02  0.00000000000E+00 0. -1.
         22    1    3    3    0    0 -0.42192908144E+02 -0.43297828925E+02 -0.33965790712E+02  0.69344202540E+02  0.00000000000E+00 0. -1.
         22    1    3    3    0    0  0.87957693072E+02 -0.72804578179E+02 -0.10968172020E+03  0.15832606267E+03  0.00000000000E+00 0. -1.
</event>
<event>
 7    1  0.9553713E-006  0.1532092E+03  0.7818608E-02  0.1274189E+00
          2   -1    0    0  502    0  0.00000000000E+00  0.00000000000E+00  0.19634362257E+04  0.19634362257E+04  0.00000000000E+00 0. -1.
          1   -1    0    0  501    0 -0.00000000000E+00 -0.00000000000E+00 -0.10298347165E+04  0.10298347165E+04  0.00000000000E+00 0. -1.
         25    2    1    2    0    0  0.70118687974E+02 -0.19512745625E+03 -0.20517542050E+03  0.31735154240E+03  0.12499477470E+03 0.  0.
          2    1    1    2  501    0 -0.53935275280E+02  0.43344113991E+02 -0.76395117550E+03  0.76707830414E+03  0.00000000000E+00 0. -1.
          1    1    1    2  502    0 -0.16183412694E+02  0.15178334225E+03  0.19027281053E+04  0.19088410956E+04  0.00000000000E+00 0. -1.
         22    1    3    3    0    0  0.32368855770E+02 -0.17531422989E+03 -0.20881135726E+03  0.27456329862E+03  0.00000000000E+00 0. -1.
         22    1    3    3    0    0  0.37749832204E+02 -0.19813226352E+02  0.36359367590E+01  0.42788243783E+02  0.00000000000E+00 0. -1.
</event>
<event>
 7    1  0.6358809E-006  0.1358838E+03  0.7818608E-02  0.1370946E+00
          2   -1    0    0  502    0  0.00000000000E+00  0.00000000000E+00  0.74582455759E+02  0.74582455759E+02  0.00000000000E+00 0. -1.
          1   -1    0    0  501    0 -0.00000000000E+00 -0.00000000000E+00 -0.67299428388E+03  0.67299428388E+03  0.00000000000E+00 0. -1.
         25    2    1    2    0    0  0.80163630744E+02  0.13878218456E+03 -0.22787830617E+03  0.30535225863E+03  0.12499910794E+03 0.  0.
          2    1    1    2  501    0 -0.55698988129E+02 -0.11672224509E+03 -0.38507698791E+03  0.40621514792E+03  0.00000000000E+00 0. -1.
          1    1    1    2  502    0 -0.24464642614E+02 -0.22059939465E+02  0.14543465961E+02  0.36009333090E+02  0.00000000000E+00 0. -1.
         22    1    3    3    0    0  0.44452459285E+02  0.57937865392E+02 -0.14578338896E+02  0.74467075594E+02  0.00000000000E+00 0. -1.
         22    1    3    3    0    0  0.35711171459E+02  0.80844319164E+02 -0.21329996727E+03  0.23088518304E+03  0.00000000000E+00 0. -1.
</event>
<event>
 7    1  0.6358809E-006  0.1426610E+03  0.7818608E-02  0.1349513E+00
          2   -1    0    0  502    0  0.00000000000E+00  0.00000000000E+00  0.26871122047E+04  0.26871122047E+04  0.00000000000E+00 0. -1.
          1   -1    0    0  501    0 -0.00000000000E+00 -0.00000000000E+00 -0.16999452979E+04  0.16999452979E+04  0.00000000000E+00 0. -1.
         25    2    1    2    0    0 -0.87468747934E+02  0.12680173999E+03  0.12492547246E+04  0.12649079943E+04  0.12500161618E+03 0.  0.
          2    1    1    2  501    0  0.37456214977E+02  0.28852444675E+01 -0.16885316989E+04  0.16889495525E+04  0.00000000000E+00 0. -1.
          1    1    1    2  502    0  0.50012532957E+02 -0.12968698446E+03  0.14264438811E+04  0.14331999558E+04  0.00000000000E+00 0. -1.
         22    1    3    3    0    0 -0.17452753098E+02  0.81822951238E+02  0.96776658415E+03  0.97137621720E+03  0.00000000000E+00 0. -1.
         22    1    3    3    0    0 -0.70015994836E+02  0.44978788756E+02  0.28148814043E+03  0.29353177711E+03  0.00000000000E+00 0. -1.
</event>
<event>
 7    1  0.6358809E-006  0.8087196E+02  0.7818608E-02  0.1336773E+00
          2   -1    0    0  502    0  0.00000000000E+00  0.00000000000E+00  0.90933160242E+02  0.90933160242E+02  0.00000000000E+00 0. -1.
          1   -1    0    0  501    0 -0.00000000000E+00 -0.00000000000E+00 -0.20710997718E+04  0.20710997718E+04  0.00000000000E+00 0. -1.
         25    2    1    2    0    0 -0.33801387680E+02  0.37808367257E+02 -0.55259078344E+03  0.56881796917E+03  0.12500120666E+03 0.  0.
          2    1    1    2  501    0 -0.21850694149E+02 -0.86526132284E+02 -0.14922786669E+04  0.14949447629E+04  0.00000000000E+00 0. -1.
          1    1    1    2  502    0  0.55652081829E+02  0.48717765028E+02  0.64702838832E+02  0.98270199930E+02  0.00000000000E+00 0. -1.
         22    1    3    3    0    0 -0.34292192411E+02  0.60397118985E+02 -0.14682217738E+03  0.16242080598E+03  0.00000000000E+00 0.  1.
         22    1    3    3    0    0  0.49080473068E+00 -0.22588751728E+02 -0.40576860605E+03  0.40639716319E+03  0.00000000000E+00 0.  1.
</event>
<event>
 7    1  0.6358809E-006  0.8066858E+02  0.7818608E-02  0.1431796E+00
          2   -1    0    0  502    0  0.00000000000E+00  0.00000000000E+00  0.88043753140E+03  0.88043753140E+03  0.00000000000E+00 0. -1.
          1   -1    0    0  501    0 -0.00000000000E+00 -0.00000000000E+00 -0.12081669957E+04  0.12081669957E+04  0.00000000000E+00 0. -1.
         25    2    1    2    0    0 -0.63485879717E+02 -0.47082604718E+02  0.39804996089E+03  0.42463656096E+03  0.12500083579E+03 0.  0.
          2    1    1    2  501    0  0.23317140230E+02 -0.25154787878E+02 -0.11909839440E+04  0.11914777410E+04  0.00000000000E+00 0. -1.
          1    1    1    2  502    0  0.40168739487E+02  0.72237392596E+02  0.46520451883E+03  0.47249022515E+03  0.00000000000E+00 0. -1.
         22    1    3    3    0    0 -0.78432689626E+02 -0.73995775339E+02  0.35938521850E+03  0.37521300196E+03  0.00000000000E+00 0. -1.
         22    1    3    3    0    0  0.14946809909E+02  0.26913170621E+02  0.38664742392E+02  0.49423558993E+02  0.00000000000E+00 0. -1.
</event>
<event>
 7    1  0.6358809E-006  0.6102610E+02  0.7818608E-02  0.1424368E+00
          2   -1    0    0  502    0  0.00000000000E+00  0.00000000000E+00  0.12161718925E+04  0.12161718925E+04  0.00000000000E+00 0. -1.
          1   -1    0    0  501    0 -0.00000000000E+00 -0.00000000000E+00 -0.63054644577E+03  0.63054644577E+03  0.00000000000E+00 0. -1.
         25    2    1    2    0    0 -0.92786247400E+01 -0.22026743658E+02  0.29509082565E+03  0.32136463068E+03  0.12500144061E+03 0.  0.
          2    1    1    2  501    0 -0.24427780213E+02  0.56163317994E+02 -0.61525436524E+03  0.61829521159E+03  0.00000000000E+00 0. -1.
          1    1    1    2  502    0  0.33706404953E+02 -0.34136574336E+02  0.90578898631E+03  0.90705849599E+03  0.00000000000E+00 0. -1.
         22    1    3    3    0    0 -0.36423353425E+02  0.43093375808E+02  0.14198908688E+03  0.15278939920E+03  0.00000000000E+00 0. -1.
         22    1    3    3    0    0  0.27144728685E+02 -0.65120119466E+02  0.15310173877E+03  0.16857523148E+03  0.00000000000E+00 0. -1.
</event>
<event>
 7    1  0.6358809E-006  0.7296344E+02  0.7818608E-02  0.1462652E+00
          2   -1    0    0  502    0  0.00000000000E+00  0.00000000000E+00  0.11692866121E+04  0.11692866121E+04  0.00000000000E+00 0. -1.
          1   -1    0    0  501    0 -0.00000000000E+00 -0.00000000000E+00 -0.46618736068E+03  0.46618736068E+03  0.00000000000E+00 0. -1.
         25    2    1    2    0    0  0.46137580269E+02  0.62785809645E+02  0.13452639303E+02  0.14790934736E+03  0.12500186929E+03 0.  0.
          2    1    1    2  501    0 -0.62627940175E+02 -0.37505915612E+02 -0.39540810560E+03  0.40209019208E+03  0.00000000000E+00 0. -1.
          1    1    1    2  502    0  0.16490359907E+02 -0.25279894032E+02  0.10850547177E+04  0.10854744333E+04  0.00000000000E+00 0. -1.
         22    1    3    3    0    0  0.27245750029E+02 -0.25405752978E+02 -0.29966737169E+02  0.47809920681E+02  0.00000000000E+00 0. -1.
         22    1    3    3    0    0  0.18891830240E+02  0.88191562622E+02  0.43419376472E+02  0.10009942668E+03  0.00000000000E+00 0. -1.
</event>
<event>
 7    1  0.6358809E-006  0.1162332E+03  0.7818608E-02  0.1361074E+00
          2   -1    0    0  502    0  0.00000000000E+00  0.00000000000E+00  0.91013596180E+03  0.91013596180E+03  0.00000000000E+00 0. -1.
          1   -1    0    0  501    0 -0.00000000000E+00 -0.00000000000E+00 -0.87292563991E+03  0.87292563991E+03  0.00000000000E+00 0. -1.
         25    2    1    2    0    0  0.56508559616E+02  0.13104998818E+03 -0.96076999266E+02  0.21265778223E+03  0.12500090337E+03 0.  0.
          2    1    1    2  501    0 -0.69160350367E+02 -0.91199179561E+02 -0.71348127160E+03  0.72260360457E+03  0.00000000000E+00 0. -1.
          1    1    1    2  502    0  0.12651790750E+02 -0.39850808619E+02  0.84676859274E+03  0.84780021492E+03  0.00000000000E+00 0. -1.
         22    1    3    3    0    0 -0.22626038543E+02  0.29984079315E+02 -0.73198044270E+02  0.82273545672E+02  0.00000000000E+00 0.  1.
         22    1    3    3    0    0  0.79134598160E+02  0.10106590886E+03 -0.22878954996E+02  0.13038423656E+03  0.00000000000E+00 0.  1.
</event>
<event>
 7    1  0.6358809E-006  0.7522395E+02  0.7818608E-02  0.1365702E+00
          2   -1    0    0  502    0  0.00000000000E+00  0.00000000000E+00  0.21339210264E+03  0.21339210264E+03  0.00000000000E+00 0. -1.
          1   -1    0    0  501    0 -0.00000000000E+00 -0.00000000000E+00 -0.12216008440E+04  0.12216008440E+04  0.00000000000E+00 0. -1.
         25    2    1    2    0    0  0.12126923872E+03  0.57394337440E+02 -0.28880279000E+03  0.34210160613E+03  0.12500447662E+03 0.  0.
          2    1    1    2  501    0 -0.65682113052E+02 -0.29590868274E+02 -0.89949685161E+03  0.90237705285E+03  0.00000000000E+00 0. -1.
          1    1    1    2  502    0 -0.55587125671E+02 -0.27803469166E+02  0.18009090026E+03  0.19051428764E+03  0.00000000000E+00 0. -1.
         22    1    3    3    0    0  0.77774789358E+02  0.35919436805E+02 -0.27998688341E+03  0.29279989529E+03  0.00000000000E+00 0.  1.
         22    1    3    3    0    0  0.43494449364E+02  0.21474900635E+02 -0.88159065908E+01  0.49301710841E+02  0.00000000000E+00 0.  1.
</event>
<event>
 7    1  0.6358809E-006  0.6492938E+02  0.7818608E-02  0.1400195E+00
          2   -1    0    0  502    0  0.00000000000E+00  0.00000000000E+00  0.22368351779E+04  0.22368351779E+04  0.00000000000E+00 0. -1.
          1   -1    0    0  501    0 -0.00000000000E+00 -0.00000000000E+00 -0.93034939692E+03  0.93034939692E+03  0.00000000000E+00 0. -1.
         25    2    1    2    0    0  0.10737050655E+03 -0.49242603754E+02  0.26827462053E+03  0.31866948074E+03  0.12500282489E+03 0.  0.
          2    1    1    2  501    0 -0.50494187445E+02  0.20282920662E+02 -0.90380939982E+03  0.90544601774E+03  0.00000000000E+00 0. -1.
          1    1    1    2  502    0 -0.56876319105E+02  0.28959683092E+02  0.19420205603E+04  0.19430690763E+04  0.00000000000E+00 0. -1.
         22    1    3    3    0    0  0.11818582988E+03  0.34059558119E+01  0.18363270719E+03  0.21840435451E+03  0.00000000000E+00 0. -1.
         22    1    3    3    0    0 -0.10815323327E+02 -0.52648559566E+02  0.84641913341E+02  0.10026512623E+03  0.00000000000E+00 0. -1.
</event>
<event>
 7    1  0.6358809E-006  0.1523695E+03  0.7818608E-02  0.1207141E+00
          2   -1    0    0  502    0  0.00000000000E+00  0.00000000000E+00  0.74869367620E+03  0.74869367620E+03  0.00000000000E+00 0. -1.
          1   -1    0    0  501    0 -0.00000000000E+00 -0.00000000000E+00 -0.17251046939E+04  0.17251046939E+04  0.00000000000E+00 0. -1.
         25    2    1    2    0    0 -0.44962200946E+02 -0.26347604858E+03 -0.10343607677E+03  0.31267125822E+03  0.12499226397E+03 0.  0.
          2    1    1    2  501    0 -0.28135746039E+02  0.13450522691E+03 -0.15053495012E+04  0.15116085462E+04  0.00000000000E+00 0. -1.
          1    1    1    2  502    0  0.73097946985E+02  0.12897082167E+03  0.63237456025E+03  0.64951856567E+03  0.00000000000E+00 0. -1.
         22    1    3    3    0    0  0.20128943913E+02 -0.17529365983E+03 -0.25719228292E+02  0.17831017993E+03  0.00000000000E+00 0.  1.
         22    1    3    3    0    0 -0.65091144859E+02 -0.88182388741E+02 -0.77716848481E+02  0.13436107830E+03  0.00000000000E+00 0.  1.
</event>
<event>
 7    1  0.6358809E-006  0.1219421E+03  0.7818608E-02  0.1287442E+00
          2   -1    0    0  502    0  0.00000000000E+00  0.00000000000E+00  0.73164881798E+03  0.73164881798E+03  0.00000000000E+00 0. -1.
          1   -1    0    0  501    0 -0.00000000000E+00 -0.00000000000E+00 -0.23544984359E+03  0.23544984359E+03  0.00000000000E+00 0. -1.
         25    2    1    2    0    0 -0.69735902630E+01  0.67810526281E+02  0.54670400103E+02  0.15250184998E+03  0.12498425167E+03 0.  0.
          2    1    1    2  501    0 -0.64543232516E+02  0.41339401897E+02 -0.17149205371E+03  0.18784115496E+03  0.00000000000E+00 0. -1.
          1    1    1    2  502    0  0.71516822779E+02 -0.10914992818E+03  0.61302062799E+03  0.62675565662E+03  0.00000000000E+00 0. -1.
         22    1    3    3    0    0  0.24643644945E+02  0.89857572202E+02  0.63755968155E+02  0.11290046941E+03  0.00000000000E+00 0. -1.
         22    1    3    3    0    0 -0.31617235208E+02 -0.22047045922E+02 -0.90855680523E+01  0.39601380568E+02  0.00000000000E+00 0. -1.
</event>
<event>
 7    1  0.6358809E-006  0.1256186E+03  0.7818608E-02  0.1392881E+00
          2   -1    0    0  502    0  0.00000000000E+00  0.00000000000E+00  0.12951256947E+04  0.12951256947E+04  0.00000000000E+00 0. -1.
          1   -1    0    0  501    0 -0.00000000000E+00 -0.00000000000E+00 -0.15242633008E+04  0.15242633008E+04  0.00000000000E+00 0. -1.
         25    2    1    2    0    0  0.14104925911E+03 -0.61419796398E+02 -0.12192380104E+03  0.23271432553E+03  0.12499303645E+03 0.  0.
          2    1    1    2  501    0 -0.11280847631E+03  0.51869967657E+02 -0.13439028835E+04  0.13496263210E+04  0.00000000000E+00 0. -1.
          1    1    1    2  502    0 -0.28240782797E+02  0.95498287405E+01  0.12366890784E+04  0.12370483490E+04  0.00000000000E+00 0. -1.
         22    1    3    3    0    0  0.91958473738E+02  0.23109275981E+02 -0.87667492303E+02  0.12913554404E+03  0.00000000000E+00 0.  1.
         22    1    3    3    0    0  0.49090785372E+02 -0.84529072379E+02 -0.34256308735E+02  0.10357878148E+03  0.00000000000E+00 0.  1.
</event>
<event>
 7    1  0.6358809E-006  0.7527774E+02  0.7818608E-02  0.1350351E+00
          2   -1    0    0  502    0  0.00000000000E+00  0.00000000000E+00  0.18123197616E+04  0.18123197616E+04  0.00000000000E+00 0. -1.
          1   -1    0    0  501    0 -0.00000000000E+00 -0.00000000000E+00 -0.34564173015E+03  0.34564173015E+03  0.00000000000E+00 0. -1.
         25    2    1    2    0    0 -0.14890365569E+02  0.14694987096E+02  0.15466962292E+03  0.19996718055E+03  0.12500606149E+03 0.  0.
          2    1    1    2  501    0 -0.25654347477E+02 -0.72598778311E+02 -0.31762696121E+03  0.32682658191E+03  0.00000000000E+00 0. -1.
          1    1    1    2  502    0  0.40544713046E+02  0.57903791215E+02  0.16296353697E+04  0.16311677293E+04  0.00000000000E+00 0. -1.
         22    1    3    3    0    0  0.12654888451E+02  0.44213747540E+02  0.15277654894E+03  0.15954834872E+03  0.00000000000E+00 0.  1.
         22    1    3    3    0    0 -0.27545254020E+02 -0.29518760444E+02  0.18930739823E+01  0.40418831827E+02  0.00000000000E+00 0.  1.
</event>
<event>
 7    1  0.6358809E-006  0.2678136E+03  0.7818608E-02  0.1271534E+00
          2   -1    0    0  502    0  0.00000000000E+00  0.00000000000E+00  0.14639455954E+04  0.14639455954E+04  0.00000000000E+00 0. -1.
          1   -1    0    0  501    0 -0.00000000000E+00 -0.00000000000E+00 -0.61909744945E+03  0.61909744945E+03  0.00000000000E+00 0. -1.
         25    2    1    2    0    0  0.25578849408E+03 -0.13727935948E+02  0.21401734844E+03  0.35643449005E+03  0.12500364128E+03 0.  0.
          2    1    1    2  501    0  0.97894764602E+01 -0.39410419432E+02 -0.53154593578E+03  0.53309482914E+03  0.00000000000E+00 0. -1.
          1    1    1    2  502    0 -0.26557797054E+03  0.53138355380E+02  0.11623767333E+04  0.11935137257E+04  0.00000000000E+00 0. -1.
         22    1    3    3    0    0  0.98420837749E+02  0.52487412624E+02  0.10919204192E+03  0.15609129318E+03  0.00000000000E+00 0.  1.
         22    1    3    3    0    0  0.15736765633E+03 -0.66215348572E+02  0.10482530652E+03  0.20034319687E+03  0.00000000000E+00 0.  1.
</event>
<event>
 7    1  0.6358809E-006  0.8320272E+02  0.7818608E-02  0.1436165E+00
          2   -1    0    0  502    0  0.00000000000E+00  0.00000000000E+00  0.12981425682E+04  0.12981425682E+04  0.00000000000E+00 0. -1.
          1   -1    0    0  501    0 -0.00000000000E+00 -0.00000000000E+00 -0.25882360044E+03  0.25882360044E+03  0.00000000000E+00 0. -1.
         25    2    1    2    0    0 -0.43361954320E+02 -0.35666836692E+02  0.16894552438E+03  0.21753303845E+03  0.12500260112E+03 0.  0.
          2    1    1    2  501    0  0.75482434354E+02  0.37579601357E+02 -0.22670751749E+03  0.24188038949E+03  0.00000000000E+00 0. -1.
          1    1    1    2  502    0 -0.32120480034E+02 -0.19127646647E+01  0.10970809609E+04  0.10975527407E+04  0.00000000000E+00 0. -1.
         22    1    3    3    0    0 -0.47241216602E+02 -0.24703442448E+02  0.18788850436E+03  0.19530510153E+03  0.00000000000E+00 0. -1.
         22    1    3    3    0    0  0.38792622819E+01 -0.10963394244E+02 -0.18942979978E+02  0.22227936919E+02  0.00000000000E+00 0. -1.
</event>
<event>
 7    1  0.6358809E-006  0.2565341E+03  0.7818608E-02  0.1132140E+00
          2   -1    0    0  502    0  0.00000000000E+00  0.00000000000E+00  0.27795517827E+04  0.27795517827E+04  0.00000000000E+00 0. -1.
          1   -1    0    0  501    0 -0.00000000000E+00 -0.00000000000E+00 -0.11148080634E+03  0.11148080634E+03  0.00000000000E+00 0. -1.
         25    2    1    2    0    0  0.19173816774E+03  0.48177272662E+02  0.73736323447E+03  0.77357201253E+03  0.12499817779E+03 0.  0.
          2    1    1    2  501    0 -0.16142837385E+03 -0.23850801043E+03  0.14695832251E+03  0.32332945965E+03  0.00000000000E+00 0. -1.
          1    1    1    2  502    0 -0.30309793890E+02  0.19033073777E+03  0.17837494194E+04  0.17941311169E+04  0.00000000000E+00 0. -1.
         22    1    3    3    0    0  0.12332857511E+03  0.81242200161E+02  0.58447403048E+03  0.60284336675E+03  0.00000000000E+00 0.  1.
         22    1    3    3    0    0  0.68409592624E+02 -0.33064927499E+02  0.15288920399E+03  0.17072864578E+03  0.00000000000E+00 0.  1.
</event>
<event>
 7    1  0.6358809E-006  0.7438929E+02  0.7818608E-02  0.1371369E+00
          2   -1    0    0  502    0  0.00000000000E+00  0.00000000000E+00  0.11835351846E+04  0.11835351846E+04  0.00000000000E+00 0. -1.
          1   -1    0    0  501    0 -0.00000000000E+00 -0.00000000000E+00 -0.20212876984E+02  0.20212876984E+02  0.00000000000E+00 0. -1.
         25    2    1    2    0    0 -0.63519085973E+01 -0.29094640829E+02  0.41668973948E+03  0.43605229410E+03  0.12499767730E+03 0.  0.
          2    1    1    2  501    0 -0.29458088166E+02 -0.52228935897E+02  0.11357729132E+03  0.12843458182E+03  0.00000000000E+00 0. -1.
          1    1    1    2  502    0  0.35809996763E+02  0.81323576726E+02  0.63305527678E+03  0.63926118563E+03  0.00000000000E+00 0. -1.
         22    1    3    3    0    0 -0.27332784476E+02  0.36111345450E+02  0.75396774709E+02  0.87953305873E+02  0.00000000000E+00 0. -1.
         22    1    3    3    0    0  0.20980875879E+02 -0.65205986279E+02  0.34129296477E+03  0.34809898823E+03  0.00000000000E+00 0. -1.
</event>
<event>
 7    1  0.6358809E-006  0.5488667E+02  0.7818608E-02  0.1502791E+00
          2   -1    0    0  502    0  0.00000000000E+00  0.00000000000E+00  0.15884896375E+04  0.15884896375E+04  0.00000000000E+00 0. -1.
          1   -1    0    0  501    0 -0.00000000000E+00 -0.00000000000E+00 -0.29715739698E+03  0.29715739698E+03  0.00000000000E+00 0. -1.
         25    2    1    2    0    0  0.37933696242E+02  0.59267059597E+02 -0.10147693311E+03  0.17570087960E+03  0.12498672520E+03 0.  0.
          2    1    1    2  501    0 -0.29830178564E+02 -0.50150290345E+01 -0.15663614688E+03  0.15953016197E+03  0.00000000000E+00 0. -1.
          1    1    1    2  502    0 -0.81035176778E+01 -0.54252030562E+02  0.15494453205E+04  0.15504159929E+04  0.00000000000E+00 0. -1.
         22    1    3    3    0    0  0.31775653450E+02 -0.35537404841E+02 -0.25570795742E+02  0.54096810349E+02  0.00000000000E+00 0.  1.
         22    1    3    3    0    0  0.61580427919E+01  0.94804464438E+02 -0.75906137364E+02  0.12160406925E+03  0.00000000000E+00 0.  1.
</event>
<event>
 7    1  0.6358809E-006  0.1159943E+03  0.7818608E-02  0.1305297E+00
          2   -1    0    0  502    0  0.00000000000E+00  0.00000000000E+00  0.33254305691E+04  0.33254305691E+04  0.00000000000E+00 0. -1.
          1   -1    0    0  501    0 -0.00000000000E+00 -0.00000000000E+00 -0.29415018946E+02  0.29415018946E+02  0.00000000000E+00 0. -1.
         25    2    1    2    0    0  0.61881907474E+02  0.55740898879E+02  0.16363293301E+04  0.16432087181E+04  0.12499918541E+03 0.  0.
          2    1    1    2  501    0  0.63780630136E+02  0.24388502395E+02  0.29054804776E+02  0.74208823668E+02  0.00000000000E+00 0. -1.
          1    1    1    2  502    0 -0.12566253761E+03 -0.80129401274E+02  0.16306314153E+04  0.16374280463E+04  0.00000000000E+00 0. -1.
         22    1    3    3    0    0  0.43224978015E+02  0.30926075920E+01  0.13879468946E+04  0.13886232553E+04  0.00000000000E+00 0.  1.
         22    1    3    3    0    0  0.18656929459E+02  0.52648291287E+02  0.24838243555E+03  0.25458546283E+03  0.00000000000E+00 0.  1.
</event>
<event>
 7    1  0.6358809E-006  0.6260933E+02  0.7818608E-02  0.1516376E+00
          2   -1    0    0  502    0  0.00000000000E+00  0.00000000000E+00  0.50591018608E+03  0.50591018608E+03  0.00000000000E+00 0. -1.
          1   -1    0    0  501    0 -0.00000000000E+00 -0.00000000000E+00 -0.34172098278E+03  0.34172098278E+03  0.00000000000E+00 0. -1.
         25    2    1    2    0    0  0.56180538419E+02 -0.64759511119E+02  0.42987727108E+03  0.45581738088E+03  0.12499987740E+03 0.  0.
          2    1    1    2  501    0 -0.36537225746E+02  0.50653055328E+02 -0.32332863602E+03  0.32930549304E+03  0.00000000000E+00 0. -1.
          1    1    1    2  502    0 -0.19643312673E+02  0.14106455791E+02  0.57640568246E+02  0.62508294934E+02  0.00000000000E+00 0. -1.
         22    1    3    3    0    0 -0.15457797437E+02  0.17161630631E+02  0.16577675569E+02  0.28430342854E+02  0.00000000000E+00 0. -1.
         22    1    3    3    0    0  0.71638335856E+02 -0.81921141750E+02  0.41329959551E+03  0.42738703803E+03  0.00000000000E+00 0. -1.
</event>
<event>
 7    1  0.6358809E-006  0.1395755E+03  0.7818608E-02  0.1283912E+00
          2   -1    0    0  502    0  0.00000000000E+00  0.00000000000E+00  0.64623825759E+03  0.64623825759E+03  0.00000000000E+00 0. -1.
          1   -1    0    0  501    0 -0.00000000000E+00 -0.00000000000E+00 -0.15635770177E+04  0.15635770177E+04  0.00000000000E+00 0. -1.
         25    2    1    2    0    0  0.60679046682E+02 -0.66554250796E+02  0.70702218917E+02  0.16950877569E+03  0.12499202483E+03 0.  0.
          2    1    1    2  501    0 -0.12921627252E+03  0.56782547796E+02 -0.15085879109E+04  0.15151760913E+04  0.00000000000E+00 0. -1.
          1    1    1    2  502    0  0.68537225839E+02  0.97717029997E+01  0.52054693183E+03  0.52513040832E+03  0.00000000000E+00 0. -1.
         22    1    3    3    0    0  0.23619873235E+02 -0.76275339352E+02 -0.97087689787E+01  0.80436844792E+02  0.00000000000E+00 0. -1.
         22    1    3    3    0    0  0.37059173447E+02  0.97210885567E+01  0.80410987895E+02  0.89071930896E+02  0.00000000000E+00 0. -1.
</event>
<event>
 7    1  0.6358809E-006  0.3895141E+02  0.7818608E-02  0.1519775E+00
          2   -1    0    0  502    0  0.00000000000E+00  0.00000000000E+00  0.26712033246E+04  0.26712033246E+04  0.00000000000E+00 0. -1.
          1   -1    0    0  501    0 -0.00000000000E+00 -0.00000000000E+00 -0.57406323587E+01  0.57406323587E+01  0.00000000000E+00 0. -1.
         25    2    1    2    0    0  0.12848325316E+02 -0.95525424437E+01  0.16242545085E+04  0.16291359161E+04  0.12499917777E+03 0.  0.
          2    1    1    2  501    0  0.28287991128E+02  0.26776885105E+02  0.13510069603E+03  0.14060373425E+03  0.00000000000E+00 0. -1.
          1    1    1    2  502    0 -0.41136316444E+02 -0.17224342661E+02  0.90610748779E+03  0.90720430661E+03  0.00000000000E+00 0. -1.
         22    1    3    3    0    0  0.62108054582E+02  0.55064418087E+01  0.52746705418E+03  0.53113955283E+03  0.00000000000E+00 0. -1.
         22    1    3    3    0    0 -0.49259729266E+02 -0.15058984252E+02  0.10967874543E+04  0.10979963633E+04  0.00000000000E+00 0. -1.
</event>
<event>
 7    1  0.6358809E-006  0.7935201E+02  0.7818608E-02  0.1368848E+00
          2   -1    0    0  502    0  0.00000000000E+00  0.00000000000E+00  0.18946272483E+04  0.18946272483E+04  0.00000000000E+00 0. -1.
          1   -1    0    0  501    0 -0.00000000000E+00 -0.00000000000E+00 -0.14352127266E+04  0.14352127266E+04  0.00000000000E+00 0. -1.
         25    2    1    2    0    0 -0.17171466556E+02 -0.14669497011E+02  0.88128995078E+03  0.89039706958E+03  0.12499964304E+03 0.  0.
          2    1    1    2  501    0  0.69009288017E+02  0.39316169923E+02 -0.14287388640E+04  0.14309447175E+04  0.00000000000E+00 0. -1.
          1    1    1    2  502    0 -0.51837821461E+02 -0.24646672912E+02  0.10068634350E+04  0.10084981878E+04  0.00000000000E+00 0. -1.
         22    1    3    3    0    0 -0.44447894386E+02  0.39056955653E+02  0.58878496384E+03  0.59175061871E+03  0.00000000000E+00 0.  1.
         22    1    3    3    0    0  0.27276427830E+02 -0.53726452663E+02  0.29250498694E+03  0.29864645087E+03  0.00000000000E+00 0.  1.
</event>
<event>
 7    1  0.6358809E-006  0.9147740E+02  0.7818608E-02  0.1435897E+00
          2   -1    0    0  502    0  0.00000000000E+00  0.00000000000E+00  0.18307568637E+04  0.18307568637E+04  0.00000000000E+00 0. -1.
          1   -1    0    0  501    0 -0.00000000000E+00 -0.00000000000E+00 -0.16383070424E+04  0.16383070424E+04  0.00000000000E+00 0. -1.
         25    2    1    2    0    0 -0.71934606555E+02 -0.41883618371E+02  0.78422305289E+01  0.15038381265E+03  0.12499986167E+03 0.  0.
          2    1    1    2  501    0 -0.17844003532E+02  0.23272135200E+02 -0.15656990365E+04  0.15659736504E+04  0.00000000000E+00 0. -1.
          1    1    1    2  502    0  0.89778610086E+02  0.18611483171E+02  0.17503066273E+04  0.17527064431E+04  0.00000000000E+00 0. -1.
         22    1    3    3    0    0 -0.49096234494E+02  0.27210534348E+02 -0.34795087058E+02  0.66042043460E+02  0.00000000000E+00 0.  1.
         22    1    3    3    0    0 -0.22838372061E+02 -0.69094152719E+02  0.42637317587E+02  0.84341769186E+02  0.00000000000E+00 0.  1.
</event>
<event>
 7    1  0.6358809E-006  0.1406304E+03  0.7818608E-02  0.1307599E+00
          2   -1    0    0  502    0  0.00000000000E+00  0.00000000000E+00  0.75295393177E+03  0.75295393177E+03  0.00000000000E+00 0. -1.
          1   -1    0    0  501    0 -0.00000000000E+00 -0.00000000000E+00 -0.10398422344E+03  0.10398422344E+03  0.00000000000E+00 0. -1.
         25    2    1    2    0    0 -0.36196877330E+02  0.10113173626E+03  0.19654934989E+02  0.16597988145E+03  0.12500065027E+03 0.  0.
          2    1    1    2  501    0  0.33411508216E+02  0.43878777113E+02  0.11487212729E+02  0.56334998167E+02  0.00000000000E+00 0. -1.
          1    1    1    2  502    0  0.27853691144E+01 -0.14501051337E+03  0.61782756061E+03  0.63462327559E+03  0.00000000000E+00 0. -1.
         22    1    3    3    0    0 -0.41418777728E+02 -0.18287658568E+02  0.50253051620E+01  0.45554443212E+02  0.00000000000E+00 0. -1.
         22    1    3    3    0    0  0.52219003974E+01  0.11941939483E+03  0.14629629827E+02  0.12042543823E+03  0.00000000000E+00 0. -1.
</event>
<event>
 7    1  0.6358809E-006  0.4543304E+02  0.7818608E-02  0.1498577E+00
          2   -1    0    0  502    0  0.00000000000E+00  0.00000000000E+00  0.61254609691E+03  0.61254609691E+03  0.00000000000E+00 0. -1.
          1   -1    0    0  501    0 -0.00000000000E+00 -0.00000000000E+00 -0.96494209355E+02  0.96494209355E+02  0.00000000000E+00 0. -1.
         25    2    1    2    0    0  0.10714854806E+01 -0.12940185991E+02  0.74955839715E+02  0.14632853161E+03  0.12500025905E+03 0.  0.
          2    1    1    2  501    0  0.19933171573E+02  0.44144795799E+02 -0.50328210336E+02  0.69850004157E+02  0.00000000000E+00 0. -1.
          1    1    1    2  502    0 -0.21004657054E+02 -0.31204609808E+02  0.49142425817E+03  0.49286177049E+03  0.00000000000E+00 0. -1.
         22    1    3    3    0    0 -0.24562829078E+02 -0.61801142358E+02  0.22528084442E+02  0.70215584863E+02  0.00000000000E+00 0. -1.
         22    1    3    3    0    0  0.25634314558E+02  0.48860956367E+02  0.52427755273E+02  0.76112946749E+02  0.00000000000E+00 0. -1.
</event>
<event>
 7    1  0.6358809E-006  0.4416148E+02  0.7818608E-02  0.1566816E+00
          2   -1    0    0  502    0  0.00000000000E+00  0.00000000000E+00  0.31932920892E+02  0.31932920892E+02  0.00000000000E+00 0. -1.
          1   -1    0    0  501    0 -0.00000000000E+00 -0.00000000000E+00 -0.13656272179E+04  0.13656272179E+04  0.00000000000E+00 0. -1.
         25    2    1    2    0    0  0.43284709113E+02  0.52079803974E+02 -0.53305393886E+03  0.55168886446E+03  0.12501291698E+03 0.  0.
          2    1    1    2  501    0 -0.17831283171E+02 -0.17100040995E+02 -0.80220235989E+03  0.80258270121E+03  0.00000000000E+00 0. -1.
          1    1    1    2  502    0 -0.25453425942E+02 -0.34979762979E+02  0.15620017788E+01  0.43288573086E+02  0.00000000000E+00 0. -1.
         22    1    3    3    0    0  0.26803152803E+02  0.83915578729E+02 -0.47760045128E+03  0.48565669399E+03  0.00000000000E+00 0. -1.
         22    1    3    3    0    0  0.16481556310E+02 -0.31835774755E+02 -0.55453487581E+02  0.66032170475E+02  0.00000000000E+00 0. -1.
</event>
<event>
 7    1  0.6358809E-006  0.1163118E+03  0.7818608E-02  0.1289517E+00
          2   -1    0    0  502    0  0.00000000000E+00  0.00000000000E+00  0.84376774498E+03  0.84376774498E+03  0.00000000000E+00 0. -1.
          1   -1    0    0  501    0 -0.00000000000E+00 -0.00000000000E+00 -0.18792989190E+03  0.18792989190E+03  0.00000000000E+00 0. -1.
         25    2    1    2    0    0 -0.70397351596E+02 -0.11524787146E+03  0.70415119360E+02  0.19703217385E+03  0.12500211802E+03 0.  0.
          2    1    1    2  501    0 -0.84018303392E+01  0.11639421644E+03 -0.94518107661E+02  0.15017282394E+03  0.00000000000E+00 0. -1.
          1    1    1    2  502    0  0.78799181935E+02 -0.11463449765E+01  0.67994084138E+03  0.68449263909E+03  0.00000000000E+00 0. -1.
         22    1    3    3    0    0 -0.74238772336E+02 -0.61932742470E+01  0.34982828019E+02  0.82301580908E+02  0.00000000000E+00 0. -1.
         22    1    3    3    0    0  0.38414207394E+01 -0.10905459722E+03  0.35432291342E+02  0.11473059294E+03  0.00000000000E+00 0. -1.
</event>
<event>
 7    1  0.6358809E-006  0.1706883E+03  0.7818608E-02  0.1297411E+00
          2   -1    0    0  502    0  0.00000000000E+00  0.00000000000E+00  0.26856116684E+03  0.26856116684E+03  0.00000000000E+00 0. -1.
          1   -1    0    0  501    0 -0.00000000000E+00 -0.00000000000E+00 -0.12649497496E+04  0.12649497496E+04  0.00000000000E+00 0. -1.
         25    2    1    2    0    0  0.11793665621E+03  0.34387223221E+02 -0.83376181485E+03  0.85198326319E+03  0.12500072342E+03 0.  0.
          2    1    1    2  501    0  0.49470992386E+02  0.64914444619E+01 -0.39170439781E+03  0.39486941285E+03  0.00000000000E+00 0. -1.
          1    1    1    2  502    0 -0.16740764860E+03 -0.40878667683E+02  0.22907762989E+03  0.28665824041E+03  0.00000000000E+00 0. -1.
         22    1    3    3    0    0  0.12365120184E+03 -0.13297611762E+02 -0.66461557186E+03  0.67615109595E+03  0.00000000000E+00 0.  1.
         22    1    3    3    0    0 -0.57145456260E+01  0.47684834983E+02 -0.16914624299E+03  0.17583216724E+03  0.00000000000E+00 0.  1.
</event>
<event>
 7    1  0.6477782E-006  0.7231693E+02  0.7818608E-02  0.1358199E+00
          2   -1    0    0  502    0  0.00000000000E+00  0.00000000000E+00  0.73947038926E+03  0.73947038926E+03  0.00000000000E+00 0. -1.
          1   -1    0    0  501    0 -0.00000000000E+00 -0.00000000000E+00 -0.26053746063E+04  0.26053746063E+04  0.00000000000E+00 0. -1.
         25    2    1    2    0    0 -0.22239266965E+02 -0.97814232548E+02 -0.38594361613E+03  0.41789974831E+03  0.12500206286E+03 0.  0.
          2    1    1    2  501    0  0.58971978014E+02  0.35525120475E+02 -0.22011064369E+04  0.22021828432E+04  0.00000000000E+00 0. -1.
          1    1    1    2  502    0 -0.36732711050E+02  0.62289112073E+02  0.72114583599E+03  0.72476240404E+03  0.00000000000E+00 0. -1.
         22    1    3    3    0    0  0.48802648878E+02 -0.16280375566E+02 -0.10694888717E+03  0.11867945750E+03  0.00000000000E+00 0.  1.
         22    1    3    3    0    0 -0.71041915842E+02 -0.81533856983E+02 -0.27899472897E+03  0.29922029081E+03  0.00000000000E+00 0.  1.
</event>
<event>
 7    1  0.6358809E-006  0.6178990E+02  0.7818608E-02  0.1511988E+00
          2   -1    0    0  502    0  0.00000000000E+00  0.00000000000E+00  0.10275435283E+04  0.10275435283E+04  0.00000000000E+00 0. -1.
          1   -1    0    0  501    0 -0.00000000000E+00 -0.00000000000E+00 -0.79326636873E+03  0.79326636873E+03  0.00000000000E+00 0. -1.
         25    2    1    2    0    0  0.57491104283E+02  0.56291353099E+02  0.47427499337E+03  0.49702903144E+03  0.12500858074E+03 0.  0.
          2    1    1    2  501    0 -0.77132239442E+01 -0.24032433712E+02 -0.78006138644E+03  0.78046961396E+03  0.00000000000E+00 0. -1.
          1    1    1    2  502    0 -0.49777880338E+02 -0.32258919388E+02  0.54006355269E+03  0.54331125168E+03  0.00000000000E+00 0. -1.
         22    1    3    3    0    0  0.54567848841E+02  0.87445359975E+02  0.43375330094E+03  0.44583210649E+03  0.00000000000E+00 0.  1.
         22    1    3    3    0    0  0.29232554417E+01 -0.31154006875E+02  0.40521692430E+02  0.51196924948E+02  0.00000000000E+00 0.  1.
</event>
<event>
 7    1  0.6358809E-006  0.6070301E+02  0.7818608E-02  0.1503654E+00
          2   -1    0    0  502    0  0.00000000000E+00  0.00000000000E+00  0.89920266762E+02  0.89920266762E+02  0.00000000000E+00 0. -1.
          1   -1    0    0  501    0 -0.00000000000E+00 -0.00000000000E+00 -0.69081174037E+03  0.69081174037E+03  0.00000000000E+00 0. -1.
         25    2    1    2    0    0  0.31888430195E+02 -0.50595362655E+02 -0.37888996953E+03  0.40343314743E+03  0.12499573085E+03 0.  0.
          2    1    1    2  501    0 -0.25299834681E+02 -0.99592375410E+01 -0.28696219540E+03  0.28824741046E+03  0.00000000000E+00 0. -1.
          1    1    1    2  502    0 -0.65885955139E+01  0.60554600196E+02  0.64960691320E+02  0.89051449245E+02  0.00000000000E+00 0. -1.
         22    1    3    3    0    0  0.58539015387E+02 -0.71048394982E+02 -0.33902154665E+03  0.35129802141E+03  0.00000000000E+00 0. -1.
         22    1    3    3    0    0 -0.26650585192E+02  0.20453032326E+02 -0.39868422882E+02  0.52135126023E+02  0.00000000000E+00 0. -1.
</event>
<event>
 7    1  0.6358809E-006  0.9572603E+02  0.7818608E-02  0.1370044E+00
          2   -1    0    0  502    0  0.00000000000E+00  0.00000000000E+00  0.95839093660E+02  0.95839093660E+02  0.00000000000E+00 0. -1.
          1   -1    0    0  501    0 -0.00000000000E+00 -0.00000000000E+00 -0.30730566941E+04  0.30730566941E+04  0.00000000000E+00 0. -1.
         25    2    1    2    0    0 -0.78636292394E+02  0.32751321525E+02 -0.52338133706E+03  0.54480231719E+03  0.12500090118E+03 0.  0.
          2    1    1    2  501    0  0.60705821163E+02 -0.76317141509E+02 -0.25314353638E+04  0.25333129503E+04  0.00000000000E+00 0. -1.
          1    1    1    2  502    0  0.17930471231E+02  0.43565819984E+02  0.77599100459E+02  0.90780520275E+02  0.00000000000E+00 0. -1.
         22    1    3    3    0    0 -0.10608836714E+03  0.20223826803E+01 -0.42692301425E+03  0.43991145901E+03  0.00000000000E+00 0. -1.
         22    1    3    3    0    0  0.27452074751E+02  0.30728938845E+02 -0.96458322811E+02  0.10489085818E+03  0.00000000000E+00 0. -1.
</event>
<event>
 7    1  0.6358809E-006  0.9533424E+02  0.7818608E-02  0.1380454E+00
          2   -1    0    0  502    0  0.00000000000E+00  0.00000000000E+00  0.14162803212E+04  0.14162803212E+04  0.00000000000E+00 0. -1.
          1   -1    0    0  501    0 -0.00000000000E+00 -0.00000000000E+00 -0.13945262144E+03  0.13945262144E+03  0.00000000000E+00 0. -1.
         25    2    1    2    0    0  0.25097662407E+02 -0.51683684850E+02  0.12912815207E+03  0.18868117141E+03  0.12500163539E+03 0.  0.
          2    1    1    2  501    0 -0.43937760670E+02  0.90812936006E+02 -0.86013914989E+02  0.13257416690E+03  0.00000000000E+00 0. -1.
          1    1    1    2  502    0  0.18840098263E+02 -0.39129251156E+02  0.12337134626E+04  0.12344776043E+04  0.00000000000E+00 0. -1.
         22    1    3    3    0    0  0.37682092297E+00 -0.50623583209E+01  0.13543997892E+03  0.13553507796E+03  0.00000000000E+00 0. -1.
         22    1    3    3    0    0  0.24720841484E+02 -0.46621326529E+02 -0.63118268548E+01  0.53146093453E+02  0.00000000000E+00 0. -1.
</event>
<event>
 7    1  0.6358809E-006  0.8133241E+02  0.7818608E-02  0.1443140E+00
          2   -1    0    0  502    0  0.00000000000E+00  0.00000000000E+00  0.17157696283E+04  0.17157696283E+04  0.00000000000E+00 0. -1.
          1   -1    0    0  501    0 -0.00000000000E+00 -0.00000000000E+00 -0.13068454979E+03  0.13068454979E+03  0.00000000000E+00 0. -1.
         25    2    1    2    0    0 -0.11134232106E+03 -0.86274674616E+01  0.54832415855E+03  0.57337253520E+03  0.12500054248E+03 0.  0.
          2    1    1    2  501    0  0.80510111308E+02  0.35666414127E+01 -0.10418050517E+03  0.13171247705E+03  0.00000000000E+00 0. -1.
          1    1    1    2  502    0  0.30832209754E+02  0.50608260488E+01  0.11409414251E+04  0.11413691658E+04  0.00000000000E+00 0. -1.
         22    1    3    3    0    0 -0.55605480856E+02 -0.41519021081E+02  0.10837915153E+03  0.12869280904E+03  0.00000000000E+00 0. -1.
         22    1    3    3    0    0 -0.55736840206E+02  0.32891553619E+02  0.43994500702E+03  0.44467972616E+03  0.00000000000E+00 0. -1.
</event>
<event>
 7    1  0.6358809E-006  0.8389015E+02  0.7818608E-02  0.1385102E+00
          2   -1    0    0  502    0  0.00000000000E+00  0.00000000000E+00  0.30555484603E+03  0.30555484603E+03  0.00000000000E+00 0. -1.
          1   -1    0    0  501    0 -0.00000000000E+00 -0.00000000000E+00 -0.14515600422E+03  0.14515600422E+03  0.00000000000E+00 0. -1.
         25    2    1    2    0    0 -0.81711030937E+02 -0.81848804035E+01 -0.15968113935E+02  0.15041081814E+03  0.12499899482E+03 0.  0.
          2    1    1    2  501    0  0.59185605317E+01  0.47154522182E+02 -0.43541555937E+02  0.64454987506E+02  0.00000000000E+00 0. -1.
          1    1    1    2  502    0  0.75792470405E+02 -0.38969641779E+02  0.21990851169E+03  0.23584504460E+03  0.00000000000E+00 0. -1.
         22    1    3    3    0    0  0.10376967258E+02 -0.46822405566E+02 -0.15963727565E+02  0.50545620089E+02  0.00000000000E+00 0.  1.
         22    1    3    3    0    0 -0.92087998195E+02  0.38637525163E+02 -0.43863707801E-02  0.99865198049E+02  0.00000000000E+00 0.  1.
</event>
<event>
 7    1  0.6358809E-006  0.1510080E+03  0.7818608E-02  0.1246195E+00
          2   -1    0    0  502    0  0.00000000000E+00  0.00000000000E+00  0.22966559742E+03  0.22966559742E+03  0.00000000000E+00 0. -1.
          1   -1    0    0  501    0 -0.00000000000E+00 -0.00000000000E+00 -0.76655002255E+03  0.76655002255E+03  0.00000000000E+00 0. -1.
         25    2    1    2    0    0  0.13671983554E+03  0.65046392415E+02 -0.43617228722E+03  0.47832502372E+03  0.12500087032E+03 0.  0.
          2    1    1    2  501    0 -0.16295133087E+03  0.23581837058E+02 -0.27505109938E+03  0.32056566651E+03  0.00000000000E+00 0. -1.
          1    1    1    2  502    0  0.26231495331E+02 -0.88628229473E+02  0.17433896148E+03  0.19732492974E+03  0.00000000000E+00 0. -1.
         22    1    3    3    0    0  0.10418452415E+03  0.32857308141E+02 -0.13485096041E+03  0.17354768594E+03  0.00000000000E+00 0. -1.
         22    1    3    3    0    0  0.32535311387E+02  0.32189084274E+02 -0.30132132681E+03  0.30477733778E+03  0.00000000000E+00 0. -1.
</event>
<event>
 7    1  0.7222585E-006  0.6755062E+02  0.7818608E-02  0.1438994E+00
          2   -1    0    0  502    0  0.00000000000E+00  0.00000000000E+00  0.11194994593E+04  0.11194994593E+04  0.00000000000E+00 0. -1.
          1   -1    0    0  501    0 -0.00000000000E+00 -0.00000000000E+00 -0.14501075068E+04  0.14501075068E+04  0.00000000000E+00 0. -1.
         25    2    1    2    0    0  0.61744689140E+02 -0.26289414339E+02 -0.32720126413E+03  0.35663565641E+03  0.12499913690E+03 0.  0.
          2    1    1    2  501    0 -0.37863240777E+02  0.56870764718E+02 -0.11067946607E+04  0.11089014067E+04  0.00000000000E+00 0. -1.
          1    1    1    2  502    0 -0.23881448364E+02 -0.30581350380E+02  0.11033878774E+04  0.11040699029E+04  0.00000000000E+00 0. -1.
         22    1    3    3    0    0  0.82579499784E+02  0.18558300743E+02 -0.14551765263E+03  0.16834242346E+03  0.00000000000E+00 0. -1.
         22    1    3    3    0    0 -0.20834810643E+02 -0.44847715081E+02 -0.18168361150E+03  0.18829323294E+03  0.00000000000E+00 0. -1.
</event>
<event>
 7    1  0.6674089E-006  0.7519675E+02  0.7818608E-02  0.1349279E+00
          2   -1    0    0  502    0  0.00000000000E+00  0.00000000000E+00  0.93103816241E+03  0.93103816241E+03  0.00000000000E+00 0. -1.
          1   -1    0    0  501    0 -0.00000000000E+00 -0.00000000000E+00 -0.10760793889E+04  0.10760793889E+04  0.00000000000E+00 0. -1.
         25    2    1    2    0    0  0.11720466448E+03 -0.18689740123E+02 -0.19416599796E+03  0.25963626108E+03  0.12499725414E+03 0.  0.
          2    1    1    2  501    0 -0.66792273583E+02 -0.31891652164E+02 -0.84614086638E+03  0.84937191562E+03  0.00000000000E+00 0. -1.
          1    1    1    2  502    0 -0.50412390899E+02  0.50581392287E+02  0.89526563787E+03  0.89810937460E+03  0.00000000000E+00 0. -1.
         22    1    3    3    0    0  0.93778848563E+02  0.41239806322E+02 -0.85905773590E+02  0.13369740461E+03  0.00000000000E+00 0. -1.
         22    1    3    3    0    0  0.23425815919E+02 -0.59929546445E+02 -0.10826022437E+03  0.12593885647E+03  0.00000000000E+00 0. -1.
</event>
<event>
 7    1  0.6358809E-006  0.6972481E+02  0.7818608E-02  0.1481110E+00
          2   -1    0    0  502    0  0.00000000000E+00  0.00000000000E+00  0.15100383597E+04  0.15100383597E+04  0.00000000000E+00 0. -1.
          1   -1    0    0  501    0 -0.00000000000E+00 -0.00000000000E+00 -0.60095671908E+03  0.60095671908E+03  0.00000000000E+00 0. -1.
         25    2    1    2    0    0  0.95875638816E+02 -0.15706526430E+02  0.20214039611E+03  0.25675415935E+03  0.12499250183E+03 0.  0.
          2    1    1    2  501    0 -0.68508742239E+02  0.11536524874E+02 -0.57139600136E+03  0.57560396935E+03  0.00000000000E+00 0. -1.
          1    1    1    2  502    0 -0.27366896577E+02  0.41700015551E+01  0.12783372459E+04  0.12786369501E+04  0.00000000000E+00 0. -1.
         22    1    3    3    0    0  0.78068966258E+01  0.70407640059E+00  0.15560796407E+03  0.15580526898E+03  0.00000000000E+00 0. -1.
         22    1    3    3    0    0  0.88068742190E+02 -0.16410602830E+02  0.46532432035E+02  0.10094889037E+03  0.00000000000E+00 0. -1.
</event>
<event>
 7    1  0.6358809E-006  0.6073046E+02  0.7818608E-02  0.1445167E+00
          2   -1    0    0  502    0  0.00000000000E+00  0.00000000000E+00  0.79322693431E+02  0.79322693431E+02  0.00000000000E+00 0. -1.
          1   -1    0    0  501    0 -0.00000000000E+00 -0.00000000000E+00 -0.87087143918E+03  0.87087143918E+03  0.00000000000E+00 0. -1.
         25    2    1    2    0    0 -0.71556765019E+01 -0.17532598504E+02 -0.21190877156E+01  0.12642923879E+03  0.12498506379E+03 0.  0.
          2    1    1    2  501    0 -0.54991460602E+02 -0.25770677832E+02 -0.71498695934E+03  0.71756152391E+03  0.00000000000E+00 0. -1.
          1    1    1    2  502    0  0.62147137104E+02  0.43303276337E+02 -0.74442698696E+02  0.10620336991E+03  0.00000000000E+00 0. -1.
         22    1    3    3    0    0 -0.21691144366E+02 -0.52603840532E+02  0.40130669361E+02  0.69628588999E+02  0.00000000000E+00 0.  1.
         22    1    3    3    0    0  0.14535467864E+02  0.35071242027E+02 -0.42249757077E+02  0.56800649789E+02  0.00000000000E+00 0.  1.
</event>
<event>
 7    1  0.6358809E-006  0.9524591E+02  0.7818608E-02  0.1435358E+00
          2   -1    0    0  502    0  0.00000000000E+00  0.00000000000E+00  0.16924159513E+04  0.16924159513E+04  0.00000000000E+00 0. -1.
          1   -1    0    0  501    0 -0.00000000000E+00 -0.00000000000E+00 -0.28216933667E+03  0.28216933667E+03  0.00000000000E+00 0. -1.
         25    2    1    2    0    0  0.41638075452E+02  0.58513236205E+02  0.92173032154E+02  0.17110955679E+03  0.12500033773E+03 0.  0.
          2    1    1    2  501    0 -0.43507326367E+02 -0.86731349014E+02 -0.23286865185E+03  0.25227568921E+03  0.00000000000E+00 0. -1.
          1    1    1    2  502    0  0.18692509143E+01  0.28218112809E+02  0.15509422343E+04  0.15512000419E+04  0.00000000000E+00 0. -1.
         22    1    3    3    0    0  0.10281118897E+02  0.51585762131E+02 -0.18587316736E+02  0.55787817701E+02  0.00000000000E+00 0. -1.
         22    1    3    3    0    0  0.31356956555E+02  0.69274740742E+01  0.11076034889E+03  0.11532173909E+03  0.00000000000E+00 0. -1.
</event>
<event>
 7    1  0.6358809E-006  0.4078989E+02  0.7818608E-02  0.1544670E+00
          2   -1    0    0  502    0  0.00000000000E+00  0.00000000000E+00  0.12213065151E+04  0.12213065151E+04  0.00000000000E+00 0. -1.
          1   -1    0    0  501    0 -0.00000000000E+00 -0.00000000000E+00 -0.12815809000E+03  0.12815809000E+03  0.00000000000E+00 0. -1.
         25    2    1    2    0    0 -0.62651109758E+02 -0.25537514601E+02 -0.75730261027E+02  0.16105168455E+03  0.12500098582E+03 0.  0.
          2    1    1    2  501    0  0.22143995593E+02  0.21412309508E+02  0.15806519886E+02  0.34622097137E+02  0.00000000000E+00 0. -1.
          1    1    1    2  502    0  0.40507114165E+02  0.41252050931E+01  0.11530721663E+04  0.11537908234E+04  0.00000000000E+00 0. -1.
         22    1    3    3    0    0 -0.74271249098E+02 -0.66393941824E+02 -0.54785644553E+02  0.11369186779E+03  0.00000000000E+00 0. -1.
         22    1    3    3    0    0  0.11620139341E+02  0.40856427223E+02 -0.20944616474E+02  0.47359816754E+02  0.00000000000E+00 0. -1.
</event>
<event>
 7    1  0.6358809E-006  0.4758361E+02  0.7818608E-02  0.1545440E+00
          2   -1    0    0  502    0  0.00000000000E+00  0.00000000000E+00  0.31499495726E+04  0.31499495726E+04  0.00000000000E+00 0. -1.
          1   -1    0    0  501    0 -0.00000000000E+00 -0.00000000000E+00 -0.53845919389E+03  0.53845919389E+03  0.00000000000E+00 0. -1.
         25    2    1    2    0    0  0.27541793478E+02  0.88914898059E+00  0.24494628702E+03  0.27637544655E+03  0.12500145183E+03 0.  0.
          2    1    1    2  501    0  0.15961825070E+02 -0.20869918082E+02 -0.52221601663E+03  0.52287656417E+03  0.00000000000E+00 0. -1.
          1    1    1    2  502    0 -0.43503618549E+02  0.19980769101E+02  0.28887601083E+04  0.28891567558E+04  0.00000000000E+00 0. -1.
         22    1    3    3    0    0 -0.47827371283E+02 -0.15292683285E+02  0.11104441212E+03  0.12186954118E+03  0.00000000000E+00 0.  1.
         22    1    3    3    0    0  0.75369164761E+02  0.16181832265E+02  0.13390187490E+03  0.15450590537E+03  0.00000000000E+00 0.  1.
</event>
<event>
 7    1  0.6358809E-006  0.6097828E+02  0.7818608E-02  0.1463513E+00
          2   -1    0    0  502    0  0.00000000000E+00  0.00000000000E+00  0.21251363284E+04  0.21251363284E+04  0.00000000000E+00 0. -1.
          1   -1    0    0  501    0 -0.00000000000E+00 -0.00000000000E+00 -0.12020012311E+03  0.12020012311E+03  0.00000000000E+00 0. -1.
         25    2    1    2    0    0  0.23755979661E+02 -0.51669962215E+02  0.17792279335E+02  0.13847211817E+03  0.12499532288E+03 0.  0.
          2    1    1    2  501    0  0.29088492404E+02  0.21024217137E+02 -0.53981997173E+02  0.64824487004E+02  0.00000000000E+00 0. -1.
          1    1    1    2  502    0 -0.52844472066E+02  0.30645745078E+02  0.20411259231E+04  0.20420398463E+04  0.00000000000E+00 0. -1.
         22    1    3    3    0    0  0.52649340942E+02 -0.67312081544E+02  0.44299748861E+02  0.96256621448E+02  0.00000000000E+00 0. -1.
         22    1    3    3    0    0 -0.28893361280E+02  0.15642119328E+02 -0.26507469526E+02  0.42215496726E+02  0.00000000000E+00 0. -1.
</event>
<event>
 7    1  0.6358809E-006  0.2370473E+03  0.7818608E-02  0.1286069E+00
          2   -1    0    0  502    0  0.00000000000E+00  0.00000000000E+00  0.16840260535E+04  0.16840260535E+04  0.00000000000E+00 0. -1.
          1   -1    0    0  501    0 -0.00000000000E+00 -0.00000000000E+00 -0.93533020747E+03  0.93533020747E+03  0.00000000000E+00 0. -1.
         25    2    1    2    0    0  0.25727058289E+03  0.10064431151E+03 -0.43521637389E+03  0.53042961468E+03  0.12499941506E+03 0.  0.
          2    1    1    2  501    0 -0.37764948717E+02 -0.13005992507E+02 -0.44306981570E+03  0.44486650669E+03  0.00000000000E+00 0. -1.
          1    1    1    2  502    0 -0.21950563418E+03 -0.87638319005E+02  0.16269820356E+04  0.16440601396E+04  0.00000000000E+00 0. -1.
         22    1    3    3    0    0  0.26510899279E+03  0.84857088513E+02 -0.42966014792E+03  0.51194857773E+03  0.00000000000E+00 0.  1.
         22    1    3    3    0    0 -0.78384098974E+01  0.15787222999E+02 -0.55562259730E+01  0.18481036951E+02  0.00000000000E+00 0.  1.
</event>
<event>
 7    1  0.6358809E-006  0.7113618E+02  0.7818608E-02  0.1453972E+00
          2   -1    0    0  502    0  0.00000000000E+00  0.00000000000E+00  0.11284869075E+04  0.11284869075E+04  0.00000000000E+00 0. -1.
          1   -1    0    0  501    0 -0.00000000000E+00 -0.00000000000E+00 -0.16242977016E+04  0.16242977016E+04  0.00000000000E+00 0. -1.
         25    2    1    2    0    0  0.87705366600E+02 -0.10006681871E+02  0.28208308267E+03  0.32091982572E+03  0.12500521588E+03 0.  0.
          2    1    1    2  501    0 -0.69005130397E+02 -0.17156454301E+02 -0.16037624840E+04  0.16053380196E+04  0.00000000000E+00 0. -1.
          1    1    1    2  502    0 -0.18700236203E+02  0.27163136172E+02  0.82586860721E+03  0.82652676374E+03  0.00000000000E+00 0. -1.
         22    1    3    3    0    0  0.30000660045E+02 -0.64971302452E+02  0.15797311657E+03  0.17342668567E+03  0.00000000000E+00 0. -1.
         22    1    3    3    0    0  0.57704706555E+02  0.54964620581E+02  0.12410996611E+03  0.14749314005E+03  0.00000000000E+00 0. -1.
</event>
<event>
 7    1  0.6358809E-006  0.1316640E+03  0.7818608E-02  0.1343314E+00
          2   -1    0    0  502    0  0.00000000000E+00  0.00000000000E+00  0.39042420227E+03  0.39042420227E+03  0.00000000000E+00 0. -1.
          1   -1    0    0  501    0 -0.00000000000E+00 -0.00000000000E+00 -0.68876889833E+03  0.68876889833E+03  0.00000000000E+00 0. -1.
         25    2    1    2    0    0 -0.97960578137E+02 -0.21057602198E+02  0.47854458597E+01  0.16027009483E+03  0.12499562122E+03 0.  0.
          2    1    1    2  501    0 -0.30313917318E+02 -0.30395277937E+02 -0.59470395725E+03  0.59625129205E+03  0.00000000000E+00 0. -1.
          1    1    1    2  502    0  0.12827449545E+03  0.51452880135E+02  0.29157381533E+03  0.32267171373E+03  0.00000000000E+00 0. -1.
         22    1    3    3    0    0 -0.11606540050E+03 -0.48911020292E+02  0.11159581832E+02  0.12644366874E+03  0.00000000000E+00 0.  1.
         22    1    3    3    0    0  0.18104822361E+02  0.27853418094E+02 -0.63741359722E+01  0.33826426085E+02  0.00000000000E+00 0.  1.
</event>
<event>
 7    1  0.6358809E-006  0.1549853E+03  0.7818608E-02  0.1344491E+00
          2   -1    0    0  502    0  0.00000000000E+00  0.00000000000E+00  0.88903674027E+03  0.88903674027E+03  0.00000000000E+00 0. -1.
          1   -1    0    0  501    0 -0.00000000000E+00 -0.00000000000E+00 -0.73099726349E+03  0.73099726349E+03  0.00000000000E+00 0. -1.
         25    2    1    2    0    0  0.73128083865E+02 -0.12024086125E+03 -0.31210821533E+03  0.36447575005E+03  0.12500181173E+03 0.  0.
          2    1    1    2  501    0 -0.23860277307E+02 -0.27091200519E+02 -0.38486119767E+03  0.38655062728E+03  0.00000000000E+00 0. -1.
          1    1    1    2  502    0 -0.49267806558E+02  0.14733206177E+03  0.85500888978E+03  0.86900762642E+03  0.00000000000E+00 0. -1.
         22    1    3    3    0    0  0.94014354322E+02 -0.12856320112E+03 -0.23299776708E+03  0.28223244846E+03  0.00000000000E+00 0. -1.
         22    1    3    3    0    0 -0.20886270456E+02  0.83223398662E+01 -0.79110448250E+02  0.82243301592E+02  0.00000000000E+00 0. -1.
</event>
<event>
 7    1  0.6358809E-006  0.8758176E+02  0.7818608E-02  0.1462479E+00
          2   -1    0    0  502    0  0.00000000000E+00  0.00000000000E+00  0.82593501587E+03  0.82593501587E+03  0.00000000000E+00 0. -1.
          1   -1    0    0  501    0 -0.00000000000E+00 -0.00000000000E+00 -0.23736074084E+03  0.23736074084E+03  0.00000000000E+00 0. -1.
         25    2    1    2    0    0 -0.10776453839E+03  0.17103205712E+02  0.67378102376E+02  0.17908434576E+03  0.12500271531E+03 0.  0.
          2    1    1    2  501    0  0.85701951516E+02 -0.49746382744E+01 -0.17111549105E+03  0.19144211343E+03  0.00000000000E+00 0. -1.
          1    1    1    2  502    0  0.22062586878E+02 -0.12128567438E+02  0.69231166371E+03  0.69276929752E+03  0.00000000000E+00 0. -1.
         22    1    3    3    0    0 -0.12921329344E+03  0.26428360512E+02  0.78183679649E+02  0.15332064833E+03  0.00000000000E+00 0. -1.
         22    1    3    3    0    0  0.21448755043E+02 -0.93251547993E+01 -0.10805577273E+02  0.25763697428E+02  0.00000000000E+00 0. -1.
</event>
<event>
 7    1  0.6358809E-006  0.1034100E+03  0.7818608E-02  0.1335607E+00
          2   -1    0    0  502    0  0.00000000000E+00  0.00000000000E+00  0.58589156038E+03  0.58589156038E+03  0.00000000000E+00 0. -1.
          1   -1    0    0  501    0 -0.00000000000E+00 -0.00000000000E+00 -0.20709305698E+03  0.20709305698E+03  0.00000000000E+00 0. -1.
         25    2    1    2    0    0 -0.27041102497E+02 -0.54142013828E+02  0.18718997400E+02  0.14013491629E+03  0.12499926005E+03 0.  0.
          2    1    1    2  501    0  0.29737081997E+02  0.11251314244E+03 -0.12120542177E+03  0.16803051965E+03  0.00000000000E+00 0. -1.
          1    1    1    2  502    0 -0.26959794996E+01 -0.58371128615E+02  0.48128492778E+03  0.48481918141E+03  0.00000000000E+00 0. -1.
         22    1    3    3    0    0 -0.72981959073E+02 -0.54228537595E+02  0.10970581245E+01  0.90930215970E+02  0.00000000000E+00 0. -1.
         22    1    3    3    0    0  0.45940856576E+02  0.86523767184E-01  0.17621939275E+02  0.49204700316E+02  0.00000000000E+00 0. -1.
</event>
<event>
 7    1  0.6358809E-006  0.1120707E+03  0.7818608E-02  0.1425754E+00
          2   -1    0    0  502    0  0.00000000000E+00  0.00000000000E+00  0.19448015627E+03  0.19448015627E+03  0.00000000000E+00 0. -1.
          1   -1    0    0  501    0 -0.00000000000E+00 -0.00000000000E+00 -0.10089647655E+04  0.10089647655E+04  0.00000000000E+00 0. -1.
         25    2    1    2    0    0 -0.43538059655E+02 -0.80186579428E+02 -0.48112535397E+02  0.16206461063E+03  0.12499868718E+03 0.  0.
          2    1    1    2  501    0 -0.10301475215E+02 -0.23706334304E+02 -0.87875712175E+03  0.87913718480E+03  0.00000000000E+00 0. -1.
          1    1    1    2  502    0  0.53839534870E+02  0.10389291373E+03  0.11238504794E+03  0.16224312632E+03  0.00000000000E+00 0. -1.
         22    1    3    3    0    0  0.22041701140E+02  0.21849587088E+02 -0.21862431605E+02  0.37963231695E+02  0.00000000000E+00 0. -1.
         22    1    3    3    0    0 -0.65579760795E+02 -0.10203616652E+03 -0.26250103792E+02  0.12410137893E+03  0.00000000000E+00 0. -1.
</event>
<event>
 7    1  0.6358809E-006  0.7384962E+02  0.7818608E-02  0.1434139E+00
          2   -1    0    0  502    0  0.00000000000E+00  0.00000000000E+00  0.15816489186E+04  0.15816489186E+04  0.00000000000E+00 0. -1.
          1   -1    0    0  501    0 -0.00000000000E+00 -0.00000000000E+00 -0.43735007087E+02  0.43735007087E+02  0.00000000000E+00 0. -1.
         25    2    1    2    0    0 -0.72009253665E+01  0.59873698943E+02  0.11897771751E+04  0.11978449594E+04  0.12500442886E+03 0.  0.
          2    1    1    2  501    0  0.13204314912E+02  0.34359684082E+02 -0.23780114308E+02  0.43822775574E+02  0.00000000000E+00 0. -1.
          1    1    1    2  502    0 -0.60033895451E+01 -0.94233383025E+02  0.37191685078E+03  0.38371619077E+03  0.00000000000E+00 0. -1.
         22    1    3    3    0    0  0.39308119535E+02  0.78692956799E+02  0.70022867831E+03  0.70573218124E+03  0.00000000000E+00 0.  1.
         22    1    3    3    0    0 -0.46509044901E+02 -0.18819257856E+02  0.48954849675E+03  0.49211277813E+03  0.00000000000E+00 0.  1.
</event>
<event>
 7    1  0.1298952E-005  0.7082769E+02  0.7818608E-02  0.1365704E+00
          2   -1    0    0  502    0  0.00000000000E+00  0.00000000000E+00  0.12076675725E+04  0.12076675725E+04  0.00000000000E+00 0. -1.
          1   -1    0    0  501    0 -0.00000000000E+00 -0.00000000000E+00 -0.18952952926E+04  0.18952952926E+04  0.00000000000E+00 0. -1.
         25    2    1    2    0    0 -0.87750112875E+01  0.14395512299E+01 -0.66946526733E+03  0.68109341035E+03  0.12500166532E+03 0.  0.
          2    1    1    2  501    0  0.75201053927E+02  0.23139769204E+02 -0.12177016991E+04  0.12202409907E+04  0.00000000000E+00 0. -1.
          1    1    1    2  502    0 -0.66426042639E+02 -0.24579320434E+02  0.11995392463E+04  0.12016284640E+04  0.00000000000E+00 0. -1.
         22    1    3    3    0    0 -0.26217971397E+02 -0.27303574857E+02 -0.61613158088E+02  0.72312159930E+02  0.00000000000E+00 0.  1.
         22    1    3    3    0    0  0.17442960109E+02  0.28743126087E+02 -0.60785210925E+03  0.60878125042E+03  0.00000000000E+00 0.  1.
</event>
<event>
 7    1  0.6358809E-006  0.4463440E+02  0.7818608E-02  0.1566453E+00
          2   -1    0    0  502    0  0.00000000000E+00  0.00000000000E+00  0.15262923306E+03  0.15262923306E+03  0.00000000000E+00 0. -1.
          1   -1    0    0  501    0 -0.00000000000E+00 -0.00000000000E+00 -0.35710647292E+03  0.35710647292E+03  0.00000000000E+00 0. -1.
         25    2    1    2    0    0 -0.59504363570E+02 -0.17025678084E+02  0.28210954703E+02  0.14231801715E+03  0.12501166763E+03 0.  0.
          2    1    1    2  501    0  0.44308133192E+02 -0.21917043676E+01 -0.29611708466E+03  0.29942167935E+03  0.00000000000E+00 0. -1.
          1    1    1    2  502    0  0.15196230378E+02  0.19217382451E+02  0.63428890095E+02  0.67996009476E+02  0.00000000000E+00 0. -1.
         22    1    3    3    0    0 -0.32669696992E+02 -0.65982685728E+02 -0.10512031954E+02  0.74374234338E+02  0.00000000000E+00 0.  1.
         22    1    3    3    0    0 -0.26834666578E+02  0.48957007645E+02  0.38722986657E+02  0.67943782817E+02  0.00000000000E+00 0.  1.
</event>
<event>
 7    1  0.6358809E-006  0.8458582E+02  0.7818608E-02  0.1493937E+00
          2   -1    0    0  502    0  0.00000000000E+00  0.00000000000E+00  0.72885895098E+03  0.72885895098E+03  0.00000000000E+00 0. -1.
          1   -1    0    0  501    0 -0.00000000000E+00 -0.00000000000E+00 -0.14396917208E+03  0.14396917208E+03  0.00000000000E+00 0. -1.
         25    2    1    2    0    0  0.84682134830E+02 -0.57713722945E+02  0.60669501458E+02  0.17264753529E+03  0.12499778101E+03 0.  0.
          2    1    1    2  501    0 -0.66702492776E+02  0.47132591979E+02 -0.68801995198E+02  0.10679147116E+03  0.00000000000E+00 0. -1.
          1    1    1    2  502    0 -0.17979642054E+02  0.10581130966E+02  0.59302227264E+03  0.59338911661E+03  0.00000000000E+00 0. -1.
         22    1    3    3    0    0 -0.10647310735E+02 -0.37932102655E+02 -0.21823262226E+02  0.45038477016E+02  0.00000000000E+00 0.  1.
         22    1    3    3    0    0  0.95329445565E+02 -0.19781620290E+02  0.82492763684E+02  0.12760905827E+03  0.00000000000E+00 0.  1.
</event>
<event>
 7    1  0.6358809E-006  0.6031697E+02  0.7818608E-02  0.1423528E+00
          2   -1    0    0  502    0  0.00000000000E+00  0.00000000000E+00  0.14492189319E+03  0.14492189319E+03  0.00000000000E+00 0. -1.
          1   -1    0    0  501    0 -0.00000000000E+00 -0.00000000000E+00 -0.23529153232E+04  0.23529153232E+04  0.00000000000E+00 0. -1.
         25    2    1    2    0    0 -0.12142381932E+02 -0.37740295350E+01 -0.74640351391E+03  0.75690492821E+03  0.12500073609E+03 0.  0.
          2    1    1    2  501    0 -0.37151223873E+02 -0.31718816113E+02 -0.15942651679E+04  0.15950133925E+04  0.00000000000E+00 0. -1.
          1    1    1    2  502    0  0.49293605805E+02  0.35492845648E+02  0.13267525181E+03  0.14591889565E+03  0.00000000000E+00 0. -1.
         22    1    3    3    0    0  0.22662337741E+02  0.40425727619E+02 -0.13139461114E+03  0.13932826290E+03  0.00000000000E+00 0. -1.
         22    1    3    3    0    0 -0.34804719673E+02 -0.44199757154E+02 -0.61500890277E+03  0.61757666531E+03  0.00000000000E+00 0. -1.
</event>
<event>
 7    1  0.6358809E-006  0.4740703E+02  0.7818608E-02  0.1493108E+00
          2   -1    0    0  502    0  0.00000000000E+00  0.00000000000E+00  0.43700730587E+03  0.43700730587E+03  0.00000000000E+00 0. -1.
          1   -1    0    0  501    0 -0.00000000000E+00 -0.00000000000E+00 -0.34677578207E+02  0.34677578207E+02  0.00000000000E+00 0. -1.
         25    2    1    2    0    0  0.15422868756E+02  0.25049200039E+02  0.21076859110E+03  0.24680750067E+03  0.12500086436E+03 0.  0.
          2    1    1    2  501    0  0.10995783244E+02 -0.51575130718E+02  0.33573540607E+02  0.62514670171E+02  0.00000000000E+00 0. -1.
          1    1    1    2  502    0 -0.26418652000E+02  0.26525930679E+02  0.15798759596E+03  0.16236271323E+03  0.00000000000E+00 0. -1.
         22    1    3    3    0    0  0.70591478604E+02  0.16564934990E+02  0.12363605171E+03  0.14332978478E+03  0.00000000000E+00 0.  1.
         22    1    3    3    0    0 -0.55168609848E+02  0.84842650487E+01  0.87132539388E+02  0.10347771589E+03  0.00000000000E+00 0.  1.
</event>
<event>
 7    1  0.6358809E-006  0.1926626E+03  0.7818608E-02  0.1238011E+00
          2   -1    0    0  502    0  0.00000000000E+00  0.00000000000E+00  0.45137207117E+03  0.45137207117E+03  0.00000000000E+00 0. -1.
          1   -1    0    0  501    0 -0.00000000000E+00 -0.00000000000E+00 -0.66677673447E+03  0.66677673447E+03  0.00000000000E+00 0. -1.
         25    2    1    2    0    0 -0.37670677838E+02  0.21535368964E+03  0.35752996859E+02  0.25436162553E+03  0.12500107259E+03 0.  0.
          2    1    1    2  501    0 -0.58214113368E+02 -0.52960271399E+02 -0.52523329273E+03  0.53109668153E+03  0.00000000000E+00 0. -1.
          1    1    1    2  502    0  0.95884791206E+02 -0.16239341824E+03  0.27407563257E+03  0.33269049857E+03  0.00000000000E+00 0. -1.
         22    1    3    3    0    0 -0.89385254623E+01 -0.15825508922E+02  0.76316748457E+01  0.19712595746E+02  0.00000000000E+00 0.  1.
         22    1    3    3    0    0 -0.28732152376E+02  0.23117919856E+03  0.28121322014E+02  0.23464902978E+03  0.00000000000E+00 0.  1.
</event>
<event>
 7    1  0.6358809E-006  0.7420494E+02  0.7818608E-02  0.1412305E+00
          2   -1    0    0  502    0  0.00000000000E+00  0.00000000000E+00  0.17974543168E+03  0.17974543168E+03  0.00000000000E+00 0. -1.
          1   -1    0    0  501    0 -0.00000000000E+00 -0.00000000000E+00 -0.43430739042E+03  0.43430739042E+03  0.00000000000E+00 0. -1.
         25    2    1    2    0    0  0.23672370450E+02 -0.97084788269E+02  0.51785048808E+00  0.16003822382E+03  0.12500451063E+03 0.  0.
          2    1    1    2  501    0  0.17838120988E+02  0.39452712532E+02 -0.34031930045E+03  0.34306259101E+03  0.00000000000E+00 0. -1.
          1    1    1    2  502    0 -0.41510491438E+02  0.57632075737E+02  0.85239491226E+02  0.11095200727E+03  0.00000000000E+00 0. -1.
         22    1    3    3    0    0 -0.16161307088E+02 -0.14857491002E+02  0.51091094438E+02  0.55607848515E+02  0.00000000000E+00 0. -1.
         22    1    3    3    0    0  0.39833677538E+02 -0.82227297267E+02 -0.50573243950E+02  0.10443037530E+03  0.00000000000E+00 0. -1.
</event>
<event>
 7    1  0.6358809E-006  0.5802819E+02  0.7818608E-02  0.1420387E+00
          2   -1    0    0  502    0  0.00000000000E+00  0.00000000000E+00  0.24138045421E+04  0.24138045421E+04  0.00000000000E+00 0. -1.
          1   -1    0    0  501    0 -0.00000000000E+00 -0.00000000000E+00 -0.16082383019E+03  0.16082383019E+03  0.00000000000E+00 0. -1.
         25    2    1    2    0    0 -0.39926214814E+01 -0.88716172366E+02  0.85464908914E+02  0.17554009425E+03  0.12499429495E+03 0.  0.
          2    1    1    2  501    0  0.33761514066E+02  0.46062901587E+02 -0.10842861975E+03  0.12254956677E+03  0.00000000000E+00 0. -1.
          1    1    1    2  502    0 -0.29768892585E+02  0.42653270779E+02  0.22759444228E+04  0.22765387113E+04  0.00000000000E+00 0. -1.
         22    1    3    3    0    0  0.18908833884E+02 -0.42677667157E+02  0.10931046059E+03  0.11886001879E+03  0.00000000000E+00 0. -1.
         22    1    3    3    0    0 -0.22901455365E+02 -0.46038505209E+02 -0.23845551676E+02  0.56680075462E+02  0.00000000000E+00 0. -1.
</event>
<event>
 7    1  0.6358809E-006  0.1219252E+03  0.7818608E-02  0.1304911E+00
          2   -1    0    0  502    0  0.00000000000E+00  0.00000000000E+00  0.16148847151E+04  0.16148847151E+04  0.00000000000E+00 0. -1.
          1   -1    0    0  501    0 -0.00000000000E+00 -0.00000000000E+00 -0.54390713517E+03  0.54390713517E+03  0.00000000000E+00 0. -1.
         25    2    1    2    0    0 -0.72980024089E+02 -0.82302019793E+02  0.96813275412E+03  0.98234738079E+03  0.12500256220E+03 0.  0.
          2    1    1    2  501    0  0.35435722158E+02 -0.54721037110E+02 -0.52687688285E+03  0.53089484080E+03  0.00000000000E+00 0. -1.
          1    1    1    2  502    0  0.37544301931E+02  0.13702305690E+03  0.62972170865E+03  0.64554962867E+03  0.00000000000E+00 0. -1.
         22    1    3    3    0    0 -0.49889888882E+02 -0.38238867113E+02  0.14914348325E+03  0.16184866563E+03  0.00000000000E+00 0. -1.
         22    1    3    3    0    0 -0.23090135207E+02 -0.44063152680E+02  0.81898927087E+03  0.82049871516E+03  0.00000000000E+00 0. -1.
</event>
<event>
 7    1  0.6358809E-006  0.5142429E+02  0.7818608E-02  0.1461991E+00
          2   -1    0    0  502    0  0.00000000000E+00  0.00000000000E+00  0.20578630780E+04  0.20578630780E+04  0.00000000000E+00 0. -1.
          1   -1    0    0  501    0 -0.00000000000E+00 -0.00000000000E+00 -0.33078571961E+03  0.33078571961E+03  0.00000000000E+00 0. -1.
         25    2    1    2    0    0  0.29400170607E+02  0.40569537282E+02 -0.73994024034E+02  0.15364282745E+03  0.12498298062E+03 0.  0.
          2    1    1    2  501    0 -0.42003541789E+02  0.93437062827E+01 -0.21450189420E+03  0.21877537564E+03  0.00000000000E+00 0. -1.
          1    1    1    2  502    0  0.12603371182E+02 -0.49913243564E+02  0.20155732766E+04  0.20162305945E+04  0.00000000000E+00 0. -1.
         22    1    3    3    0    0  0.73117517593E+02  0.43416920057E+02 -0.69077664511E+02  0.10955785714E+03  0.00000000000E+00 0. -1.
         22    1    3    3    0    0 -0.43717346986E+02 -0.28473827757E+01 -0.49163595236E+01  0.44084970309E+02  0.00000000000E+00 0. -1.
</event>
<event>
 7    1  0.6358809E-006  0.1222490E+03  0.7818608E-02  0.1297399E+00
          2   -1    0    0  502    0  0.00000000000E+00  0.00000000000E+00  0.84313626961E+03  0.84313626961E+03  0.00000000000E+00 0. -1.
          1   -1    0    0  501    0 -0.00000000000E+00 -0.00000000000E+00 -0.71947868141E+03  0.71947868141E+03  0.00000000000E+00 0. -1.
         25    2    1    2    0    0 -0.13787457424E+03  0.12860195731E+03  0.30982337834E+02  0.22831877462E+03  0.12498678305E+03 0.  0.
          2    1    1    2  501    0  0.82838189103E+02 -0.85878662280E+02 -0.61334650554E+03  0.62484497763E+03  0.00000000000E+00 0. -1.
          1    1    1    2  502    0  0.55036385140E+02 -0.42723295032E+02  0.70602175591E+03  0.70945119878E+03  0.00000000000E+00 0. -1.
         22    1    3    3    0    0 -0.68814866395E+02 -0.14693371559E+01 -0.21291952966E+02  0.72048539539E+02  0.00000000000E+00 0. -1.
         22    1    3    3    0    0 -0.69059707848E+02  0.13007129447E+03  0.52274290801E+02  0.15627023508E+03  0.00000000000E+00 0. -1.
</event>
<event>
 7    1  0.6358809E-006  0.5633421E+02  0.7818608E-02  0.1510117E+00
          2   -1    0    0  502    0  0.00000000000E+00  0.00000000000E+00  0.10719596537E+04  0.10719596537E+04  0.00000000000E+00 0. -1.
          1   -1    0    0  501    0 -0.00000000000E+00 -0.00000000000E+00 -0.28531298596E+02  0.28531298596E+02  0.00000000000E+00 0. -1.
         25    2    1    2    0    0 -0.22586950097E+02  0.45711114819E+02  0.22766337138E+03  0.26467952209E+03  0.12499984965E+03 0.  0.
          2    1    1    2  501    0  0.48594772102E+02 -0.35238913422E+02  0.82585245491E+02  0.10209581611E+03  0.00000000000E+00 0. -1.
          1    1    1    2  502    0 -0.26007822006E+02 -0.10472201397E+02  0.73317973823E+03  0.73371561409E+03  0.00000000000E+00 0. -1.
         22    1    3    3    0    0 -0.38167069860E+02  0.32204048655E+02  0.16620081583E+02  0.52631293764E+02  0.00000000000E+00 0.  1.
         22    1    3    3    0    0  0.15580119763E+02  0.13507066164E+02  0.21104328980E+03  0.21204822833E+03  0.00000000000E+00 0.  1.
</event>
<event>
 7    1  0.6358809E-006  0.1101462E+03  0.7818608E-02  0.1372858E+00
          2   -1    0    0  502    0  0.00000000000E+00  0.00000000000E+00  0.23890226761E+03  0.23890226761E+03  0.00000000000E+00 0. -1.
          1   -1    0    0  501    0 -0.00000000000E+00 -0.00000000000E+00 -0.70648215607E+03  0.70648215607E+03  0.00000000000E+00 0. -1.
         25    2    1    2    0    0 -0.14156635876E+03 -0.19853138177E+00  0.12632598720E+02  0.18927780999E+03  0.12500173381E+03 0.  0.
          2    1    1    2  501    0  0.38730408102E+02 -0.10009535419E+02 -0.59804291317E+03  0.59937931337E+03  0.00000000000E+00 0. -1.
          1    1    1    2  502    0  0.10283595066E+03  0.10208066801E+02  0.11783042598E+03  0.15672730031E+03  0.00000000000E+00 0. -1.
         22    1    3    3    0    0 -0.92138159386E+02  0.19368685856E+02  0.65193986649E+02  0.11452005196E+03  0.00000000000E+00 0. -1.
         22    1    3    3    0    0 -0.49428199375E+02 -0.19567217237E+02 -0.52561387929E+02  0.74757758025E+02  0.00000000000E+00 0. -1.
</event>
<event>
 7    1  0.6358809E-006  0.5017245E+02  0.7818608E-02  0.1516189E+00
          2   -1    0    0  502    0  0.00000000000E+00  0.00000000000E+00  0.55701260302E+03  0.55701260302E+03  0.00000000000E+00 0. -1.
          1   -1    0    0  501    0 -0.00000000000E+00 -0.00000000000E+00 -0.40422677626E+03  0.40422677626E+03  0.00000000000E+00 0. -1.
         25    2    1    2    0    0  0.57025888593E+02  0.52302995207E+02  0.29005456048E+02  0.14984336981E+03  0.12499665483E+03 0.  0.
          2    1    1    2  501    0 -0.42381299777E+02 -0.25872697723E+02 -0.34152238135E+03  0.34511318147E+03  0.00000000000E+00 0. -1.
          1    1    1    2  502    0 -0.14644588816E+02 -0.26430297484E+02  0.46530275207E+03  0.46628282800E+03  0.00000000000E+00 0. -1.
         22    1    3    3    0    0 -0.25569040092E+02  0.89228247963E+01  0.47552920174E+02  0.54723603963E+02  0.00000000000E+00 0. -1.
         22    1    3    3    0    0  0.82594928685E+02  0.43380170411E+02 -0.18547464126E+02  0.95119765848E+02  0.00000000000E+00 0. -1.
</event>
<event>
 7    1  0.6358809E-006  0.6957798E+02  0.7818608E-02  0.1396147E+00
          2   -1    0    0  502    0  0.00000000000E+00  0.00000000000E+00  0.15403636875E+04  0.15403636875E+04  0.00000000000E+00 0. -1.
          1   -1    0    0  501    0 -0.00000000000E+00 -0.00000000000E+00 -0.90894417109E+02  0.90894417109E+02  0.00000000000E+00 0. -1.
         25    2    1    2    0    0 -0.37414523951E+02 -0.31793661696E+02  0.15006978227E+03  0.20138588156E+03  0.12499860086E+03 0.  0.
          2    1    1    2  501    0 -0.32892832102E+02  0.40839325253E+02 -0.53618704574E+02  0.74998362456E+02  0.00000000000E+00 0. -1.
          1    1    1    2  502    0  0.70307356053E+02 -0.90456635566E+01  0.13530181927E+04  0.13548738606E+04  0.00000000000E+00 0. -1.
         22    1    3    3    0    0 -0.54044761030E+02  0.27658250696E+02  0.33157152772E+02  0.69175225379E+02  0.00000000000E+00 0.  1.
         22    1    3    3    0    0  0.16630237079E+02 -0.59451912392E+02  0.11691262950E+03  0.13221065618E+03  0.00000000000E+00 0.  1.
</event>
<event>
 7    1  0.6358809E-006  0.1229564E+03  0.7818608E-02  0.1321574E+00
          2   -1    0    0  502    0  0.00000000000E+00  0.00000000000E+00  0.88689890006E+03  0.88689890006E+03  0.00000000000E+00 0. -1.
          1   -1    0    0  501    0 -0.00000000000E+00 -0.00000000000E+00 -0.47135152765E+03  0.47135152765E+03  0.00000000000E+00 0. -1.
         25    2    1    2    0    0  0.74779522095E+02  0.33146663445E+02 -0.13743384207E+02  0.15001556497E+03  0.12500044360E+03 0.  0.
          2    1    1    2  501    0 -0.10039753123E+03 -0.82511781360E+02 -0.37764794451E+03  0.39938180772E+03  0.00000000000E+00 0. -1.
          1    1    1    2  502    0  0.25618009138E+02  0.49365117915E+02  0.80693870112E+03  0.80885305503E+03  0.00000000000E+00 0. -1.
         22    1    3    3    0    0  0.10281822578E+02  0.34551407588E+02 -0.60441163357E+02  0.70375065682E+02  0.00000000000E+00 0.  1.
         22    1    3    3    0    0  0.64497699517E+02 -0.14047441427E+01  0.46697779150E+02  0.79640499286E+02  0.00000000000E+00 0.  1.
</event>
<event>
 7    1  0.6358809E-006  0.1329147E+03  0.7818608E-02  0.1297532E+00
          2   -1    0    0  502    0  0.00000000000E+00  0.00000000000E+00  0.94344742345E+03  0.94344742345E+03  0.00000000000E+00 0. -1.
          1   -1    0    0  501    0 -0.00000000000E+00 -0.00000000000E+00 -0.39985572406E+03  0.39985572406E+03  0.00000000000E+00 0. -1.
         25    2    1    2    0    0 -0.10640161359E+03 -0.94984948702E+02  0.50536681037E+02  0.19627049208E+03  0.12499882430E+03 0.  0.
          2    1    1    2  501    0  0.12866482196E+03  0.34978651679E+02 -0.31207353611E+03  0.33936416196E+03  0.00000000000E+00 0. -1.
          1    1    1    2  502    0 -0.22263208374E+02  0.60006297023E+02  0.80512855446E+03  0.80766849347E+03  0.00000000000E+00 0. -1.
         22    1    3    3    0    0 -0.88815221445E+02 -0.68345908983E+01  0.57644289013E+02  0.10610239983E+03  0.00000000000E+00 0. -1.
         22    1    3    3    0    0 -0.17586392141E+02 -0.88150357803E+02 -0.71076079763E+01  0.90168092253E+02  0.00000000000E+00 0. -1.
</event>
<event>
 7    1  0.6358809E-006  0.4958670E+02  0.7818608E-02  0.1536395E+00
          2   -1    0    0  502    0  0.00000000000E+00  0.00000000000E+00  0.15328861200E+03  0.15328861200E+03  0.00000000000E+00 0. -1.
          1   -1    0    0  501    0 -0.00000000000E+00 -0.00000000000E+00 -0.85601876366E+03  0.85601876366E+03  0.00000000000E+00 0. -1.
         25    2    1    2    0    0  0.38168893516E+02  0.46217544053E+02 -0.57872154903E+03  0.59509390058E+03  0.12500077354E+03 0.  0.
          2    1    1    2  501    0 -0.26666185031E+02  0.19846984610E+01 -0.26418526502E+03  0.26553507999E+03  0.00000000000E+00 0. -1.
          1    1    1    2  502    0 -0.11502708485E+02 -0.48202242514E+02  0.14017666240E+03  0.14867839509E+03  0.00000000000E+00 0. -1.
         22    1    3    3    0    0 -0.17563224511E+02 -0.29586899198E+02 -0.27469883716E+03  0.27684526833E+03  0.00000000000E+00 0.  1.
         22    1    3    3    0    0  0.55732118027E+02  0.75804443251E+02 -0.30402271188E+03  0.31824863226E+03  0.00000000000E+00 0.  1.
</event>
<event>
 7    1  0.6358809E-006  0.5054857E+02  0.7818608E-02  0.1470600E+00
          2   -1    0    0  502    0  0.00000000000E+00  0.00000000000E+00  0.45228383639E+04  0.45228383639E+04  0.00000000000E+00 0. -1.
          1   -1    0    0  501    0 -0.00000000000E+00 -0.00000000000E+00 -0.96800280773E+03  0.96800280773E+03  0.00000000000E+00 0. -1.
         25    2    1    2    0    0  0.10877066020E+02  0.64781340027E+02  0.21007206187E+04  0.21054610451E+04  0.12499664692E+03 0.  0.
          2    1    1    2  501    0 -0.37746026165E+02 -0.33621031252E+02 -0.96479600289E+03  0.96611928012E+03  0.00000000000E+00 0. -1.
          1    1    1    2  502    0  0.26868960146E+02 -0.31160308775E+02  0.24189109404E+04  0.24192608465E+04  0.00000000000E+00 0. -1.
         22    1    3    3    0    0 -0.15120142827E+02  0.17013667436E+02  0.17811894807E+04  0.17813349067E+04  0.00000000000E+00 0. -1.
         22    1    3    3    0    0  0.25997208847E+02  0.47767672591E+02  0.31953113801E+03  0.32412613836E+03  0.00000000000E+00 0. -1.
</event>
<event>
 7    1  0.6358809E-006  0.7613439E+02  0.7818608E-02  0.1506141E+00
          2   -1    0    0  502    0  0.00000000000E+00  0.00000000000E+00  0.40421792457E+02  0.40421792457E+02  0.00000000000E+00 0. -1.
          1   -1    0    0  501    0 -0.00000000000E+00 -0.00000000000E+00 -0.11491803594E+04  0.11491803594E+04  0.00000000000E+00 0. -1.
         25    2    1    2    0    0  0.45540051222E+02 -0.36536931398E+02 -0.56628271644E+03  0.58284605639E+03  0.12499826757E+03 0.  0.
          2    1    1    2  501    0  0.78657725787E+01 -0.19809090227E+02 -0.52720334871E+03  0.52763400319E+03  0.00000000000E+00 0. -1.
          1    1    1    2  502    0 -0.53405823801E+02  0.56346021625E+02 -0.15272501754E+02  0.79122092229E+02  0.00000000000E+00 0. -1.
         22    1    3    3    0    0 -0.67514377810E+00 -0.76412058954E+02 -0.33937799269E+03  0.34787451832E+03  0.00000000000E+00 0.  1.
         22    1    3    3    0    0  0.46215195000E+02  0.39875127556E+02 -0.22690472375E+03  0.23497153807E+03  0.00000000000E+00 0.  1.
</event>
<event>
 7    1  0.6358809E-006  0.1557649E+03  0.7818608E-02  0.1383591E+00
          2   -1    0    0  502    0  0.00000000000E+00  0.00000000000E+00  0.24963881640E+04  0.24963881640E+04  0.00000000000E+00 0. -1.
          1   -1    0    0  501    0 -0.00000000000E+00 -0.00000000000E+00 -0.23651367732E+03  0.23651367732E+03  0.00000000000E+00 0. -1.
         25    2    1    2    0    0  0.13028796692E+03 -0.65977220928E+02 -0.34144983603E+02  0.19524553374E+03  0.12500796189E+03 0.  0.
          2    1    1    2  501    0  0.18285276793E+02  0.18357699364E+02 -0.11789109781E+03  0.12070487735E+03  0.00000000000E+00 0. -1.
          1    1    1    2  502    0 -0.14857324371E+03  0.47619521564E+02  0.24119105681E+04  0.24169514302E+04  0.00000000000E+00 0. -1.
         22    1    3    3    0    0  0.72005861184E+02 -0.41646227742E+02 -0.81386912489E+02  0.11637474750E+03  0.00000000000E+00 0. -1.
         22    1    3    3    0    0  0.58282105732E+02 -0.24330993186E+02  0.47241928886E+02  0.78870786244E+02  0.00000000000E+00 0. -1.
</event>
<event>
 7    1  0.6358809E-006  0.2031667E+03  0.7818608E-02  0.1194646E+00
          2   -1    0    0  502    0  0.00000000000E+00  0.00000000000E+00  0.58151683428E+03  0.58151683428E+03  0.00000000000E+00 0. -1.
          1   -1    0    0  501    0 -0.00000000000E+00 -0.00000000000E+00 -0.21617307575E+04  0.21617307575E+04  0.00000000000E+00 0. -1.
         25    2    1    2    0    0  0.25331688594E+03  0.98436370811E+01  0.70834843185E+02  0.29139417344E+03  0.12500658950E+03 0.  0.
          2    1    1    2  501    0 -0.74336160298E+02 -0.91657139675E+02 -0.20254489936E+04  0.20288840583E+04  0.00000000000E+00 0. -1.
          1    1    1    2  502    0 -0.17898072564E+03  0.81813502593E+02  0.37440022727E+03  0.42296936005E+03  0.00000000000E+00 0. -1.
         22    1    3    3    0    0  0.15109736032E+03  0.12448599457E+02 -0.22108528438E+02  0.15321281589E+03  0.00000000000E+00 0. -1.
         22    1    3    3    0    0  0.10221952561E+03 -0.26049623759E+01  0.92943371623E+02  0.13818135755E+03  0.00000000000E+00 0. -1.
</event>
<event>
 7    1  0.6358809E-006  0.5784827E+02  0.7818608E-02  0.1431396E+00
          2   -1    0    0  502    0  0.00000000000E+00  0.00000000000E+00  0.11430131134E+04  0.11430131134E+04  0.00000000000E+00 0. -1.
          1   -1    0    0  501    0 -0.00000000000E+00 -0.00000000000E+00 -0.28338354639E+03  0.28338354639E+03  0.00000000000E+00 0. -1.
         25    2    1    2    0    0 -0.72001907464E+02 -0.40925872314E+01 -0.29227421245E+02  0.14723941199E+03  0.12499671333E+03 0.  0.
          2    1    1    2  501    0  0.26564883260E+02  0.39948526063E+02 -0.19141515524E+03  0.19733560098E+03  0.00000000000E+00 0. -1.
          1    1    1    2  502    0  0.45437024205E+02 -0.35855938831E+02  0.10802721435E+04  0.10818216468E+04  0.00000000000E+00 0. -1.
         22    1    3    3    0    0 -0.41781356737E+02 -0.35003385098E+02  0.38612333733E+02  0.66796938967E+02  0.00000000000E+00 0.  1.
         22    1    3    3    0    0 -0.30220550727E+02  0.30910797866E+02 -0.67839754978E+02  0.80442473025E+02  0.00000000000E+00 0.  1.
</event>
<event>
 7    1  0.6358809E-006  0.6123431E+02  0.7818608E-02  0.1471433E+00
          2   -1    0    0  502    0  0.00000000000E+00  0.00000000000E+00  0.83206913615E+02  0.83206913615E+02  0.00000000000E+00 0. -1.
          1   -1    0    0  501    0 -0.00000000000E+00 -0.00000000000E+00 -0.20872554644E+04  0.20872554644E+04  0.00000000000E+00 0. -1.
         25    2    1    2    0    0 -0.24718062896E+02 -0.23020259936E+02 -0.72347683958E+03  0.73497289358E+03  0.12500200757E+03 0.  0.
          2    1    1    2  501    0  0.34204425279E+02  0.55423110635E+02 -0.13535308719E+04  0.13550968545E+04  0.00000000000E+00 0. -1.
          1    1    1    2  502    0 -0.94863623833E+01 -0.32402850699E+02  0.72959160735E+02  0.80392629885E+02  0.00000000000E+00 0. -1.
         22    1    3    3    0    0 -0.53303549103E+02 -0.53928261108E+02 -0.30100967501E+03  0.31041319260E+03  0.00000000000E+00 0.  1.
         22    1    3    3    0    0  0.28585486207E+02  0.30908001172E+02 -0.42246716457E+03  0.42455970098E+03  0.00000000000E+00 0.  1.
</event>
<event>
 7    1  0.6358809E-006  0.1444091E+03  0.7818608E-02  0.1391869E+00
          2   -1    0    0  502    0  0.00000000000E+00  0.00000000000E+00  0.57752541068E+03  0.57752541068E+03  0.00000000000E+00 0. -1.
          1   -1    0    0  501    0 -0.00000000000E+00 -0.00000000000E+00 -0.10822099454E+04  0.10822099454E+04  0.00000000000E+00 0. -1.
         25    2    1    2    0    0  0.98335481479E+02 -0.13296405357E+03 -0.69187320314E+03  0.72226393752E+03  0.12500943869E+03 0.  0.
          2    1    1    2  501    0 -0.16051312594E+01  0.26094420885E+02 -0.36542929265E+03  0.36636329398E+03  0.00000000000E+00 0. -1.
          1    1    1    2  502    0 -0.96730350220E+02  0.10686963269E+03  0.55261796108E+03  0.57110812457E+03  0.00000000000E+00 0. -1.
         22    1    3    3    0    0  0.10008914477E+03 -0.42243616229E+02 -0.27609515806E+03  0.29670001065E+03  0.00000000000E+00 0. -1.
         22    1    3    3    0    0 -0.17536632939E+01 -0.90720437345E+02 -0.41577804508E+03  0.42556392688E+03  0.00000000000E+00 0. -1.
</event>
<event>
 7    1  0.1472418E-005  0.1205517E+03  0.7818608E-02  0.1357533E+00
          2   -1    0    0  502    0  0.00000000000E+00  0.00000000000E+00  0.14279794717E+04  0.14279794717E+04  0.00000000000E+00 0. -1.
          1   -1    0    0  501    0 -0.00000000000E+00 -0.00000000000E+00 -0.20938827160E+04  0.20938827160E+04  0.00000000000E+00 0. -1.
         25    2    1    2    0    0  0.13707470087E+03 -0.16272555869E+02 -0.65211623009E+03  0.67818284965E+03  0.12498852075E+03 0.  0.
          2    1    1    2  501    0 -0.26609733999E+02 -0.31887544854E+02 -0.14258644574E+04  0.14264691880E+04  0.00000000000E+00 0. -1.
          1    1    1    2  502    0 -0.11046496687E+03  0.48160100722E+02  0.14120774431E+04  0.14172101501E+04  0.00000000000E+00 0. -1.
         22    1    3    3    0    0  0.95066537093E+02 -0.63277786363E+02 -0.51131732882E+03  0.52391519875E+03  0.00000000000E+00 0. -1.
         22    1    3    3    0    0  0.42008163773E+02  0.47005230494E+02 -0.14079890127E+03  0.15426765090E+03  0.00000000000E+00 0. -1.
</event>
<event>
 7    1  0.6358809E-006  0.1094880E+03  0.7818608E-02  0.1355547E+00
          2   -1    0    0  502    0  0.00000000000E+00  0.00000000000E+00  0.34087977763E+03  0.34087977763E+03  0.00000000000E+00 0. -1.
          1   -1    0    0  501    0 -0.00000000000E+00 -0.00000000000E+00 -0.13864366892E+04  0.13864366892E+04  0.00000000000E+00 0. -1.
         25    2    1    2    0    0  0.48593335067E+02 -0.67634668710E+02 -0.18248972687E+03  0.23635444063E+03  0.12500064227E+03 0.  0.
          2    1    1    2  501    0 -0.23048398869E+02 -0.40388647344E+02 -0.11667251100E+04  0.11676514693E+04  0.00000000000E+00 0. -1.
          1    1    1    2  502    0 -0.25544936198E+02  0.10802331605E+03  0.30365792531E+03  0.32331055686E+03  0.00000000000E+00 0. -1.
         22    1    3    3    0    0 -0.34272043006E+02 -0.13754963615E+02 -0.10329975851E+03  0.10970237949E+03  0.00000000000E+00 0. -1.
         22    1    3    3    0    0  0.82865378073E+02 -0.53879705096E+02 -0.79189968358E+02  0.12665206115E+03  0.00000000000E+00 0. -1.
</event>
<event>
 7    1  0.6358809E-006  0.9943318E+02  0.7818608E-02  0.1390949E+00
          2   -1    0    0  502    0  0.00000000000E+00  0.00000000000E+00  0.13127737805E+04  0.13127737805E+04  0.00000000000E+00 0. -1.
          1   -1    0    0  501    0 -0.00000000000E+00 -0.00000000000E+00 -0.24091691103E+02  0.24091691103E+02  0.00000000000E+00 0. -1.
         25    2    1    2    0    0  0.18303121330E+02  0.75633301062E+02  0.63394023290E+03  0.65082620708E+03  0.12505651705E+03 0.  0.
          2    1    1    2  501    0 -0.52509730108E+02 -0.92750421305E+02  0.17589500537E+03  0.20566712261E+03  0.00000000000E+00 0. -1.
          1    1    1    2  502    0  0.34206608778E+02  0.17117120243E+02  0.47884685109E+03  0.48037214187E+03  0.00000000000E+00 0. -1.
         22    1    3    3    0    0  0.12977941917E+02  0.92808026492E+02  0.25860572835E+03  0.27506122863E+03  0.00000000000E+00 0.  1.
         22    1    3    3    0    0  0.53251794129E+01 -0.17174725430E+02  0.37533450455E+03  0.37576497845E+03  0.00000000000E+00 0.  1.
</event>
<event>
 7    1  0.6358809E-006  0.8737326E+02  0.7818608E-02  0.1322938E+00
          2   -1    0    0  502    0  0.00000000000E+00  0.00000000000E+00  0.18979029224E+04  0.18979029224E+04  0.00000000000E+00 0. -1.
          1   -1    0    0  501    0 -0.00000000000E+00 -0.00000000000E+00 -0.10490677284E+04  0.10490677284E+04  0.00000000000E+00 0. -1.
         25    2    1    2    0    0  0.20044221180E+02  0.12194161658E+01  0.11599432381E+04  0.11668317617E+04  0.12499914710E+03 0.  0.
          2    1    1    2  501    0 -0.47398426796E+02 -0.73541019894E+02 -0.10417496720E+04  0.10454172715E+04  0.00000000000E+00 0. -1.
          1    1    1    2  502    0  0.27354205616E+02  0.72321603728E+02  0.73064162791E+03  0.73472161760E+03  0.00000000000E+00 0. -1.
         22    1    3    3    0    0  0.71013514089E+02  0.28497304491E+01  0.51583395974E+03  0.52070693693E+03  0.00000000000E+00 0.  1.
         22    1    3    3    0    0 -0.50969292909E+02 -0.16303142832E+01  0.64410927832E+03  0.64612482476E+03  0.00000000000E+00 0.  1.
</event>
<event>
 7    1  0.6358809E-006  0.3352215E+02  0.7818608E-02  0.1620206E+00
          2   -1    0    0  502    0  0.00000000000E+00  0.00000000000E+00  0.43099115346E+03  0.43099115346E+03  0.00000000000E+00 0. -1.
          1   -1    0    0  501    0 -0.00000000000E+00 -0.00000000000E+00 -0.11744905744E+04  0.11744905744E+04  0.00000000000E+00 0. -1.
         25    2    1    2    0    0 -0.45827883224E+02 -0.94304668224E+01  0.68688183070E+02  0.15010670659E+03  0.12499931313E+03 0.  0.
          2    1    1    2  501    0  0.20257509749E+02 -0.11988642546E+02 -0.11327937835E+04  0.11330383269E+04  0.00000000000E+00 0. -1.
          1    1    1    2  502    0  0.25570373475E+02  0.21419109368E+02  0.32060617947E+03  0.32233669441E+03  0.00000000000E+00 0. -1.
         22    1    3    3    0    0 -0.48200970660E+01  0.43494995871E+02  0.70672172000E+02  0.83124027193E+02  0.00000000000E+00 0. -1.
         22    1    3    3    0    0 -0.41007786158E+02 -0.52925462694E+02 -0.19839889305E+01  0.66982679396E+02  0.00000000000E+00 0. -1.
</event>
<event>
 7    1  0.6358809E-006  0.1593689E+03  0.7818608E-02  0.1361429E+00
          2   -1    0    0  502    0  0.00000000000E+00  0.00000000000E+00  0.96486458280E+03  0.96486458280E+03  0.00000000000E+00 0. -1.
          1   -1    0    0  501    0 -0.00000000000E+00 -0.00000000000E+00 -0.89382784471E+03  0.89382784471E+03  0.00000000000E+00 0. -1.
         25    2    1    2    0    0  0.36159357753E+02 -0.15271690908E+03  0.13276402736E+03  0.24058031983E+03  0.12499059906E+03 0.  0.
          2    1    1    2  501    0 -0.65678393017E+02  0.14543757903E+03 -0.83203729712E+03  0.84720233977E+03  0.00000000000E+00 0. -1.
          1    1    1    2  502    0  0.29519035264E+02  0.72793300497E+01  0.77031000785E+03  0.77090976792E+03  0.00000000000E+00 0. -1.
         22    1    3    3    0    0  0.77944758588E+02 -0.12117144966E+03  0.74321769483E+02  0.16211610353E+03  0.00000000000E+00 0.  1.
         22    1    3    3    0    0 -0.41785400835E+02 -0.31545459415E+02  0.58442257882E+02  0.78464216296E+02  0.00000000000E+00 0.  1.
</event>
<event>
 7    1  0.6358809E-006  0.7482250E+02  0.7818608E-02  0.1468575E+00
          2   -1    0    0  502    0  0.00000000000E+00  0.00000000000E+00  0.14823429516E+04  0.14823429516E+04  0.00000000000E+00 0. -1.
          1   -1    0    0  501    0 -0.00000000000E+00 -0.00000000000E+00 -0.56272142567E+03  0.56272142567E+03  0.00000000000E+00 0. -1.
         25    2    1    2    0    0 -0.96377688774E+02 -0.33035833834E+02  0.12567141633E+03  0.20444642097E+03  0.12500003583E+03 0.  0.
          2    1    1    2  501    0  0.25026020741E+02  0.13003852475E+02 -0.52191053405E+03  0.52267198839E+03  0.00000000000E+00 0. -1.
          1    1    1    2  502    0  0.71351668033E+02  0.20031981359E+02  0.13158606436E+04  0.13179459679E+04  0.00000000000E+00 0. -1.
         22    1    3    3    0    0  0.27943260726E+02 -0.19519664904E+02  0.41502153140E+02  0.53705417355E+02  0.00000000000E+00 0. -1.
         22    1    3    3    0    0 -0.12432094950E+03 -0.13516168930E+02  0.84169263186E+02  0.15074100362E+03  0.00000000000E+00 0. -1.
</event>
<event>
 7    1  0.6358809E-006  0.9348233E+02  0.7818608E-02  0.1475676E+00
          2   -1    0    0  502    0  0.00000000000E+00  0.00000000000E+00  0.17483662985E+04  0.17483662985E+04  0.00000000000E+00 0. -1.
          1   -1    0    0  501    0 -0.00000000000E+00 -0.00000000000E+00 -0.67042869423E+03  0.67042869423E+03  0.00000000000E+00 0. -1.
         25    2    1    2    0    0  0.10589903722E+03  0.12469936615E+02  0.52858343446E+02  0.17259545549E+03  0.12500032552E+03 0.  0.
          2    1    1    2  501    0 -0.12797159164E+02 -0.17223398599E+02 -0.60904274145E+03  0.60942060488E+03  0.00000000000E+00 0. -1.
          1    1    1    2  502    0 -0.93101878061E+02  0.47534619837E+01  0.16341220022E+04  0.16367789323E+04  0.00000000000E+00 0. -1.
         22    1    3    3    0    0 -0.71668244277E+01 -0.39185255679E+01  0.57671152885E+02  0.58246717419E+02  0.00000000000E+00 0. -1.
         22    1    3    3    0    0  0.11306586165E+03  0.16388462183E+02 -0.48128094384E+01  0.11434873807E+03  0.00000000000E+00 0. -1.
</event>
<event>
 7    1  0.6358809E-006  0.9581080E+02  0.7818608E-02  0.1410373E+00
          2   -1    0    0  502    0  0.00000000000E+00  0.00000000000E+00  0.67048388707E+03  0.67048388707E+03  0.00000000000E+00 0. -1.
          1   -1    0    0  501    0 -0.00000000000E+00 -0.00000000000E+00 -0.13601362293E+03  0.13601362293E+03  0.00000000000E+00 0. -1.
         25    2    1    2    0    0 -0.50387370428E+02  0.43146906421E+02  0.92113953163E+02  0.16884257272E+03  0.12498916498E+03 0.  0.
          2    1    1    2  501    0 -0.31221405556E+02  0.13568910655E+02 -0.89936692676E+02  0.96163923541E+02  0.00000000000E+00 0. -1.
          1    1    1    2  502    0  0.81608775984E+02 -0.56715817076E+02  0.53229300365E+03  0.54149101374E+03  0.00000000000E+00 0. -1.
         22    1    3    3    0    0 -0.83116729930E+02  0.12944905195E+02  0.24024912026E+02  0.87482328287E+02  0.00000000000E+00 0. -1.
         22    1    3    3    0    0  0.32729359502E+02  0.30202001226E+02  0.68089041137E+02  0.81360244435E+02  0.00000000000E+00 0. -1.
</event>
<event>
 7    1  0.6358809E-006  0.1309950E+03  0.7818608E-02  0.1372031E+00
          2   -1    0    0  502    0  0.00000000000E+00  0.00000000000E+00  0.27200668320E+03  0.27200668320E+03  0.00000000000E+00 0. -1.
          1   -1    0    0  501    0 -0.00000000000E+00 -0.00000000000E+00 -0.12810774294E+04  0.12810774294E+04  0.00000000000E+00 0. -1.
         25    2    1    2    0    0 -0.25992997067E+02  0.10284012887E+03  0.10397162281E+02  0.16427047165E+03  0.12499983548E+03 0.  0.
          2    1    1    2  501    0 -0.13715912775E+02  0.30964667686E+02 -0.11774908380E+04  0.11779777632E+04  0.00000000000E+00 0. -1.
          1    1    1    2  502    0  0.39708909842E+02 -0.13380479655E+03  0.15802292953E+03  0.21083587778E+03  0.00000000000E+00 0. -1.
         22    1    3    3    0    0 -0.23959931553E+01 -0.28942229843E+02  0.89331991746E+01  0.30384132355E+02  0.00000000000E+00 0. -1.
         22    1    3    3    0    0 -0.23597003912E+02  0.13178235871E+03  0.14639631068E+01  0.13388633929E+03  0.00000000000E+00 0. -1.
</event>
<event>
 7    1  0.6358809E-006  0.1029897E+03  0.7818608E-02  0.1383093E+00
          2   -1    0    0  502    0  0.00000000000E+00  0.00000000000E+00  0.33755801654E+04  0.33755801654E+04  0.00000000000E+00 0. -1.
          1   -1    0    0  501    0 -0.00000000000E+00 -0.00000000000E+00 -0.75419004463E+02  0.75419004463E+02  0.00000000000E+00 0. -1.
         25    2    1    2    0    0  0.67941384591E+02 -0.41592281041E+02  0.11822028503E+03  0.18959743480E+03  0.12500080762E+03 0.  0.
          2    1    1    2  501    0 -0.30547838141E+01 -0.39227835058E+02 -0.28943211882E+02  0.48845309515E+02  0.00000000000E+00 0. -1.
          1    1    1    2  502    0 -0.64886600777E+02  0.80820116100E+02  0.32108840878E+04  0.32125564256E+04  0.00000000000E+00 0. -1.
         22    1    3    3    0    0  0.10447942412E+03 -0.33095760125E+02  0.77485189496E+02  0.13422084039E+03  0.00000000000E+00 0.  1.
         22    1    3    3    0    0 -0.36538039530E+02 -0.84965209162E+01  0.40735095534E+02  0.55376594411E+02  0.00000000000E+00 0.  1.
</event>
<event>
 7    1  0.6358809E-006  0.8350177E+02  0.7818608E-02  0.1417950E+00
          2   -1    0    0  502    0  0.00000000000E+00  0.00000000000E+00  0.27911524885E+04  0.27911524885E+04  0.00000000000E+00 0. -1.
          1   -1    0    0  501    0 -0.00000000000E+00 -0.00000000000E+00 -0.92556278542E+02  0.92556278542E+02  0.00000000000E+00 0. -1.
         25    2    1    2    0    0  0.10615570224E+03  0.35894078298E+02  0.98873009912E+03  0.10028807851E+04  0.12500096865E+03 0.  0.
          2    1    1    2  501    0 -0.36624434675E+02  0.38975095076E+01 -0.80575853911E+02  0.88594627541E+02  0.00000000000E+00 0. -1.
          1    1    1    2  502    0 -0.69531267566E+02 -0.39791587805E+02  0.17904419647E+04  0.17922333544E+04  0.00000000000E+00 0. -1.
         22    1    3    3    0    0  0.25341717282E+02  0.70899720774E+02  0.57292128094E+03  0.57784752936E+03  0.00000000000E+00 0.  1.
         22    1    3    3    0    0  0.80813984959E+02 -0.35005642476E+02  0.41580881819E+03  0.42503325570E+03  0.00000000000E+00 0.  1.
</event>
<event>
 7    1  0.6358809E-006  0.1490177E+03  0.7818608E-02  0.1252814E+00
          2   -1    0    0  502    0  0.00000000000E+00  0.00000000000E+00  0.99437207607E+03  0.99437207607E+03  0.00000000000E+00 0. -1.
          1   -1    0    0  501    0 -0.00000000000E+00 -0.00000000000E+00 -0.57498346995E+03  0.57498346995E+03  0.00000000000E+00 0. -1.
         25    2    1    2    0    0  0.30305710897E+01 -0.80549282398E+02 -0.74157356792E+02  0.16619784076E+03  0.12500014981E+03 0.  0.
          2    1    1    2  501    0  0.68594839192E+02 -0.54589628128E+02 -0.44432839967E+03  0.45289403421E+03  0.00000000000E+00 0. -1.
          1    1    1    2  502    0 -0.71625410282E+02  0.13513891053E+03  0.93787436259E+03  0.95026367106E+03  0.00000000000E+00 0. -1.
         22    1    3    3    0    0 -0.45497039011E+02  0.86377865817E+01 -0.14957602838E+02  0.48665406589E+02  0.00000000000E+00 0.  1.
         22    1    3    3    0    0  0.48527610100E+02 -0.89187068980E+02 -0.59199753953E+02  0.11753243418E+03  0.00000000000E+00 0.  1.
</event>
<event>
 7    1  0.6358809E-006  0.2024834E+03  0.7818608E-02  0.1293949E+00
          2   -1    0    0  502    0  0.00000000000E+00  0.00000000000E+00  0.10361967194E+04  0.10361967194E+04  0.00000000000E+00 0. -1.
          1   -1    0    0  501    0 -0.00000000000E+00 -0.00000000000E+00 -0.14577873951E+04  0.14577873951E+04  0.00000000000E+00 0. -1.
         25    2    1    2    0    0 -0.20453408877E+03  0.11480180492E+03 -0.21462905014E+03  0.34162178803E+03  0.12500467597E+03 0.  0.
          2    1    1    2  501    0  0.17733811476E+02 -0.39648236489E+02 -0.11688342337E+04  0.11696409434E+04  0.00000000000E+00 0. -1.
          1    1    1    2  502    0  0.18680027729E+03 -0.75153568432E+02  0.96187260816E+03  0.98272138308E+03  0.00000000000E+00 0. -1.
         22    1    3    3    0    0 -0.16415695889E+03  0.12778108081E+03 -0.21505747027E+03  0.29920766581E+03  0.00000000000E+00 0.  1.
         22    1    3    3    0    0 -0.40377129878E+02 -0.12979275891E+02  0.42842012432E+00  0.42414122219E+02  0.00000000000E+00 0.  1.
</event>
<event>
 7    1  0.6358809E-006  0.5413601E+02  0.7818608E-02  0.1550790E+00
          2   -1    0    0  502    0  0.00000000000E+00  0.00000000000E+00  0.17738182895E+04  0.17738182895E+04  0.00000000000E+00 0. -1.
          1   -1    0    0  501    0 -0.00000000000E+00 -0.00000000000E+00 -0.33956143278E+03  0.33956143278E+03  0.00000000000E+00 0. -1.
         25    2    1    2    0    0  0.31539183699E+02  0.99569057119E+01  0.12894156152E+04  0.12958825940E+04  0.12500083431E+03 0.  0.
          2    1    1    2  501    0 -0.53685787371E+02 -0.72446495181E+01 -0.33388503306E+03  0.33825118479E+03  0.00000000000E+00 0. -1.
          1    1    1    2  502    0  0.22146603672E+02 -0.27122561937E+01  0.47872627464E+03  0.47924594356E+03  0.00000000000E+00 0. -1.
         22    1    3    3    0    0  0.14607901954E+02  0.61936065710E+02  0.94650610813E+03  0.94864286208E+03  0.00000000000E+00 0.  1.
         22    1    3    3    0    0  0.16931281745E+02 -0.51979159998E+02  0.34290950704E+03  0.34723973188E+03  0.00000000000E+00 0.  1.
</event>
<event>
 7    1  0.6358809E-006  0.1232762E+03  0.7818608E-02  0.1401646E+00
          2   -1    0    0  502    0  0.00000000000E+00  0.00000000000E+00  0.10044923847E+03  0.10044923847E+03  0.00000000000E+00 0. -1.
          1   -1    0    0  501    0 -0.00000000000E+00 -0.00000000000E+00 -0.16301845691E+04  0.16301845691E+04  0.00000000000E+00 0. -1.
         25    2    1    2    0    0  0.83618114003E+02 -0.10740249895E+03 -0.47661791608E+03  0.51119706539E+03  0.12502206188E+03 0.  0.
          2    1    1    2  501    0  0.85617770323E+01  0.27009019558E+02 -0.10910190050E+04  0.10913868519E+04  0.00000000000E+00 0. -1.
          1    1    1    2  502    0 -0.92179891035E+02  0.80393479394E+02  0.37901590477E+02  0.12804989028E+03  0.00000000000E+00 0. -1.
         22    1    3    3    0    0  0.11095287348E+03 -0.10851788108E+03 -0.37234225509E+03  0.40339239653E+03  0.00000000000E+00 0.  1.
         22    1    3    3    0    0 -0.27334759477E+02  0.11153821284E+01 -0.10427566099E+03  0.10780466886E+03  0.00000000000E+00 0.  1.
</event>
<event>
 7    1  0.6358809E-006  0.8014869E+02  0.7818608E-02  0.1404299E+00
          2   -1    0    0  502    0  0.00000000000E+00  0.00000000000E+00  0.10792142098E+04  0.10792142098E+04  0.00000000000E+00 0. -1.
          1   -1    0    0  501    0 -0.00000000000E+00 -0.00000000000E+00 -0.28726700659E+03  0.28726700659E+03  0.00000000000E+00 0. -1.
         25    2    1    2    0    0  0.10746443988E+02 -0.39239712403E+02 -0.14908617210E+03  0.19876333893E+03  0.12499974841E+03 0.  0.
          2    1    1    2  501    0  0.30376377934E+02 -0.29977655937E+02 -0.10772644448E+03  0.11587221856E+03  0.00000000000E+00 0. -1.
          1    1    1    2  502    0 -0.41122821921E+02  0.69217368339E+02  0.10487598198E+04  0.10518456589E+04  0.00000000000E+00 0. -1.
         22    1    3    3    0    0 -0.11164448487E+02  0.15932652071E+02  0.14807975493E+02  0.24449344577E+02  0.00000000000E+00 0. -1.
         22    1    3    3    0    0  0.21910892475E+02 -0.55172364473E+02 -0.16389414759E+03  0.17431399435E+03  0.00000000000E+00 0. -1.
</event>
<event>
 7    1  0.6358809E-006  0.8483595E+02  0.7818608E-02  0.1432539E+00
          2   -1    0    0  502    0  0.00000000000E+00  0.00000000000E+00  0.15176146525E+04  0.15176146525E+04  0.00000000000E+00 0. -1.
          1   -1    0    0  501    0 -0.00000000000E+00 -0.00000000000E+00 -0.57089657481E+02  0.57089657481E+02  0.00000000000E+00 0. -1.
         25    2    1    2    0    0 -0.84221343019E+02 -0.30329645105E+02  0.54951180871E+03  0.57061395768E+03  0.12499575510E+03 0.  0.
          2    1    1    2  501    0  0.84878711839E+02 -0.20955546674E+01 -0.72878601933E+01  0.85216782261E+02  0.00000000000E+00 0. -1.
          1    1    1    2  502    0 -0.65736882018E+00  0.32425199772E+02  0.91830104650E+03  0.91887357003E+03  0.00000000000E+00 0. -1.
         22    1    3    3    0    0 -0.81900327778E+01  0.11104191842E+02  0.38015683539E+03  0.38040714926E+03  0.00000000000E+00 0. -1.
         22    1    3    3    0    0 -0.76031310241E+02 -0.41433836946E+02  0.16935497332E+03  0.19020680842E+03  0.00000000000E+00 0. -1.
</event>
<event>
 7    1  0.6358809E-006  0.1780447E+03  0.7818608E-02  0.1264005E+00
          2   -1    0    0  502    0  0.00000000000E+00  0.00000000000E+00  0.59057505637E+03  0.59057505637E+03  0.00000000000E+00 0. -1.
          1   -1    0    0  501    0 -0.00000000000E+00 -0.00000000000E+00 -0.73046938800E+03  0.73046938800E+03  0.00000000000E+00 0. -1.
         25    2    1    2    0    0 -0.18585077653E+03 -0.59371615326E+02 -0.17797922668E+03  0.29217481540E+03  0.12499607106E+03 0.  0.
          2    1    1    2  501    0  0.83104489780E+01  0.65185234030E+02 -0.47829620429E+03  0.48278922662E+03  0.00000000000E+00 0. -1.
          1    1    1    2  502    0  0.17754032755E+03 -0.58136187036E+01  0.51638109934E+03  0.54608040235E+03  0.00000000000E+00 0. -1.
         22    1    3    3    0    0 -0.37677360784E+02 -0.51748775039E+02 -0.11369806773E+03  0.13047900153E+03  0.00000000000E+00 0. -1.
         22    1    3    3    0    0 -0.14817341575E+03 -0.76228402873E+01 -0.64281158950E+02  0.16169581387E+03  0.00000000000E+00 0. -1.
</event>
<event>
 7    1  0.6358809E-006  0.3923250E+02  0.7818608E-02  0.1583212E+00
          2   -1    0    0  502    0  0.00000000000E+00  0.00000000000E+00  0.82291920970E+02  0.82291920970E+02  0.00000000000E+00 0. -1.
          1   -1    0    0  501    0 -0.00000000000E+00 -0.00000000000E+00 -0.67086599501E+03  0.67086599501E+03  0.00000000000E+00 0. -1.
         25    2    1    2    0    0  0.54554553050E+02  0.30102949231E+02 -0.61782430669E+02  0.15272463335E+03  0.12500143232E+03 0.  0.
          2    1    1    2  501    0 -0.22118640084E+02 -0.11897517738E+02 -0.55386108116E+03  0.55443023221E+03  0.00000000000E+00 0. -1.
          1    1    1    2  502    0 -0.32435912966E+02 -0.18205431494E+02  0.27069437788E+02  0.46003050420E+02  0.00000000000E+00 0. -1.
         22    1    3    3    0    0  0.24973968113E+02  0.46901561068E+02  0.25580024872E+02  0.58972817351E+02  0.00000000000E+00 0. -1.
         22    1    3    3    0    0  0.29580584937E+02 -0.16798611836E+02 -0.87362455541E+02  0.93751815998E+02  0.00000000000E+00 0. -1.
</event>
<event>
 7    1  0.6358809E-006  0.1258226E+03  0.7818608E-02  0.1244506E+00
          2   -1    0    0  502    0  0.00000000000E+00  0.00000000000E+00  0.49326198511E+03  0.49326198511E+03  0.00000000000E+00 0. -1.
          1   -1    0    0  501    0 -0.00000000000E+00 -0.00000000000E+00 -0.33534423518E+03  0.33534423518E+03  0.00000000000E+00 0. -1.
         25    2    1    2    0    0 -0.58550650736E+02  0.78994132539E+02 -0.21730802949E+03  0.26928945783E+03  0.12500312293E+03 0.  0.
          2    1    1    2  501    0  0.18431591906E+03 -0.82791565685E+02  0.46505846641E+02  0.20733932367E+03  0.00000000000E+00 0. -1.
          1    1    1    2  502    0 -0.12576526832E+03  0.37974331469E+01  0.32871993278E+03  0.35197743880E+03  0.00000000000E+00 0. -1.
         22    1    3    3    0    0 -0.80515012853E+02  0.66276295582E+01 -0.87761790129E+02  0.11928421763E+03  0.00000000000E+00 0. -1.
         22    1    3    3    0    0  0.21964362117E+02  0.72366502980E+02 -0.12954623936E+03  0.15000524021E+03  0.00000000000E+00 0. -1.
</event>
<event>
 7    1  0.6358809E-006  0.3647695E+02  0.7818608E-02  0.1582947E+00
          2   -1    0    0  502    0  0.00000000000E+00  0.00000000000E+00  0.16692470815E+02  0.16692470815E+02  0.00000000000E+00 0. -1.
          1   -1    0    0  501    0 -0.00000000000E+00 -0.00000000000E+00 -0.92337018900E+03  0.92337018900E+03  0.00000000000E+00 0. -1.
         25    2    1    2    0    0  0.10082616862E+02 -0.53332939754E+02 -0.41279465949E+03  0.43471073235E+03  0.12501171263E+03 0.  0.
          2    1    1    2  501    0  0.10053136663E+02  0.25119697145E+02 -0.44276166133E+03  0.44358759393E+03  0.00000000000E+00 0. -1.
          1    1    1    2  502    0 -0.20135753524E+02  0.28213242609E+02 -0.51121397364E+02  0.61764333535E+02  0.00000000000E+00 0. -1.
         22    1    3    3    0    0  0.54843348505E+01  0.41152135379E+02 -0.11601220670E+03  0.12321691555E+03  0.00000000000E+00 0.  1.
         22    1    3    3    0    0  0.45982820112E+01 -0.94485075133E+02 -0.29678245279E+03  0.31149381680E+03  0.00000000000E+00 0.  1.
</event>
<event>
 7    1  0.6358809E-006  0.8078183E+02  0.7818608E-02  0.1355695E+00
          2   -1    0    0  502    0  0.00000000000E+00  0.00000000000E+00  0.19031029391E+04  0.19031029391E+04  0.00000000000E+00 0. -1.
          1   -1    0    0  501    0 -0.00000000000E+00 -0.00000000000E+00 -0.37485087341E+03  0.37485087341E+03  0.00000000000E+00 0. -1.
         25    2    1    2    0    0  0.11503390157E+02  0.13756662293E+03 -0.32700917196E+02  0.18907827243E+03  0.12499735753E+03 0.  0.
          2    1    1    2  501    0 -0.24008096009E+02 -0.58190352800E+02 -0.25930932477E+03  0.26684046122E+03  0.00000000000E+00 0. -1.
          1    1    1    2  502    0  0.12504705852E+02 -0.79376270133E+02  0.18202623077E+04  0.18220350789E+04  0.00000000000E+00 0. -1.
         22    1    3    3    0    0 -0.42598783620E+02  0.17227083172E+02 -0.33948038187E+02  0.57130535244E+02  0.00000000000E+00 0. -1.
         22    1    3    3    0    0  0.54102173777E+02  0.12033953976E+03  0.12471209912E+01  0.13194773718E+03  0.00000000000E+00 0. -1.
</event>
<event>
 7    1  0.6358809E-006  0.9867676E+02  0.7818608E-02  0.1359436E+00
          2   -1    0    0  502    0  0.00000000000E+00  0.00000000000E+00  0.49516356408E+03  0.49516356408E+03  0.00000000000E+00 0. -1.
          1   -1    0    0  501    0 -0.00000000000E+00 -0.00000000000E+00 -0.11526322049E+04  0.11526322049E+04  0.00000000000E+00 0. -1.
         25    2    1    2    0    0  0.13555691016E+03 -0.33490887940E+02 -0.48920357249E+02  0.19368860712E+03  0.12499903883E+03 0.  0.
          2    1    1    2  501    0 -0.97476256416E+02  0.11940323638E+01 -0.10275384182E+04  0.10321522403E+04  0.00000000000E+00 0. -1.
          1    1    1    2  502    0 -0.38080653741E+02  0.32296855577E+02  0.41899013453E+03  0.42195492165E+03  0.00000000000E+00 0. -1.
         22    1    3    3    0    0  0.61201957973E+02 -0.12181011900E+02 -0.87325625928E+02  0.10733043210E+03  0.00000000000E+00 0. -1.
         22    1    3    3    0    0  0.74354952184E+02 -0.21309876040E+02  0.38405268679E+02  0.86358175024E+02  0.00000000000E+00 0. -1.
</event>
<event>
 7    1  0.6358809E-006  0.6289445E+02  0.7818608E-02  0.1386216E+00
          2   -1    0    0  502    0  0.00000000000E+00  0.00000000000E+00  0.20678211801E+04  0.20678211801E+04  0.00000000000E+00 0. -1.
          1   -1    0    0  501    0 -0.00000000000E+00 -0.00000000000E+00 -0.12729566009E+04  0.12729566009E+04  0.00000000000E+00 0. -1.
         25    2    1    2    0    0 -0.15466023313E+02  0.39287466219E+02  0.12917566924E+03  0.18465019272E+03  0.12500654891E+03 0.  0.
          2    1    1    2  501    0 -0.48262052792E+02 -0.40329717355E+02 -0.12438931301E+04  0.12454821680E+04  0.00000000000E+00 0. -1.
          1    1    1    2  502    0  0.63728076105E+02  0.10422511358E+01  0.19095820400E+04  0.19106454202E+04  0.00000000000E+00 0. -1.
         22    1    3    3    0    0  0.18867914633E+02 -0.33420503838E+02  0.84165071902E+02  0.92502365417E+02  0.00000000000E+00 0. -1.
         22    1    3    3    0    0 -0.34333937946E+02  0.72707970057E+02  0.45010597338E+02  0.92147827307E+02  0.00000000000E+00 0. -1.
</event>
<event>
 7    1  0.6358809E-006  0.4096512E+02  0.7818608E-02  0.1547785E+00
          2   -1    0    0  502    0  0.00000000000E+00  0.00000000000E+00  0.81586397312E+03  0.81586397312E+03  0.00000000000E+00 0. -1.
          1   -1    0    0  501    0 -0.00000000000E+00 -0.00000000000E+00 -0.15304103596E+03  0.15304103596E+03  0.00000000000E+00 0. -1.
         25    2    1    2    0    0 -0.43810964949E+01 -0.27028241354E+02  0.28754362645E+02  0.13115178004E+03  0.12499702476E+03 0.  0.
          2    1    1    2  501    0  0.34330270112E+02  0.24437712935E+02 -0.97161131583E+02  0.10590587684E+03  0.00000000000E+00 0. -1.
          1    1    1    2  502    0 -0.29949173617E+02  0.25905284193E+01  0.73122970610E+03  0.73184735220E+03  0.00000000000E+00 0. -1.
         22    1    3    3    0    0  0.39603232257E+02 -0.24093063083E+02 -0.31826447735E+02  0.56230013955E+02  0.00000000000E+00 0.  1.
         22    1    3    3    0    0 -0.43984328752E+02 -0.29351782714E+01  0.60580810380E+02  0.74921766087E+02  0.00000000000E+00 0.  1.
</event>
