<event>
 7    1  0.6089676E-006  0.1113694E+03  0.7818608E-02  0.1349349E+00
          2   -1    0    0  502    0  0.00000000000E+00  0.00000000000E+00  0.15009464575E+03  0.15009464575E+03  0.00000000000E+00 0. -1.
          1   -1    0    0  501    0 -0.00000000000E+00 -0.00000000000E+00 -0.29497528132E+03  0.29497528132E+03  0.00000000000E+00 0. -1.
         25    2    1    2    0    0  0.14757658292E+03 -0.12584753408E+02 -0.10616815959E+03  0.22098641055E+03  0.12500436670E+03 0.  0.
          2    1    1    2  501    0 -0.43317805606E+02  0.21114480511E+02 -0.94097228063E+02  0.10571916524E+03  0.00000000000E+00 0. -1.
          1    1    1    2  502    0 -0.10425877731E+03 -0.85297271036E+01  0.55384752080E+02  0.11836435128E+03  0.00000000000E+00 0. -1.
         22    1    3    3    0    0  0.86453712160E+01 -0.48237183193E+02 -0.38873557862E+02  0.62551752867E+02  0.00000000000E+00 0. -1.
         22    1    3    3    0    0  0.13893121170E+03  0.35652429786E+02 -0.67294601725E+02  0.15843465769E+03  0.00000000000E+00 0. -1.
</event>
<event>
 7    1  0.6089676E-006  0.8794402E+02  0.7818608E-02  0.1417456E+00
          2   -1    0    0  502    0  0.00000000000E+00  0.00000000000E+00  0.75132984177E+03  0.75132984177E+03  0.00000000000E+00 0. -1.
          1   -1    0    0  501    0 -0.00000000000E+00 -0.00000000000E+00 -0.72093210898E+03  0.72093210898E+03  0.00000000000E+00 0. -1.
         25    2    1    2    0    0 -0.71472623622E+02 -0.26167452636E+02  0.83758882462E+02  0.16862424710E+03  0.12500205923E+03 0.  0.
          2    1    1    2  501    0  0.64347981872E+02  0.60541248650E+02 -0.67512606343E+03  0.68088259420E+03  0.00000000000E+00 0. -1.
          1    1    1    2  502    0  0.71246417502E+01 -0.34373796014E+02  0.62176491376E+03  0.62275510946E+03  0.00000000000E+00 0. -1.
         22    1    3    3    0    0  0.31666729906E+02 -0.27424810816E+02  0.14276577011E+02  0.44257459060E+02  0.00000000000E+00 0.  1.
         22    1    3    3    0    0 -0.10313935353E+03  0.12573581800E+01  0.69482305450E+02  0.12436678804E+03  0.00000000000E+00 0.  1.
</event>
<event>
 7    1  0.6089676E-006  0.1202375E+03  0.7818608E-02  0.1344590E+00
          2   -1    0    0  502    0  0.00000000000E+00  0.00000000000E+00  0.25632808158E+03  0.25632808158E+03  0.00000000000E+00 0. -1.
          1   -1    0    0  501    0 -0.00000000000E+00 -0.00000000000E+00 -0.47030422467E+03  0.47030422467E+03  0.00000000000E+00 0. -1.
         25    2    1    2    0    0 -0.66877947022E+00  0.83196295550E+02 -0.51798939547E+02  0.15883442636E+03  0.12499269578E+03 0.  0.
          2    1    1    2  501    0  0.17187776045E+02  0.43200179834E+02 -0.34323448223E+03  0.34636914553E+03  0.00000000000E+00 0. -1.
          1    1    1    2  502    0 -0.16518996574E+02 -0.12639647538E+03  0.18105727869E+03  0.22142873437E+03  0.00000000000E+00 0. -1.
         22    1    3    3    0    0 -0.29387189501E+01  0.11655701093E+03 -0.42862049656E+02  0.12422289711E+03  0.00000000000E+00 0.  1.
         22    1    3    3    0    0  0.22699394799E+01 -0.33360715379E+02 -0.89368898913E+01  0.34611529246E+02  0.00000000000E+00 0.  1.
</event>
<event>
 7    1  0.6089676E-006  0.1044979E+03  0.7818608E-02  0.1295838E+00
          2   -1    0    0  502    0  0.00000000000E+00  0.00000000000E+00  0.97368062710E+02  0.97368062710E+02  0.00000000000E+00 0. -1.
          1   -1    0    0  501    0 -0.00000000000E+00 -0.00000000000E+00 -0.47644696832E+03  0.47644696832E+03  0.00000000000E+00 0. -1.
         25    2    1    2    0    0 -0.12021132485E+01  0.90837701783E+02 -0.20958682406E+03  0.26039322659E+03  0.12500024998E+03 0.  0.
          2    1    1    2  501    0 -0.81458946317E+02 -0.14248185493E+02 -0.18213158005E+03  0.20002620622E+03  0.00000000000E+00 0. -1.
          1    1    1    2  502    0  0.82661059565E+02 -0.76589516290E+02  0.12639498490E+02  0.11339559822E+03  0.00000000000E+00 0. -1.
         22    1    3    3    0    0 -0.47072635515E+02  0.12529341248E+02 -0.25112847203E+02  0.54803946036E+02  0.00000000000E+00 0.  1.
         22    1    3    3    0    0  0.45870522267E+02  0.78308360535E+02 -0.18447397685E+03  0.20558928055E+03  0.00000000000E+00 0.  1.
</event>
<event>
 7    1  0.6089676E-006  0.5937218E+02  0.7818608E-02  0.1479621E+00
          2   -1    0    0  502    0  0.00000000000E+00  0.00000000000E+00  0.55925320426E+02  0.55925320426E+02  0.00000000000E+00 0. -1.
          1   -1    0    0  501    0 -0.00000000000E+00 -0.00000000000E+00 -0.47166093500E+03  0.47166093500E+03  0.00000000000E+00 0. -1.
         25    2    1    2    0    0 -0.10241571526E+02 -0.29162441151E+02 -0.30330522459E+03  0.32950693900E+03  0.12500170327E+03 0.  0.
          2    1    1    2  501    0  0.62629571318E+01 -0.32250769296E+02 -0.12999313716E+03  0.13408039551E+03  0.00000000000E+00 0. -1.
          1    1    1    2  502    0  0.39786143941E+01  0.61413210447E+02  0.17562747181E+02  0.63998920916E+02  0.00000000000E+00 0. -1.
         22    1    3    3    0    0  0.22437000867E+02 -0.20189883138E+02 -0.29233272673E+03  0.29388683792E+03  0.00000000000E+00 0.  1.
         22    1    3    3    0    0 -0.32678572393E+02 -0.89725580129E+01 -0.10972497867E+02  0.35620101072E+02  0.00000000000E+00 0.  1.
</event>
<event>
 7    1  0.6089676E-006  0.1425263E+03  0.7818608E-02  0.1388755E+00
          2   -1    0    0  502    0  0.00000000000E+00  0.00000000000E+00  0.92363153213E+03  0.92363153213E+03  0.00000000000E+00 0. -1.
          1   -1    0    0  501    0 -0.00000000000E+00 -0.00000000000E+00 -0.10554823910E+04  0.10554823910E+04  0.00000000000E+00 0. -1.
         25    2    1    2    0    0  0.12610874062E+03 -0.21378359177E+02 -0.30425849268E+03  0.35292820432E+03  0.12499855334E+03 0.  0.
          2    1    1    2  501    0 -0.14044239269E+03  0.44448014950E+02 -0.71921692928E+03  0.73414758943E+03  0.00000000000E+00 0. -1.
          1    1    1    2  502    0  0.14333652072E+02 -0.23069655773E+02  0.89162456313E+03  0.89203812933E+03  0.00000000000E+00 0. -1.
         22    1    3    3    0    0  0.14492916855E+03 -0.10824919064E+02 -0.20461961679E+03  0.25097974091E+03  0.00000000000E+00 0. -1.
         22    1    3    3    0    0 -0.18820427925E+02 -0.10553440113E+02 -0.99638875886E+02  0.10194846342E+03  0.00000000000E+00 0. -1.
</event>
<event>
 7    1  0.6089676E-006  0.3916533E+02  0.7818608E-02  0.1536000E+00
          2   -1    0    0  502    0  0.00000000000E+00  0.00000000000E+00  0.53973935536E+03  0.53973935536E+03  0.00000000000E+00 0. -1.
          1   -1    0    0  501    0 -0.00000000000E+00 -0.00000000000E+00 -0.22112376698E+04  0.22112376698E+04  0.00000000000E+00 0. -1.
         25    2    1    2    0    0  0.29722652243E+02  0.31307236148E+02  0.20996749425E+03  0.24814338383E+03  0.12500084483E+03 0.  0.
          2    1    1    2  501    0 -0.39151793881E+02  0.12993340862E+01 -0.21910470576E+04  0.21913972163E+04  0.00000000000E+00 0. -1.
          1    1    1    2  502    0  0.94291416381E+01 -0.32606570234E+02  0.30958124890E+03  0.31143642498E+03  0.00000000000E+00 0. -1.
         22    1    3    3    0    0  0.17496356712E+02 -0.48314598420E+02  0.73665084615E+02  0.89816299245E+02  0.00000000000E+00 0. -1.
         22    1    3    3    0    0  0.12226295531E+02  0.79621834568E+02  0.13630240963E+03  0.15832708459E+03  0.00000000000E+00 0. -1.
</event>
<event>
 7    1  0.6089676E-006  0.4375466E+02  0.7818608E-02  0.1591173E+00
          2   -1    0    0  502    0  0.00000000000E+00  0.00000000000E+00  0.16708755499E+03  0.16708755499E+03  0.00000000000E+00 0. -1.
          1   -1    0    0  501    0 -0.00000000000E+00 -0.00000000000E+00 -0.87597767241E+03  0.87597767241E+03  0.00000000000E+00 0. -1.
         25    2    1    2    0    0 -0.48424168900E+02 -0.36525090049E+02 -0.43821664579E+03  0.45971555196E+03  0.12500231090E+03 0.  0.
          2    1    1    2  501    0  0.27434608384E+02  0.32107752457E+02 -0.42522488536E+03  0.42731694166E+03  0.00000000000E+00 0. -1.
          1    1    1    2  502    0  0.20989560516E+02  0.44173375916E+01  0.15455141373E+03  0.15603273377E+03  0.00000000000E+00 0. -1.
         22    1    3    3    0    0  0.86604054095E+00  0.97126002248E+00 -0.35975291970E+03  0.35975527321E+03  0.00000000000E+00 0. -1.
         22    1    3    3    0    0 -0.49290209441E+02 -0.37496350071E+02 -0.78463726093E+02  0.99960278750E+02  0.00000000000E+00 0. -1.
</event>
<event>
 7    1  0.6089676E-006  0.9550606E+02  0.7818608E-02  0.1323718E+00
          2   -1    0    0  502    0  0.00000000000E+00  0.00000000000E+00  0.11706201224E+04  0.11706201224E+04  0.00000000000E+00 0. -1.
          1   -1    0    0  501    0 -0.00000000000E+00 -0.00000000000E+00 -0.15523989841E+04  0.15523989841E+04  0.00000000000E+00 0. -1.
         25    2    1    2    0    0 -0.90863115350E+02  0.10216976383E+03  0.27456866533E+03  0.33122207071E+03  0.12500136708E+03 0.  0.
          2    1    1    2  501    0  0.89883445365E+02 -0.31927703734E+02 -0.15211541876E+04  0.15241418814E+04  0.00000000000E+00 0. -1.
          1    1    1    2  502    0  0.97966998558E+00 -0.70242060095E+02  0.86480666065E+03  0.86765515446E+03  0.00000000000E+00 0. -1.
         22    1    3    3    0    0 -0.90691772058E+02  0.55875983821E+02  0.26263385364E+03  0.28341429775E+03  0.00000000000E+00 0.  1.
         22    1    3    3    0    0 -0.17134329210E+00  0.46293780008E+02  0.11934811688E+02  0.47807772966E+02  0.00000000000E+00 0.  1.
</event>
<event>
 7    1  0.6089676E-006  0.1317368E+03  0.7818608E-02  0.1335695E+00
          2   -1    0    0  502    0  0.00000000000E+00  0.00000000000E+00  0.83111642548E+03  0.83111642548E+03  0.00000000000E+00 0. -1.
          1   -1    0    0  501    0 -0.00000000000E+00 -0.00000000000E+00 -0.15834531621E+04  0.15834531621E+04  0.00000000000E+00 0. -1.
         25    2    1    2    0    0 -0.75474307160E+02 -0.87157126578E+02 -0.18446875707E+03  0.25089359989E+03  0.12500456143E+03 0.  0.
          2    1    1    2  501    0  0.49097145187E+02  0.12464010505E+03 -0.13618245710E+04  0.13683975474E+04  0.00000000000E+00 0. -1.
          1    1    1    2  502    0  0.26377161973E+02 -0.37482978471E+02  0.79395659150E+03  0.79527844026E+03  0.00000000000E+00 0. -1.
         22    1    3    3    0    0 -0.72253268257E+02 -0.25725728899E+02 -0.26130811061E+02  0.81025719299E+02  0.00000000000E+00 0.  1.
         22    1    3    3    0    0 -0.32210389024E+01 -0.61431397679E+02 -0.15833794601E+03  0.16986788059E+03  0.00000000000E+00 0.  1.
</event>
<event>
 7    1  0.6089676E-006  0.8887174E+02  0.7818608E-02  0.1343312E+00
          2   -1    0    0  502    0  0.00000000000E+00  0.00000000000E+00  0.74312414917E+03  0.74312414917E+03  0.00000000000E+00 0. -1.
          1   -1    0    0  501    0 -0.00000000000E+00 -0.00000000000E+00 -0.17434480835E+04  0.17434480835E+04  0.00000000000E+00 0. -1.
         25    2    1    2    0    0  0.91821247541E+02  0.12062950767E+03  0.22044008853E+03  0.29529899955E+03  0.12500018754E+03 0.  0.
          2    1    1    2  501    0 -0.48246482039E+02 -0.74303991020E+02 -0.17027782353E+04  0.17050813836E+04  0.00000000000E+00 0. -1.
          1    1    1    2  502    0 -0.43574765502E+02 -0.46325516651E+02  0.48201421236E+03  0.48619184958E+03  0.00000000000E+00 0. -1.
         22    1    3    3    0    0  0.57562513746E+02 -0.76877398961E+00  0.25168067262E+02  0.62828859706E+02  0.00000000000E+00 0.  1.
         22    1    3    3    0    0  0.34258733794E+02  0.12139828166E+03  0.19527202127E+03  0.23247013985E+03  0.00000000000E+00 0.  1.
</event>
<event>
 7    1  0.6089676E-006  0.1290117E+03  0.7818608E-02  0.1424030E+00
          2   -1    0    0  502    0  0.00000000000E+00  0.00000000000E+00  0.88375547141E+03  0.88375547141E+03  0.00000000000E+00 0. -1.
          1   -1    0    0  501    0 -0.00000000000E+00 -0.00000000000E+00 -0.84539497546E+03  0.84539497546E+03  0.00000000000E+00 0. -1.
         25    2    1    2    0    0 -0.16446518599E+02 -0.11550408734E+03  0.46248191733E+03  0.49307985802E+03  0.12500616133E+03 0.  0.
          2    1    1    2  501    0  0.37739102606E+02  0.12351952505E+03 -0.82474739241E+03  0.83479912208E+03  0.00000000000E+00 0. -1.
          1    1    1    2  502    0 -0.21292584007E+02 -0.80154377120E+01  0.40062597103E+03  0.40127146677E+03  0.00000000000E+00 0. -1.
         22    1    3    3    0    0  0.70387344634E+01  0.22954371778E+02  0.30335657392E+02  0.38687195246E+02  0.00000000000E+00 0. -1.
         22    1    3    3    0    0 -0.23485253062E+02 -0.13845845912E+03  0.43214625993E+03  0.45439266278E+03  0.00000000000E+00 0. -1.
</event>
<event>
 7    1  0.6089676E-006  0.8047900E+02  0.7818608E-02  0.1338197E+00
          2   -1    0    0  502    0  0.00000000000E+00  0.00000000000E+00  0.11184434233E+04  0.11184434233E+04  0.00000000000E+00 0. -1.
          1   -1    0    0  501    0 -0.00000000000E+00 -0.00000000000E+00 -0.38683294068E+03  0.38683294068E+03  0.00000000000E+00 0. -1.
         25    2    1    2    0    0  0.14983374728E+03 -0.69637841173E+01 -0.18162003229E+02  0.19609459023E+03  0.12499833536E+03 0.  0.
          2    1    1    2  501    0 -0.71116827558E+02  0.18202091823E+02 -0.27331865392E+03  0.28300531071E+03  0.00000000000E+00 0. -1.
          1    1    1    2  502    0 -0.78716919722E+02 -0.11238307706E+02  0.10230911398E+04  0.10261764631E+04  0.00000000000E+00 0. -1.
         22    1    3    3    0    0  0.15355278710E+03 -0.33683041899E+02  0.94556090809E+01  0.15748782265E+03  0.00000000000E+00 0. -1.
         22    1    3    3    0    0 -0.37190398225E+01  0.26719257781E+02 -0.27617612310E+02  0.38606767584E+02  0.00000000000E+00 0. -1.
</event>
<event>
 7    1  0.6089676E-006  0.6384333E+02  0.7818608E-02  0.1404938E+00
          2   -1    0    0  502    0  0.00000000000E+00  0.00000000000E+00  0.15047814532E+03  0.15047814532E+03  0.00000000000E+00 0. -1.
          1   -1    0    0  501    0 -0.00000000000E+00 -0.00000000000E+00 -0.11472110349E+04  0.11472110349E+04  0.00000000000E+00 0. -1.
         25    2    1    2    0    0  0.43916776517E+02 -0.10665992565E+03 -0.15654113881E+03  0.23115893204E+03  0.12499720286E+03 0.  0.
          2    1    1    2  501    0 -0.28095034064E+02  0.55752886417E+02 -0.94599657581E+03  0.94805444819E+03  0.00000000000E+00 0. -1.
          1    1    1    2  502    0 -0.15821742453E+02  0.50907039233E+02  0.10580482505E+03  0.11847579998E+03  0.00000000000E+00 0. -1.
         22    1    3    3    0    0  0.34011604081E+01 -0.19066297626E+02  0.21318521025E+02  0.28802273104E+02  0.00000000000E+00 0.  1.
         22    1    3    3    0    0  0.40515616109E+02 -0.87593628023E+02 -0.17785965983E+03  0.20235665893E+03  0.00000000000E+00 0.  1.
</event>
<event>
 7    1  0.6089676E-006  0.1066333E+03  0.7818608E-02  0.1300785E+00
          2   -1    0    0  502    0  0.00000000000E+00  0.00000000000E+00  0.29589334199E+04  0.29589334199E+04  0.00000000000E+00 0. -1.
          1   -1    0    0  501    0 -0.00000000000E+00 -0.00000000000E+00 -0.73171995470E+03  0.73171995470E+03  0.00000000000E+00 0. -1.
         25    2    1    2    0    0  0.17448391417E+03 -0.33117522780E+02  0.43261912379E+03  0.48407044677E+03  0.12499393804E+03 0.  0.
          2    1    1    2  501    0 -0.77345021660E+02 -0.33639507152E+01 -0.70279131529E+03  0.70704257395E+03  0.00000000000E+00 0. -1.
          1    1    1    2  502    0 -0.97138892515E+02  0.36481473496E+02  0.24973856567E+04  0.24995403539E+04  0.00000000000E+00 0. -1.
         22    1    3    3    0    0 -0.29774665032E+01 -0.51831182106E+01  0.14389917828E+03  0.14402327427E+03  0.00000000000E+00 0. -1.
         22    1    3    3    0    0  0.17746138068E+03 -0.27934404570E+02  0.28871994551E+03  0.34004717250E+03  0.00000000000E+00 0. -1.
</event>
<event>
 7    1  0.6089676E-006  0.6168991E+02  0.7818608E-02  0.1457344E+00
          2   -1    0    0  502    0  0.00000000000E+00  0.00000000000E+00  0.65815951455E+03  0.65815951455E+03  0.00000000000E+00 0. -1.
          1   -1    0    0  501    0 -0.00000000000E+00 -0.00000000000E+00 -0.47833757186E+02  0.47833757186E+02  0.00000000000E+00 0. -1.
         25    2    1    2    0    0 -0.35779818411E+02  0.84116162252E+02  0.23919540551E+03  0.28494860922E+03  0.12500217487E+03 0.  0.
          2    1    1    2  501    0  0.26591624843E+02 -0.25873319251E+02 -0.74987093272E+01  0.37851998658E+02  0.00000000000E+00 0. -1.
          1    1    1    2  502    0  0.91881935678E+01 -0.58242843000E+02  0.37862906118E+03  0.38319266385E+03  0.00000000000E+00 0. -1.
         22    1    3    3    0    0 -0.39509074265E+02  0.78591449291E+02  0.25395281576E+03  0.26875567991E+03  0.00000000000E+00 0. -1.
         22    1    3    3    0    0  0.37292558543E+01  0.55247129603E+01 -0.14757410249E+02  0.16192929314E+02  0.00000000000E+00 0. -1.
</event>
<event>
 7    1  0.6089676E-006  0.4861938E+02  0.7818608E-02  0.1563757E+00
          2   -1    0    0  502    0  0.00000000000E+00  0.00000000000E+00  0.11934881931E+04  0.11934881931E+04  0.00000000000E+00 0. -1.
          1   -1    0    0  501    0 -0.00000000000E+00 -0.00000000000E+00 -0.23585933019E+02  0.23585933019E+02  0.00000000000E+00 0. -1.
         25    2    1    2    0    0  0.98917513161E+01  0.57515688819E+02  0.26320811910E+03  0.29716866729E+03  0.12499920663E+03 0.  0.
          2    1    1    2  501    0 -0.20439691984E+02 -0.10274241913E+02  0.16046292835E+02  0.27943238342E+02  0.00000000000E+00 0. -1.
          1    1    1    2  502    0  0.10547940668E+02 -0.47241446906E+02  0.89064784814E+03  0.89196222047E+03  0.00000000000E+00 0. -1.
         22    1    3    3    0    0  0.38809088403E+02  0.72463871654E+02  0.24794392870E+03  0.26121514086E+03  0.00000000000E+00 0.  1.
         22    1    3    3    0    0 -0.28917337087E+02 -0.14948182835E+02  0.15264190399E+02  0.35953526431E+02  0.00000000000E+00 0.  1.
</event>
<event>
 7    1  0.6537839E-006  0.8746708E+02  0.7818608E-02  0.1387161E+00
          2   -1    0    0  502    0  0.00000000000E+00  0.00000000000E+00  0.84599098722E+03  0.84599098722E+03  0.00000000000E+00 0. -1.
          1   -1    0    0  501    0 -0.00000000000E+00 -0.00000000000E+00 -0.11509023967E+04  0.11509023967E+04  0.00000000000E+00 0. -1.
         25    2    1    2    0    0  0.22667775942E+02  0.11286134557E+03 -0.52467417356E+03  0.55150713164E+03  0.12500246582E+03 0.  0.
          2    1    1    2  501    0 -0.36138190272E+02 -0.26526618115E+02 -0.60969392525E+03  0.61133976866E+03  0.00000000000E+00 0. -1.
          1    1    1    2  502    0  0.13470414331E+02 -0.86334727453E+02  0.82945668937E+03  0.83404648358E+03  0.00000000000E+00 0. -1.
         22    1    3    3    0    0 -0.21014581399E+02  0.41690341808E+02 -0.45782339281E+02  0.65388988534E+02  0.00000000000E+00 0. -1.
         22    1    3    3    0    0  0.43682357341E+02  0.71171003760E+02 -0.47889183428E+03  0.48611814311E+03  0.00000000000E+00 0. -1.
</event>
<event>
 7    1  0.6089676E-006  0.1818341E+03  0.7818608E-02  0.1267333E+00
          2   -1    0    0  502    0  0.00000000000E+00  0.00000000000E+00  0.22912777449E+04  0.22912777449E+04  0.00000000000E+00 0. -1.
          1   -1    0    0  501    0 -0.00000000000E+00 -0.00000000000E+00 -0.30286752213E+03  0.30286752213E+03  0.00000000000E+00 0. -1.
         25    2    1    2    0    0 -0.15223196531E+03  0.15965413593E+03  0.28843323776E+03  0.38403896769E+03  0.12501272608E+03 0.  0.
          2    1    1    2  501    0  0.20824270943E+01 -0.62256947114E+02 -0.24709517014E+03  0.25482599371E+03  0.00000000000E+00 0. -1.
          1    1    1    2  502    0  0.15014953822E+03 -0.97397188815E+02  0.19470721552E+04  0.19552803057E+04  0.00000000000E+00 0. -1.
         22    1    3    3    0    0  0.17524873267E+02  0.34254756331E+02  0.22636967840E+02  0.44642377035E+02  0.00000000000E+00 0. -1.
         22    1    3    3    0    0 -0.16975683858E+03  0.12539937960E+03  0.26579626992E+03  0.33939659066E+03  0.00000000000E+00 0. -1.
</event>
<event>
 7    1  0.6089676E-006  0.9506695E+02  0.7818608E-02  0.1394993E+00
          2   -1    0    0  502    0  0.00000000000E+00  0.00000000000E+00  0.18651302463E+04  0.18651302463E+04  0.00000000000E+00 0. -1.
          1   -1    0    0  501    0 -0.00000000000E+00 -0.00000000000E+00 -0.20567919949E+02  0.20567919949E+02  0.00000000000E+00 0. -1.
         25    2    1    2    0    0 -0.42585607739E+02 -0.69842727831E+02  0.37003811220E+03  0.39905176507E+03  0.12499026405E+03 0.  0.
          2    1    1    2  501    0  0.76738178547E+02  0.88115371248E+02  0.60039237762E+03  0.61165682683E+03  0.00000000000E+00 0. -1.
          1    1    1    2  502    0 -0.34152570808E+02 -0.18272643417E+02  0.87413183657E+03  0.87498957439E+03  0.00000000000E+00 0. -1.
         22    1    3    3    0    0 -0.34769811465E+02 -0.16066959360E+02  0.17085438576E+02  0.41940424220E+02  0.00000000000E+00 0.  1.
         22    1    3    3    0    0 -0.78157962735E+01 -0.53775768471E+02  0.35295267362E+03  0.35711134085E+03  0.00000000000E+00 0.  1.
</event>
<event>
 7    1  0.6089676E-006  0.5100897E+02  0.7818608E-02  0.1455787E+00
          2   -1    0    0  502    0  0.00000000000E+00  0.00000000000E+00  0.36654531684E+03  0.36654531684E+03  0.00000000000E+00 0. -1.
          1   -1    0    0  501    0 -0.00000000000E+00 -0.00000000000E+00 -0.10093757684E+03  0.10093757684E+03  0.00000000000E+00 0. -1.
         25    2    1    2    0    0  0.36304194978E+02  0.17509687123E+02  0.13668282730E+02  0.13205596939E+03  0.12500949317E+03 0.  0.
          2    1    1    2  501    0  0.17984761487E+01 -0.51422839913E+02 -0.22592925433E+02  0.56195936337E+02  0.00000000000E+00 0. -1.
          1    1    1    2  502    0 -0.38102671127E+02  0.33913152789E+02  0.27453238270E+03  0.27923098795E+03  0.00000000000E+00 0. -1.
         22    1    3    3    0    0 -0.13606022046E+02  0.58395611177E+02  0.27668234536E+02  0.66035614959E+02  0.00000000000E+00 0. -1.
         22    1    3    3    0    0  0.49910217024E+02 -0.40885924054E+02 -0.13999951806E+02  0.66020354435E+02  0.00000000000E+00 0. -1.
</event>
<event>
 7    1  0.6089676E-006  0.6468596E+02  0.7818608E-02  0.1413906E+00
          2   -1    0    0  502    0  0.00000000000E+00  0.00000000000E+00  0.13631401105E+03  0.13631401105E+03  0.00000000000E+00 0. -1.
          1   -1    0    0  501    0 -0.00000000000E+00 -0.00000000000E+00 -0.39536324871E+03  0.39536324871E+03  0.00000000000E+00 0. -1.
         25    2    1    2    0    0  0.14970680370E+02 -0.23129812468E+02 -0.27537588894E+03  0.30367093293E+03  0.12500018320E+03 0.  0.
          2    1    1    2  501    0  0.13070441252E+02  0.81421909724E+02 -0.78080255975E+02  0.11356447592E+03  0.00000000000E+00 0. -1.
          1    1    1    2  502    0 -0.28041121622E+02 -0.58292097256E+02  0.94406907253E+02  0.11444185092E+03  0.00000000000E+00 0. -1.
         22    1    3    3    0    0 -0.13485602731E+02  0.28027668574E+02 -0.11155277692E+02  0.33043182460E+02  0.00000000000E+00 0. -1.
         22    1    3    3    0    0  0.28456283101E+02 -0.51157481042E+02 -0.26422061125E+03  0.27062775047E+03  0.00000000000E+00 0. -1.
</event>
<event>
 7    1  0.6089676E-006  0.4022349E+02  0.7818608E-02  0.1576801E+00
          2   -1    0    0  502    0  0.00000000000E+00  0.00000000000E+00  0.74745836202E+03  0.74745836202E+03  0.00000000000E+00 0. -1.
          1   -1    0    0  501    0 -0.00000000000E+00 -0.00000000000E+00 -0.15568145647E+02  0.15568145647E+02  0.00000000000E+00 0. -1.
         25    2    1    2    0    0  0.26239201826E+01  0.17231791199E+02  0.59339860726E+03  0.60667226307E+03  0.12500203239E+03 0.  0.
          2    1    1    2  501    0 -0.16742568516E+01 -0.42699761016E+02  0.58808073377E+02  0.72694306662E+02  0.00000000000E+00 0. -1.
          1    1    1    2  502    0 -0.94966333096E+00  0.25467969816E+02  0.79683535736E+02  0.83659937930E+02  0.00000000000E+00 0. -1.
         22    1    3    3    0    0 -0.56840874959E+02 -0.77781956602E+01  0.20183866047E+03  0.20983381580E+03  0.00000000000E+00 0.  1.
         22    1    3    3    0    0  0.59464795142E+02  0.25009986860E+02  0.39155994679E+03  0.39683844727E+03  0.00000000000E+00 0.  1.
</event>
<event>
 7    1  0.6089676E-006  0.6399408E+02  0.7818608E-02  0.1466205E+00
          2   -1    0    0  502    0  0.00000000000E+00  0.00000000000E+00  0.20333807644E+04  0.20333807644E+04  0.00000000000E+00 0. -1.
          1   -1    0    0  501    0 -0.00000000000E+00 -0.00000000000E+00 -0.81224864129E+03  0.81224864129E+03  0.00000000000E+00 0. -1.
         25    2    1    2    0    0  0.24968534437E+02  0.93743201168E+02  0.33085187844E+02  0.16164923395E+03  0.12499851881E+03 0.  0.
          2    1    1    2  501    0 -0.14685191058E+02 -0.61816547206E+02 -0.74647166932E+03  0.74917080391E+03  0.00000000000E+00 0. -1.
          1    1    1    2  502    0 -0.10283343379E+02 -0.31926653962E+02  0.19345186046E+04  0.19348093678E+04  0.00000000000E+00 0. -1.
         22    1    3    3    0    0  0.64570402012E+02  0.57291410850E+02 -0.17166390147E+02  0.88013223574E+02  0.00000000000E+00 0.  1.
         22    1    3    3    0    0 -0.39601867575E+02  0.36451790318E+02  0.50251577992E+02  0.73636010372E+02  0.00000000000E+00 0.  1.
</event>
<event>
 7    1  0.6089676E-006  0.4485088E+02  0.7818608E-02  0.1567228E+00
          2   -1    0    0  502    0  0.00000000000E+00  0.00000000000E+00  0.17358456853E+04  0.17358456853E+04  0.00000000000E+00 0. -1.
          1   -1    0    0  501    0 -0.00000000000E+00 -0.00000000000E+00 -0.11307013627E+02  0.11307013627E+02  0.00000000000E+00 0. -1.
         25    2    1    2    0    0 -0.51651136701E+02  0.40870000433E+02  0.14562053088E+04  0.14630439735E+04  0.12500228053E+03 0.  0.
          2    1    1    2  501    0  0.28574745317E+02 -0.33375195996E+02  0.59997487391E+02  0.74364764983E+02  0.00000000000E+00 0. -1.
          1    1    1    2  502    0  0.23076391384E+02 -0.74948044371E+01  0.20833587542E+03  0.20974396039E+03  0.00000000000E+00 0. -1.
         22    1    3    3    0    0 -0.47846068889E+02 -0.10295900427E+02  0.20402242103E+03  0.20981039097E+03  0.00000000000E+00 0. -1.
         22    1    3    3    0    0 -0.38050678117E+01  0.51165900859E+02  0.12521828878E+04  0.12532335826E+04  0.00000000000E+00 0. -1.
</event>
<event>
 7    1  0.6089676E-006  0.9287933E+02  0.7818608E-02  0.1368561E+00
          2   -1    0    0  502    0  0.00000000000E+00  0.00000000000E+00  0.12039485605E+03  0.12039485605E+03  0.00000000000E+00 0. -1.
          1   -1    0    0  501    0 -0.00000000000E+00 -0.00000000000E+00 -0.87786338850E+03  0.87786338850E+03  0.00000000000E+00 0. -1.
         25    2    1    2    0    0  0.94971018552E+02  0.23867580277E+02  0.23274992666E+02  0.16048245893E+03  0.12499495425E+03 0.  0.
          2    1    1    2  501    0 -0.27134798226E+02  0.40987577865E+02 -0.72890428210E+03  0.73055987522E+03  0.00000000000E+00 0. -1.
          1    1    1    2  502    0 -0.67836220326E+02 -0.64855158141E+02 -0.51839243019E+02  0.10721591040E+03  0.00000000000E+00 0. -1.
         22    1    3    3    0    0  0.93168867162E+02 -0.13325779442E+02  0.57177561043E+02  0.11012396512E+03  0.00000000000E+00 0.  1.
         22    1    3    3    0    0  0.18021513894E+01  0.37193359718E+02 -0.33902568377E+02  0.50358493815E+02  0.00000000000E+00 0.  1.
</event>
<event>
 7    1  0.6089676E-006  0.2808612E+03  0.7818608E-02  0.1205725E+00
          2   -1    0    0  502    0  0.00000000000E+00  0.00000000000E+00  0.34555221354E+03  0.34555221354E+03  0.00000000000E+00 0. -1.
          1   -1    0    0  501    0 -0.00000000000E+00 -0.00000000000E+00 -0.87717181408E+03  0.87717181408E+03  0.00000000000E+00 0. -1.
         25    2    1    2    0    0 -0.21885386755E+03 -0.17965824501E+03 -0.62183003199E+03  0.69460294351E+03  0.12500624026E+03 0.  0.
          2    1    1    2  501    0  0.56494019513E+02 -0.50375569657E+02 -0.14347559034E+03  0.16221749992E+03  0.00000000000E+00 0. -1.
          1    1    1    2  502    0  0.16235984804E+03  0.23003381466E+03  0.23368602178E+03  0.36590358419E+03  0.00000000000E+00 0. -1.
         22    1    3    3    0    0 -0.68751158854E+02 -0.12090920302E+03 -0.20537559707E+03  0.24804211959E+03  0.00000000000E+00 0. -1.
         22    1    3    3    0    0 -0.15010270870E+03 -0.58749041986E+02 -0.41645443492E+03  0.44656082392E+03  0.00000000000E+00 0. -1.
</event>
<event>
 7    1  0.6089676E-006  0.8506372E+02  0.7818608E-02  0.1430068E+00
          2   -1    0    0  502    0  0.00000000000E+00  0.00000000000E+00  0.77632301794E+03  0.77632301794E+03  0.00000000000E+00 0. -1.
          1   -1    0    0  501    0 -0.00000000000E+00 -0.00000000000E+00 -0.41857531979E+03  0.41857531979E+03  0.00000000000E+00 0. -1.
         25    2    1    2    0    0 -0.37356537006E+02 -0.93123051739E+02 -0.14170137852E+03  0.21394209226E+03  0.12499809817E+03 0.  0.
          2    1    1    2  501    0  0.31872712834E+02  0.83786301592E+01 -0.23717478761E+03  0.23945344254E+03  0.00000000000E+00 0. -1.
          1    1    1    2  502    0  0.54838241725E+01  0.84744421580E+02  0.73662386428E+03  0.74150280293E+03  0.00000000000E+00 0. -1.
         22    1    3    3    0    0 -0.62900328124E+02 -0.61445158510E+02 -0.26612149338E+02  0.91870372127E+02  0.00000000000E+00 0. -1.
         22    1    3    3    0    0  0.25543791118E+02 -0.31677893229E+02 -0.11508922918E+03  0.12207172013E+03  0.00000000000E+00 0. -1.
</event>
<event>
 7    1  0.6089676E-006  0.7698426E+02  0.7818608E-02  0.1404221E+00
          2   -1    0    0  502    0  0.00000000000E+00  0.00000000000E+00  0.18161744760E+04  0.18161744760E+04  0.00000000000E+00 0. -1.
          1   -1    0    0  501    0 -0.00000000000E+00 -0.00000000000E+00 -0.12143199548E+03  0.12143199548E+03  0.00000000000E+00 0. -1.
         25    2    1    2    0    0 -0.38310415857E+02 -0.52202055178E+02  0.84192540128E+03  0.85361319931E+03  0.12499748074E+03 0.  0.
          2    1    1    2  501    0 -0.38980608691E+02  0.21380861710E+02 -0.10944999603E+03  0.11813522224E+03  0.00000000000E+00 0. -1.
          1    1    1    2  502    0  0.77291024547E+02  0.30821193468E+02  0.96226707525E+03  0.96585804990E+03  0.00000000000E+00 0. -1.
         22    1    3    3    0    0  0.36770979985E+02 -0.59194540373E+01  0.46572272874E+03  0.46720959426E+03  0.00000000000E+00 0.  1.
         22    1    3    3    0    0 -0.75081395841E+02 -0.46282601141E+02  0.37620267255E+03  0.38640360506E+03  0.00000000000E+00 0.  1.
</event>
<event>
 7    1  0.6089676E-006  0.1230560E+03  0.7818608E-02  0.1239749E+00
          2   -1    0    0  502    0  0.00000000000E+00  0.00000000000E+00  0.11982806454E+04  0.11982806454E+04  0.00000000000E+00 0. -1.
          1   -1    0    0  501    0 -0.00000000000E+00 -0.00000000000E+00 -0.32882481823E+03  0.32882481823E+03  0.00000000000E+00 0. -1.
         25    2    1    2    0    0  0.23596022879E+02  0.21687759122E+02  0.27511441719E+03  0.30387437608E+03  0.12499825079E+03 0.  0.
          2    1    1    2  501    0  0.62730584429E+02 -0.10938325479E+03 -0.29740624341E+03  0.32303296468E+03  0.00000000000E+00 0. -1.
          1    1    1    2  502    0 -0.86326607308E+02  0.87695495665E+02  0.89174765341E+03  0.90019812289E+03  0.00000000000E+00 0. -1.
         22    1    3    3    0    0  0.44636520157E+02  0.53135580982E+02  0.83561118654E+02  0.10861983911E+03  0.00000000000E+00 0. -1.
         22    1    3    3    0    0 -0.21040497278E+02 -0.31447821860E+02  0.19155329854E+03  0.19525453697E+03  0.00000000000E+00 0. -1.
</event>
<event>
 7    1  0.6089676E-006  0.1419385E+03  0.7818608E-02  0.1377201E+00
          2   -1    0    0  502    0  0.00000000000E+00  0.00000000000E+00  0.55037319725E+03  0.55037319725E+03  0.00000000000E+00 0. -1.
          1   -1    0    0  501    0 -0.00000000000E+00 -0.00000000000E+00 -0.30964869426E+04  0.30964869426E+04  0.00000000000E+00 0. -1.
         25    2    1    2    0    0  0.13544263872E+03 -0.12416215405E+02  0.72389115387E+02  0.19840099512E+03  0.12499560011E+03 0.  0.
          2    1    1    2  501    0 -0.13558171368E+03  0.42370525431E+02 -0.30312750581E+04  0.30346014796E+04  0.00000000000E+00 0. -1.
          1    1    1    2  502    0  0.13907496414E+00 -0.29954310026E+02  0.41277219736E+03  0.41385766508E+03  0.00000000000E+00 0. -1.
         22    1    3    3    0    0  0.12295367965E+03 -0.58168265533E+02  0.63657155659E+02  0.15017785430E+03  0.00000000000E+00 0.  1.
         22    1    3    3    0    0  0.12488959067E+02  0.45752050128E+02  0.87319597276E+01  0.48223140816E+02  0.00000000000E+00 0.  1.
</event>
<event>
 7    1  0.6089676E-006  0.7637064E+02  0.7818608E-02  0.1465238E+00
          2   -1    0    0  502    0  0.00000000000E+00  0.00000000000E+00  0.37896020598E+02  0.37896020598E+02  0.00000000000E+00 0. -1.
          1   -1    0    0  501    0 -0.00000000000E+00 -0.00000000000E+00 -0.68070067905E+03  0.68070067905E+03  0.00000000000E+00 0. -1.
         25    2    1    2    0    0 -0.83154424413E+02 -0.41764435933E+02 -0.31121539615E+03  0.34805012227E+03  0.12499975362E+03 0.  0.
          2    1    1    2  501    0  0.55503269012E+02  0.47802126152E+02 -0.33419094148E+03  0.34212459939E+03  0.00000000000E+00 0. -1.
          1    1    1    2  502    0  0.27651155401E+02 -0.60376902193E+01  0.26016791797E+01  0.28421977988E+02  0.00000000000E+00 0. -1.
         22    1    3    3    0    0 -0.11485026406E+03 -0.20275639151E+02 -0.24963021442E+03  0.27553026811E+03  0.00000000000E+00 0. -1.
         22    1    3    3    0    0  0.31695839647E+02 -0.21488796782E+02 -0.61585181729E+02  0.72519854155E+02  0.00000000000E+00 0. -1.
</event>
<event>
 7    1  0.6089676E-006  0.7296878E+02  0.7818608E-02  0.1425221E+00
          2   -1    0    0  502    0  0.00000000000E+00  0.00000000000E+00  0.17216946292E+03  0.17216946292E+03  0.00000000000E+00 0. -1.
          1   -1    0    0  501    0 -0.00000000000E+00 -0.00000000000E+00 -0.14679883879E+03  0.14679883879E+03  0.00000000000E+00 0. -1.
         25    2    1    2    0    0 -0.42451002573E+02 -0.42769160992E+01 -0.37779291185E+02  0.13737307233E+03  0.12499482601E+03 0.  0.
          2    1    1    2  501    0 -0.33495717179E+02  0.21608386260E+02 -0.37224153117E+02  0.54539187759E+02  0.00000000000E+00 0. -1.
          1    1    1    2  502    0  0.75946719753E+02 -0.17331470161E+02  0.10037406843E+03  0.12705604162E+03  0.00000000000E+00 0. -1.
         22    1    3    3    0    0 -0.24526681215E+01 -0.52466012806E+02 -0.51172944453E+02  0.73330541555E+02  0.00000000000E+00 0.  1.
         22    1    3    3    0    0 -0.39998334452E+02  0.48189096707E+02  0.13393653268E+02  0.64042530776E+02  0.00000000000E+00 0.  1.
</event>
<event>
 7    1  0.6089676E-006  0.5793880E+02  0.7818608E-02  0.1465220E+00
          2   -1    0    0  502    0  0.00000000000E+00  0.00000000000E+00  0.13210947622E+04  0.13210947622E+04  0.00000000000E+00 0. -1.
          1   -1    0    0  501    0 -0.00000000000E+00 -0.00000000000E+00 -0.26144907298E+03  0.26144907298E+03  0.00000000000E+00 0. -1.
         25    2    1    2    0    0 -0.25205062473E+02 -0.80410211461E+00  0.92480687921E+03  0.93355735076E+03  0.12500248626E+03 0.  0.
          2    1    1    2  501    0  0.50993905470E+02  0.27768206841E+02 -0.25288814277E+03  0.25946842671E+03  0.00000000000E+00 0. -1.
          1    1    1    2  502    0 -0.25788842997E+02 -0.26964104727E+02  0.38772695283E+03  0.38951805775E+03  0.00000000000E+00 0. -1.
         22    1    3    3    0    0 -0.39174634394E+02  0.63264624680E+01  0.91315960775E+03  0.91402141404E+03  0.00000000000E+00 0. -1.
         22    1    3    3    0    0  0.13969571922E+02 -0.71305645826E+01  0.11647271464E+02  0.19535936719E+02  0.00000000000E+00 0. -1.
</event>
<event>
 7    1  0.6089676E-006  0.1984950E+03  0.7818608E-02  0.1309731E+00
          2   -1    0    0  502    0  0.00000000000E+00  0.00000000000E+00  0.28386311351E+03  0.28386311351E+03  0.00000000000E+00 0. -1.
          1   -1    0    0  501    0 -0.00000000000E+00 -0.00000000000E+00 -0.41206361473E+03  0.41206361473E+03  0.00000000000E+00 0. -1.
         25    2    1    2    0    0  0.22298880103E+03  0.49303464102E+02 -0.90585926159E+02  0.27565555192E+03  0.12500134532E+03 0.  0.
          2    1    1    2  501    0 -0.38273288024E+02 -0.19651079177E+01 -0.17889311617E+03  0.18295205175E+03  0.00000000000E+00 0. -1.
          1    1    1    2  502    0 -0.18471551300E+03 -0.47338356184E+02  0.14127854111E+03  0.23731912458E+03  0.00000000000E+00 0. -1.
         22    1    3    3    0    0  0.15742183606E+03  0.83014717225E+02 -0.95113246760E+02  0.20179099943E+03  0.00000000000E+00 0. -1.
         22    1    3    3    0    0  0.65566964970E+02 -0.33711253123E+02  0.45273206005E+01  0.73864552488E+02  0.00000000000E+00 0. -1.
</event>
<event>
 7    1  0.6089676E-006  0.7148516E+02  0.7818608E-02  0.1430254E+00
          2   -1    0    0  502    0  0.00000000000E+00  0.00000000000E+00  0.37978548304E+03  0.37978548304E+03  0.00000000000E+00 0. -1.
          1   -1    0    0  501    0 -0.00000000000E+00 -0.00000000000E+00 -0.52134190105E+03  0.52134190105E+03  0.00000000000E+00 0. -1.
         25    2    1    2    0    0 -0.62981992034E+02 -0.31204213543E+02 -0.93433804213E+02  0.17115750568E+03  0.12499832686E+03 0.  0.
          2    1    1    2  501    0  0.38217320669E+02  0.61539457634E+02 -0.38452843816E+03  0.39129245865E+03  0.00000000000E+00 0. -1.
          1    1    1    2  502    0  0.24764671366E+02 -0.30335244092E+02  0.33640582437E+03  0.33867741975E+03  0.00000000000E+00 0. -1.
         22    1    3    3    0    0 -0.86497150545E+02 -0.56079113201E+02 -0.46552699321E+02  0.11310958317E+03  0.00000000000E+00 0.  1.
         22    1    3    3    0    0  0.23515158511E+02  0.24874899658E+02 -0.46881104892E+02  0.58047922518E+02  0.00000000000E+00 0.  1.
</event>
<event>
 7    1  0.6089676E-006  0.1275063E+03  0.7818608E-02  0.1377304E+00
          2   -1    0    0  502    0  0.00000000000E+00  0.00000000000E+00  0.46933201412E+03  0.46933201412E+03  0.00000000000E+00 0. -1.
          1   -1    0    0  501    0 -0.00000000000E+00 -0.00000000000E+00 -0.58428607954E+03  0.58428607954E+03  0.00000000000E+00 0. -1.
         25    2    1    2    0    0 -0.73913201293E+02  0.81713507194E+02 -0.19293026075E+03  0.25492651737E+03  0.12500074063E+03 0.  0.
          2    1    1    2  501    0  0.12377861984E+02  0.30932629114E+02 -0.35015315185E+03  0.35173465675E+03  0.00000000000E+00 0. -1.
          1    1    1    2  502    0  0.61535339309E+02 -0.11264613631E+03  0.42812934718E+03  0.44695691954E+03  0.00000000000E+00 0. -1.
         22    1    3    3    0    0 -0.75496372850E+02  0.10205727596E+03 -0.10524907582E+03  0.16490226758E+03  0.00000000000E+00 0.  1.
         22    1    3    3    0    0  0.15831715568E+01 -0.20343768765E+02 -0.87681184930E+02  0.90024249791E+02  0.00000000000E+00 0.  1.
</event>
<event>
 7    1  0.6089676E-006  0.8703641E+02  0.7818608E-02  0.1415299E+00
          2   -1    0    0  502    0  0.00000000000E+00  0.00000000000E+00  0.13634382434E+04  0.13634382434E+04  0.00000000000E+00 0. -1.
          1   -1    0    0  501    0 -0.00000000000E+00 -0.00000000000E+00 -0.58511035438E+02  0.58511035438E+02  0.00000000000E+00 0. -1.
         25    2    1    2    0    0 -0.43321157220E+02 -0.30256940458E+02  0.11721909279E+03  0.17932562978E+03  0.12500064268E+03 0.  0.
          2    1    1    2  501    0 -0.31071745519E+02 -0.18313386080E+02 -0.13220065367E+02  0.38413586238E+02  0.00000000000E+00 0. -1.
          1    1    1    2  502    0  0.74392902739E+02  0.48570326538E+02  0.12009281805E+04  0.12042100628E+04  0.00000000000E+00 0. -1.
         22    1    3    3    0    0  0.18847185936E+02  0.22821329381E+02  0.87460041044E+02  0.92332487630E+02  0.00000000000E+00 0. -1.
         22    1    3    3    0    0 -0.62168343155E+02 -0.53078269838E+02  0.29759051747E+02  0.86993142147E+02  0.00000000000E+00 0. -1.
</event>
<event>
 7    1  0.6089676E-006  0.9026101E+02  0.7818608E-02  0.1419890E+00
          2   -1    0    0  502    0  0.00000000000E+00  0.00000000000E+00  0.16804372562E+04  0.16804372562E+04  0.00000000000E+00 0. -1.
          1   -1    0    0  501    0 -0.00000000000E+00 -0.00000000000E+00 -0.16456571412E+03  0.16456571412E+03  0.00000000000E+00 0. -1.
         25    2    1    2    0    0 -0.95845773021E+01  0.56771424434E+02 -0.41399077646E+02  0.14371387678E+03  0.12499974398E+03 0.  0.
          2    1    1    2  501    0 -0.12118302886E+02  0.31304190138E+02 -0.66761565189E+02  0.74725579098E+02  0.00000000000E+00 0. -1.
          1    1    1    2  502    0  0.21702880188E+02 -0.88075614572E+02  0.16240321849E+04  0.16265635144E+04  0.00000000000E+00 0. -1.
         22    1    3    3    0    0 -0.58416084311E+02  0.31348949057E+02 -0.55972536339E+02  0.86764741326E+02  0.00000000000E+00 0.  1.
         22    1    3    3    0    0  0.48831507009E+02  0.25422475377E+02  0.14573458693E+02  0.56949135457E+02  0.00000000000E+00 0.  1.
</event>
<event>
 7    1  0.6089676E-006  0.1054355E+03  0.7818608E-02  0.1351019E+00
          2   -1    0    0  502    0  0.00000000000E+00  0.00000000000E+00  0.24498211132E+04  0.24498211132E+04  0.00000000000E+00 0. -1.
          1   -1    0    0  501    0 -0.00000000000E+00 -0.00000000000E+00 -0.10712392632E+03  0.10712392632E+03  0.00000000000E+00 0. -1.
         25    2    1    2    0    0 -0.38573602420E+02 -0.61115099916E+02  0.23652613194E+03  0.27711681947E+03  0.12500456912E+03 0.  0.
          2    1    1    2  501    0  0.88480969986E+02  0.66357433543E+02 -0.51198688016E+02  0.12187492232E+03  0.00000000000E+00 0. -1.
          1    1    1    2  502    0 -0.49907367567E+02 -0.52423336267E+01  0.21573697429E+04  0.21579532977E+04  0.00000000000E+00 0. -1.
         22    1    3    3    0    0 -0.32033009837E+02 -0.73657732288E+02  0.24686003871E+03  0.25959864013E+03  0.00000000000E+00 0.  1.
         22    1    3    3    0    0 -0.65405925832E+01  0.12542632372E+02 -0.10333906771E+02  0.17518179338E+02  0.00000000000E+00 0.  1.
</event>
<event>
 7    1  0.6089676E-006  0.1981220E+03  0.7818608E-02  0.1376195E+00
          2   -1    0    0  502    0  0.00000000000E+00  0.00000000000E+00  0.11273007547E+03  0.11273007547E+03  0.00000000000E+00 0. -1.
          1   -1    0    0  501    0 -0.00000000000E+00 -0.00000000000E+00 -0.32381074674E+04  0.32381074674E+04  0.00000000000E+00 0. -1.
         25    2    1    2    0    0 -0.17896274805E+03 -0.12317297419E+02 -0.38886628690E+03  0.44611852010E+03  0.12500145553E+03 0.  0.
          2    1    1    2  501    0  0.19956525203E+03  0.18930330622E+02 -0.28155982430E+04  0.28227252989E+04  0.00000000000E+00 0. -1.
          1    1    1    2  502    0 -0.20602503980E+02 -0.66130332035E+01  0.79087137898E+02  0.81993723902E+02  0.00000000000E+00 0. -1.
         22    1    3    3    0    0  0.11029753350E+02 -0.17108280585E+02 -0.10972255779E+02  0.23124426921E+02  0.00000000000E+00 0. -1.
         22    1    3    3    0    0 -0.18999250140E+03  0.47909831670E+01 -0.37789403112E+03  0.42299409318E+03  0.00000000000E+00 0. -1.
</event>
<event>
 7    1  0.6089676E-006  0.7059499E+02  0.7818608E-02  0.1402240E+00
          2   -1    0    0  502    0  0.00000000000E+00  0.00000000000E+00  0.13582658009E+04  0.13582658009E+04  0.00000000000E+00 0. -1.
          1   -1    0    0  501    0 -0.00000000000E+00 -0.00000000000E+00 -0.21429223084E+03  0.21429223084E+03  0.00000000000E+00 0. -1.
         25    2    1    2    0    0 -0.10094732094E+03 -0.43875570397E+02  0.21632820321E+03  0.27301779955E+03  0.12500160033E+03 0.  0.
          2    1    1    2  501    0  0.49196793025E+02 -0.21966341125E+01 -0.18158688810E+03  0.18814608042E+03  0.00000000000E+00 0. -1.
          1    1    1    2  502    0  0.51750527912E+02  0.46072204509E+02  0.11092322550E+04  0.11113941518E+04  0.00000000000E+00 0. -1.
         22    1    3    3    0    0 -0.36217805595E+02 -0.33807097691E+02  0.19925413746E+03  0.20532135931E+03  0.00000000000E+00 0. -1.
         22    1    3    3    0    0 -0.64729515343E+02 -0.10068472705E+02  0.17074065751E+02  0.67696440234E+02  0.00000000000E+00 0. -1.
</event>
<event>
 7    1  0.6200091E-006  0.3686298E+02  0.7818608E-02  0.1534497E+00
          2   -1    0    0  502    0  0.00000000000E+00  0.00000000000E+00  0.17761996079E+04  0.17761996079E+04  0.00000000000E+00 0. -1.
          1   -1    0    0  501    0 -0.00000000000E+00 -0.00000000000E+00 -0.70882838762E+03  0.70882838762E+03  0.00000000000E+00 0. -1.
         25    2    1    2    0    0 -0.48635964084E+02  0.12089259825E+02 -0.20624107003E+03  0.24631648479E+03  0.12499929802E+03 0.  0.
          2    1    1    2  501    0  0.17552927942E+02 -0.31910246664E+02 -0.48166862604E+03  0.48304351195E+03  0.00000000000E+00 0. -1.
          1    1    1    2  502    0  0.31083036142E+02  0.19820986838E+02  0.17552809164E+04  0.17556679988E+04  0.00000000000E+00 0. -1.
         22    1    3    3    0    0 -0.10443436717E+02 -0.24744866180E+02 -0.18844756782E+03  0.19035193613E+03  0.00000000000E+00 0.  1.
         22    1    3    3    0    0 -0.38192527367E+02  0.36834126005E+02 -0.17793502213E+02  0.55964548655E+02  0.00000000000E+00 0.  1.
</event>
<event>
 7    1  0.6089676E-006  0.1396262E+03  0.7818608E-02  0.1270819E+00
          2   -1    0    0  502    0  0.00000000000E+00  0.00000000000E+00  0.16824277177E+04  0.16824277177E+04  0.00000000000E+00 0. -1.
          1   -1    0    0  501    0 -0.00000000000E+00 -0.00000000000E+00 -0.97523951963E+03  0.97523951963E+03  0.00000000000E+00 0. -1.
         25    2    1    2    0    0 -0.60091379702E+02 -0.64505527099E+02  0.47884509933E+03  0.50268134985E+03  0.12499589351E+03 0.  0.
          2    1    1    2  501    0 -0.68543317641E+02 -0.38117905038E+02 -0.95602709958E+03  0.95923874829E+03  0.00000000000E+00 0. -1.
          1    1    1    2  502    0  0.12863469734E+03  0.10262343214E+03  0.11843701983E+04  0.11957471392E+04  0.00000000000E+00 0. -1.
         22    1    3    3    0    0 -0.33756289768E+02 -0.73350689259E+02  0.46440403397E+03  0.47137131593E+03  0.00000000000E+00 0. -1.
         22    1    3    3    0    0 -0.26335089935E+02  0.88451621600E+01  0.14441065364E+02  0.31310033924E+02  0.00000000000E+00 0. -1.
</event>
<event>
 7    1  0.6089676E-006  0.6045202E+02  0.7818608E-02  0.1418563E+00
          2   -1    0    0  502    0  0.00000000000E+00  0.00000000000E+00  0.31395383243E+02  0.31395383243E+02  0.00000000000E+00 0. -1.
          1   -1    0    0  501    0 -0.00000000000E+00 -0.00000000000E+00 -0.13143467794E+04  0.13143467794E+04  0.00000000000E+00 0. -1.
         25    2    1    2    0    0  0.98446352151E+01  0.92071219073E+02 -0.24702469697E+03  0.29192170211E+03  0.12499221185E+03 0.  0.
          2    1    1    2  501    0 -0.35099470344E+02 -0.48184254337E+02 -0.96409395485E+03  0.96593521986E+03  0.00000000000E+00 0. -1.
          1    1    1    2  502    0  0.25254835129E+02 -0.43886964736E+02 -0.71832744370E+02  0.87885240712E+02  0.00000000000E+00 0. -1.
         22    1    3    3    0    0  0.44047996658E+02  0.89044913661E+02 -0.10006668094E+03  0.14100554349E+03  0.00000000000E+00 0. -1.
         22    1    3    3    0    0 -0.34203361443E+02  0.30263054115E+01 -0.14695801603E+03  0.15091615862E+03  0.00000000000E+00 0. -1.
</event>
<event>
 7    1  0.1085973E-005  0.7715081E+02  0.7818608E-02  0.1345978E+00
          2   -1    0    0  502    0  0.00000000000E+00  0.00000000000E+00  0.11540238470E+04  0.11540238470E+04  0.00000000000E+00 0. -1.
          1   -1    0    0  501    0 -0.00000000000E+00 -0.00000000000E+00 -0.10748113137E+04  0.10748113137E+04  0.00000000000E+00 0. -1.
         25    2    1    2    0    0  0.13481284023E+03 -0.61279890428E+02 -0.63395387164E+03  0.66291238480E+03  0.12500236676E+03 0.  0.
          2    1    1    2  501    0 -0.67510066014E+02  0.23853504784E+02 -0.42205856479E+03  0.42808881183E+03  0.00000000000E+00 0. -1.
          1    1    1    2  502    0 -0.67302774214E+02  0.37426385644E+02  0.11352249697E+04  0.11378339640E+04  0.00000000000E+00 0. -1.
         22    1    3    3    0    0  0.15755009105E+03 -0.44779461547E+02 -0.50361848783E+03  0.52958362196E+03  0.00000000000E+00 0. -1.
         22    1    3    3    0    0 -0.22737250818E+02 -0.16500428881E+02 -0.13033538381E+03  0.13332876284E+03  0.00000000000E+00 0. -1.
</event>
<event>
 7    1  0.6089676E-006  0.4184423E+03  0.7818608E-02  0.1123849E+00
          2   -1    0    0  502    0  0.00000000000E+00  0.00000000000E+00  0.52294351853E+03  0.52294351853E+03  0.00000000000E+00 0. -1.
          1   -1    0    0  501    0 -0.00000000000E+00 -0.00000000000E+00 -0.20524053319E+04  0.20524053319E+04  0.00000000000E+00 0. -1.
         25    2    1    2    0    0  0.33753123473E+03  0.13187632739E+03 -0.10796794523E+04  0.11457102309E+04  0.12500205380E+03 0.  0.
          2    1    1    2  501    0 -0.42632776604E+01  0.13079817501E+03 -0.84181304216E+03  0.85192460704E+03  0.00000000000E+00 0. -1.
          1    1    1    2  502    0 -0.33326795707E+03 -0.26267450239E+03  0.39203068100E+03  0.57771401252E+03  0.00000000000E+00 0. -1.
         22    1    3    3    0    0  0.12789530129E+03  0.71480540458E+02 -0.27042888956E+03  0.30756862660E+03  0.00000000000E+00 0.  1.
         22    1    3    3    0    0  0.20963593344E+03  0.60395786928E+02 -0.80925056269E+03  0.83814160431E+03  0.00000000000E+00 0.  1.
</event>
<event>
 7    1  0.6089676E-006  0.6315116E+02  0.7818608E-02  0.1398525E+00
          2   -1    0    0  502    0  0.00000000000E+00  0.00000000000E+00  0.22342082454E+03  0.22342082454E+03  0.00000000000E+00 0. -1.
          1   -1    0    0  501    0 -0.00000000000E+00 -0.00000000000E+00 -0.13016424356E+03  0.13016424356E+03  0.00000000000E+00 0. -1.
         25    2    1    2    0    0  0.41075187473E+02 -0.45377158172E+02  0.14080133038E+03  0.19798298995E+03  0.12500396859E+03 0.  0.
          2    1    1    2  501    0 -0.59743065401E+02 -0.20465473887E+02 -0.58749600857E+02  0.86253029430E+02  0.00000000000E+00 0. -1.
          1    1    1    2  502    0  0.18667877929E+02  0.65842632059E+02  0.11204851455E+02  0.69349048724E+02  0.00000000000E+00 0. -1.
         22    1    3    3    0    0 -0.19952284244E+02 -0.22229972153E+02  0.12803900154E+03  0.13147718899E+03  0.00000000000E+00 0.  1.
         22    1    3    3    0    0  0.61027471717E+02 -0.23147186019E+02  0.12762328840E+02  0.66505800967E+02  0.00000000000E+00 0.  1.
</event>
<event>
 7    1  0.6089676E-006  0.6940824E+02  0.7818608E-02  0.1514696E+00
          2   -1    0    0  502    0  0.00000000000E+00  0.00000000000E+00  0.30939503453E+04  0.30939503453E+04  0.00000000000E+00 0. -1.
          1   -1    0    0  501    0 -0.00000000000E+00 -0.00000000000E+00 -0.22901338502E+03  0.22901338502E+03  0.00000000000E+00 0. -1.
         25    2    1    2    0    0 -0.60430005814E+02 -0.73992001694E+01  0.46645022748E+02  0.14665456494E+03  0.12500107801E+03 0.  0.
          2    1    1    2  501    0 -0.25881972816E+01 -0.21910424001E+02 -0.17792428967E+03  0.17928697192E+03  0.00000000000E+00 0. -1.
          1    1    1    2  502    0  0.63018203095E+02  0.29309624170E+02  0.29962162272E+04  0.29970221935E+04  0.00000000000E+00 0. -1.
         22    1    3    3    0    0 -0.71249536429E+02 -0.21924758679E+02 -0.20333795659E+02  0.77270011844E+02  0.00000000000E+00 0. -1.
         22    1    3    3    0    0  0.10819530615E+02  0.14525558510E+02  0.66978818407E+02  0.69384553093E+02  0.00000000000E+00 0. -1.
</event>
<event>
 7    1  0.6089676E-006  0.7103999E+02  0.7818608E-02  0.1463823E+00
          2   -1    0    0  502    0  0.00000000000E+00  0.00000000000E+00  0.42957351289E+03  0.42957351289E+03  0.00000000000E+00 0. -1.
          1   -1    0    0  501    0 -0.00000000000E+00 -0.00000000000E+00 -0.84120568522E+03  0.84120568522E+03  0.00000000000E+00 0. -1.
         25    2    1    2    0    0 -0.44089448394E+02 -0.12106956374E+02 -0.38095736022E+03  0.40353917117E+03  0.12499957805E+03 0.  0.
          2    1    1    2  501    0 -0.15933683953E+02 -0.26286578230E+02 -0.44538950623E+03  0.44644896543E+03  0.00000000000E+00 0. -1.
          1    1    1    2  502    0  0.60023132347E+02  0.38393534604E+02  0.41471469413E+03  0.42079106150E+03  0.00000000000E+00 0. -1.
         22    1    3    3    0    0 -0.79788309325E+02 -0.17751316073E+02 -0.16025501991E+03  0.17989706761E+03  0.00000000000E+00 0. -1.
         22    1    3    3    0    0  0.35698860932E+02  0.56443596986E+01 -0.22070234031E+03  0.22364210357E+03  0.00000000000E+00 0. -1.
</event>
<event>
 7    1  0.6089676E-006  0.7956015E+02  0.7818608E-02  0.1379953E+00
          2   -1    0    0  502    0  0.00000000000E+00  0.00000000000E+00  0.84539521053E+03  0.84539521053E+03  0.00000000000E+00 0. -1.
          1   -1    0    0  501    0 -0.00000000000E+00 -0.00000000000E+00 -0.17156795065E+03  0.17156795065E+03  0.00000000000E+00 0. -1.
         25    2    1    2    0    0  0.50031925104E+02  0.39073627763E+02  0.13582593128E+03  0.19522173060E+03  0.12503159031E+03 0.  0.
          2    1    1    2  501    0  0.32001942187E+02 -0.41305208919E+02 -0.13447840724E+03  0.14427295866E+03  0.00000000000E+00 0. -1.
          1    1    1    2  502    0 -0.82033867291E+02  0.22315811556E+01  0.67247973584E+03  0.67746847192E+03  0.00000000000E+00 0. -1.
         22    1    3    3    0    0  0.55357916440E+02  0.48625936393E+02  0.16642772640E+02  0.75537821545E+02  0.00000000000E+00 0.  1.
         22    1    3    3    0    0 -0.53259913359E+01 -0.95523086298E+01  0.11918315864E+03  0.11968390906E+03  0.00000000000E+00 0.  1.
</event>
<event>
 7    1  0.6089676E-006  0.1382639E+03  0.7818608E-02  0.1226577E+00
          2   -1    0    0  502    0  0.00000000000E+00  0.00000000000E+00  0.27470060843E+04  0.27470060843E+04  0.00000000000E+00 0. -1.
          1   -1    0    0  501    0 -0.00000000000E+00 -0.00000000000E+00 -0.39605393255E+03  0.39605393255E+03  0.00000000000E+00 0. -1.
         25    2    1    2    0    0 -0.25699033405E+02 -0.17021160024E+02  0.18873906078E+04  0.18917765363E+04  0.12499998613E+03 0.  0.
          2    1    1    2  501    0  0.66625459897E+01  0.13889269200E+03 -0.37694452730E+03  0.40177449654E+03  0.00000000000E+00 0. -1.
          1    1    1    2  502    0  0.19036487416E+02 -0.12187153198E+03  0.84050607129E+03  0.84950898408E+03  0.00000000000E+00 0. -1.
         22    1    3    3    0    0 -0.39701601150E+02  0.21376245143E+02  0.16681247401E+04  0.16687340440E+04  0.00000000000E+00 0.  1.
         22    1    3    3    0    0  0.14002567745E+02 -0.38397405167E+02  0.21926586769E+03  0.22304249228E+03  0.00000000000E+00 0.  1.
</event>
<event>
 7    1  0.6089676E-006  0.2357881E+03  0.7818608E-02  0.1190625E+00
          2   -1    0    0  502    0  0.00000000000E+00  0.00000000000E+00  0.20548126647E+04  0.20548126647E+04  0.00000000000E+00 0. -1.
          1   -1    0    0  501    0 -0.00000000000E+00 -0.00000000000E+00 -0.41069422836E+03  0.41069422836E+03  0.00000000000E+00 0. -1.
         25    2    1    2    0    0 -0.13944702089E+03  0.22328891026E+03  0.63673793389E+03  0.70025912748E+03  0.12499696032E+03 0.  0.
          2    1    1    2  501    0 -0.52608502896E+02 -0.92348768925E+02 -0.36148572195E+03  0.37678624825E+03  0.00000000000E+00 0. -1.
          1    1    1    2  502    0  0.19205552379E+03 -0.13094014134E+03  0.13688662244E+04  0.13884615174E+04  0.00000000000E+00 0. -1.
         22    1    3    3    0    0 -0.10407591162E+03  0.20570014259E+03  0.61117420188E+03  0.65320613063E+03  0.00000000000E+00 0. -1.
         22    1    3    3    0    0 -0.35371109269E+02  0.17588767672E+02  0.25563732005E+02  0.47052996856E+02  0.00000000000E+00 0. -1.
</event>
<event>
 7    1  0.6089676E-006  0.6657098E+02  0.7818608E-02  0.1437437E+00
          2   -1    0    0  502    0  0.00000000000E+00  0.00000000000E+00  0.96048490543E+03  0.96048490543E+03  0.00000000000E+00 0. -1.
          1   -1    0    0  501    0 -0.00000000000E+00 -0.00000000000E+00 -0.57455398090E+02  0.57455398090E+02  0.00000000000E+00 0. -1.
         25    2    1    2    0    0 -0.85045599660E+02  0.39706129480E+01  0.58265262681E+03  0.60196176805E+03  0.12500146749E+03 0.  0.
          2    1    1    2  501    0  0.57511352155E+02 -0.32756530632E+02 -0.23174412974E+02  0.70125596913E+02  0.00000000000E+00 0. -1.
          1    1    1    2  502    0  0.27534247504E+02  0.28785917684E+02  0.34355129350E+03  0.34585293856E+03  0.00000000000E+00 0. -1.
         22    1    3    3    0    0  0.49656033227E+01  0.41058473278E+02  0.80971483740E+02  0.90922145945E+02  0.00000000000E+00 0.  1.
         22    1    3    3    0    0 -0.90011202982E+02 -0.37087860330E+02  0.50168114307E+03  0.51103962210E+03  0.00000000000E+00 0.  1.
</event>
<event>
 7    1  0.6089676E-006  0.1148922E+03  0.7818608E-02  0.1329238E+00
          2   -1    0    0  502    0  0.00000000000E+00  0.00000000000E+00  0.25098931036E+03  0.25098931036E+03  0.00000000000E+00 0. -1.
          1   -1    0    0  501    0 -0.00000000000E+00 -0.00000000000E+00 -0.23925948198E+03  0.23925948198E+03  0.00000000000E+00 0. -1.
         25    2    1    2    0    0  0.33783758553E+02  0.13956830595E+03 -0.22462850313E+02  0.19170404253E+03  0.12500082365E+03 0.  0.
          2    1    1    2  501    0 -0.47249358204E+02 -0.29330672740E+02 -0.10599456232E+03  0.11969810966E+03  0.00000000000E+00 0. -1.
          1    1    1    2  502    0  0.13465599651E+02 -0.11023763321E+03  0.14018724101E+03  0.17884664015E+03  0.00000000000E+00 0. -1.
         22    1    3    3    0    0  0.62990781788E+02  0.34932691116E+02 -0.38852569325E+02  0.81839193802E+02  0.00000000000E+00 0.  1.
         22    1    3    3    0    0 -0.29207023235E+02  0.10463561483E+03  0.16389719013E+02  0.10986484873E+03  0.00000000000E+00 0.  1.
</event>
<event>
 7    1  0.6089676E-006  0.8280078E+02  0.7818608E-02  0.1388386E+00
          2   -1    0    0  502    0  0.00000000000E+00  0.00000000000E+00  0.40161479337E+03  0.40161479337E+03  0.00000000000E+00 0. -1.
          1   -1    0    0  501    0 -0.00000000000E+00 -0.00000000000E+00 -0.24016725126E+03  0.24016725126E+03  0.00000000000E+00 0. -1.
         25    2    1    2    0    0  0.98861641840E+02  0.47780594168E+02  0.87384755587E+02  0.18792450250E+03  0.12499165462E+03 0.  0.
          2    1    1    2  501    0 -0.45297212590E+02  0.12117614301E+02 -0.18071979613E+03  0.18670382631E+03  0.00000000000E+00 0. -1.
          1    1    1    2  502    0 -0.53564429250E+02 -0.59898208469E+02  0.25478258265E+03  0.26715371582E+03  0.00000000000E+00 0. -1.
         22    1    3    3    0    0  0.10236203964E+03  0.72527464037E+02  0.35570629537E+02  0.13039743051E+03  0.00000000000E+00 0.  1.
         22    1    3    3    0    0 -0.35003977987E+01 -0.24746869870E+02  0.51814126050E+02  0.57527071987E+02  0.00000000000E+00 0.  1.
</event>
<event>
 7    1  0.6089676E-006  0.2989597E+03  0.7818608E-02  0.1184938E+00
          2   -1    0    0  502    0  0.00000000000E+00  0.00000000000E+00  0.10104122789E+04  0.10104122789E+04  0.00000000000E+00 0. -1.
          1   -1    0    0  501    0 -0.00000000000E+00 -0.00000000000E+00 -0.16386811663E+04  0.16386811663E+04  0.00000000000E+00 0. -1.
         25    2    1    2    0    0  0.18226102912E+03 -0.16529820414E+03 -0.45367182815E+03  0.53102336029E+03  0.12500040996E+03 0.  0.
          2    1    1    2  501    0 -0.22735887827E+03  0.24235244008E+03 -0.11201037444E+04  0.11683574636E+04  0.00000000000E+00 0. -1.
          1    1    1    2  502    0  0.45097849150E+02 -0.77054235932E+02  0.94550668516E+03  0.94971262125E+03  0.00000000000E+00 0. -1.
         22    1    3    3    0    0  0.24564557161E+02 -0.41739158964E+02 -0.18305514724E+02  0.51775155518E+02  0.00000000000E+00 0.  1.
         22    1    3    3    0    0  0.15769647196E+03 -0.12355904518E+03 -0.43536631342E+03  0.47924820477E+03  0.00000000000E+00 0.  1.
</event>
<event>
 7    1  0.6089676E-006  0.5347372E+02  0.7818608E-02  0.1475608E+00
          2   -1    0    0  502    0  0.00000000000E+00  0.00000000000E+00  0.14238846419E+04  0.14238846419E+04  0.00000000000E+00 0. -1.
          1   -1    0    0  501    0 -0.00000000000E+00 -0.00000000000E+00 -0.27144460936E+02  0.27144460936E+02  0.00000000000E+00 0. -1.
         25    2    1    2    0    0  0.80981704263E+02 -0.98595633205E+01  0.75555795946E+03  0.77016131786E+03  0.12500151202E+03 0.  0.
          2    1    1    2  501    0 -0.46375494804E+02  0.24380866110E+02  0.16315958174E+02  0.54875528623E+02  0.00000000000E+00 0. -1.
          1    1    1    2  502    0 -0.34606209460E+02 -0.14521302789E+02  0.62486626336E+03  0.62599225638E+03  0.00000000000E+00 0. -1.
         22    1    3    3    0    0 -0.71510669991E+01 -0.35399459169E+01 -0.13678706911E+01  0.80956807341E+01  0.00000000000E+00 0.  1.
         22    1    3    3    0    0  0.88132771262E+02 -0.63196174035E+01  0.75692583015E+03  0.76206563712E+03  0.00000000000E+00 0.  1.
</event>
<event>
 7    1  0.6089676E-006  0.1158878E+03  0.7818608E-02  0.1322495E+00
          2   -1    0    0  502    0  0.00000000000E+00  0.00000000000E+00  0.60790216927E+03  0.60790216927E+03  0.00000000000E+00 0. -1.
          1   -1    0    0  501    0 -0.00000000000E+00 -0.00000000000E+00 -0.67782244785E+03  0.67782244785E+03  0.00000000000E+00 0. -1.
         25    2    1    2    0    0 -0.31082694289E+02 -0.80274572564E+02  0.12845957685E+03  0.19883920119E+03  0.12500009664E+03 0.  0.
          2    1    1    2  501    0 -0.58063250474E+02 -0.73509182738E+01 -0.63246173092E+03  0.63516393013E+03  0.00000000000E+00 0. -1.
          1    1    1    2  502    0  0.89145944763E+02  0.87625490838E+02  0.43408187549E+03  0.45172148581E+03  0.00000000000E+00 0. -1.
         22    1    3    3    0    0 -0.28334067727E+02 -0.62710049091E+02 -0.34359341490E+00  0.68814879985E+02  0.00000000000E+00 0. -1.
         22    1    3    3    0    0 -0.27486265629E+01 -0.17564523473E+02  0.12880317027E+03  0.13002432120E+03  0.00000000000E+00 0. -1.
</event>
<event>
 7    1  0.6089676E-006  0.9532604E+02  0.7818608E-02  0.1376998E+00
          2   -1    0    0  502    0  0.00000000000E+00  0.00000000000E+00  0.62741848783E+03  0.62741848783E+03  0.00000000000E+00 0. -1.
          1   -1    0    0  501    0 -0.00000000000E+00 -0.00000000000E+00 -0.11951446018E+04  0.11951446018E+04  0.00000000000E+00 0. -1.
         25    2    1    2    0    0  0.38824575275E+02  0.69857002359E+02 -0.33693701810E+03  0.36815601283E+03  0.12499978876E+03 0.  0.
          2    1    1    2  501    0 -0.81617517778E+02 -0.57022226576E+02 -0.83883449160E+03  0.84472259224E+03  0.00000000000E+00 0. -1.
          1    1    1    2  502    0  0.42792942503E+02 -0.12834775782E+02  0.60804539576E+03  0.60968448455E+03  0.00000000000E+00 0. -1.
         22    1    3    3    0    0  0.21391666943E+02  0.10345496459E+03 -0.28452886203E+03  0.30350816536E+03  0.00000000000E+00 0.  1.
         22    1    3    3    0    0  0.17432908332E+02 -0.33597962232E+02 -0.52408156070E+02  0.64647847464E+02  0.00000000000E+00 0.  1.
</event>
<event>
 7    1  0.6089676E-006  0.1098119E+03  0.7818608E-02  0.1267915E+00
          2   -1    0    0  502    0  0.00000000000E+00  0.00000000000E+00  0.14978124720E+04  0.14978124720E+04  0.00000000000E+00 0. -1.
          1   -1    0    0  501    0 -0.00000000000E+00 -0.00000000000E+00 -0.15195210956E+03  0.15195210956E+03  0.00000000000E+00 0. -1.
         25    2    1    2    0    0  0.16855625438E+03  0.92768350567E+02  0.40848489001E+03  0.46851038621E+03  0.12499959546E+03 0.  0.
          2    1    1    2  501    0 -0.10540984948E+03 -0.11945913961E+02 -0.95836718126E+02  0.14296369388E+03  0.00000000000E+00 0. -1.
          1    1    1    2  502    0 -0.63146404906E+02 -0.80822436606E+02  0.10332121906E+04  0.10382905015E+04  0.00000000000E+00 0. -1.
         22    1    3    3    0    0 -0.19272693497E+01  0.10304483099E+02  0.13755221315E+03  0.13795110758E+03  0.00000000000E+00 0. -1.
         22    1    3    3    0    0  0.17048352373E+03  0.82463867468E+02  0.27093267686E+03  0.33055927864E+03  0.00000000000E+00 0. -1.
</event>
<event>
 7    1  0.6089676E-006  0.4390400E+02  0.7818608E-02  0.1524199E+00
          2   -1    0    0  502    0  0.00000000000E+00  0.00000000000E+00  0.13351741052E+04  0.13351741052E+04  0.00000000000E+00 0. -1.
          1   -1    0    0  501    0 -0.00000000000E+00 -0.00000000000E+00 -0.50551955119E+02  0.50551955119E+02  0.00000000000E+00 0. -1.
         25    2    1    2    0    0 -0.17183762194E+02 -0.35175853290E+01  0.57289738566E+03  0.58663763269E+03  0.12499856997E+03 0.  0.
          2    1    1    2  501    0 -0.18499588162E+02 -0.27000461910E+02 -0.36710067673E+02  0.49182199769E+02  0.00000000000E+00 0. -1.
          1    1    1    2  502    0  0.35683350356E+02  0.30518047239E+02  0.74843483205E+03  0.74990622782E+03  0.00000000000E+00 0. -1.
         22    1    3    3    0    0 -0.70587729689E+02  0.78697268141E+01  0.29536590643E+03  0.30378541582E+03  0.00000000000E+00 0.  1.
         22    1    3    3    0    0  0.53403967496E+02 -0.11387312143E+02  0.27753147923E+03  0.28285221687E+03  0.00000000000E+00 0.  1.
</event>
<event>
 7    1  0.6089676E-006  0.3975588E+02  0.7818608E-02  0.1556207E+00
          2   -1    0    0  502    0  0.00000000000E+00  0.00000000000E+00  0.34128937652E+04  0.34128937652E+04  0.00000000000E+00 0. -1.
          1   -1    0    0  501    0 -0.00000000000E+00 -0.00000000000E+00 -0.30597319579E+02  0.30597319579E+02  0.00000000000E+00 0. -1.
         25    2    1    2    0    0 -0.47362885660E+02  0.33188221180E+02  0.13706684371E+04  0.13775728409E+04  0.12502106513E+03 0.  0.
          2    1    1    2  501    0  0.85997121805E+01 -0.28060230620E+02 -0.18968862336E+02  0.34944947136E+02  0.00000000000E+00 0. -1.
          1    1    1    2  502    0  0.38763173479E+02 -0.51279905606E+01  0.20305968709E+04  0.20309732967E+04  0.00000000000E+00 0. -1.
         22    1    3    3    0    0 -0.42255146124E+02  0.67066797054E+02  0.12385584036E+04  0.12410924107E+04  0.00000000000E+00 0. -1.
         22    1    3    3    0    0 -0.51077395361E+01 -0.33878575874E+02  0.13211003347E+03  0.13648043028E+03  0.00000000000E+00 0. -1.
</event>
<event>
 7    1  0.6089676E-006  0.6265014E+02  0.7818608E-02  0.1403255E+00
          2   -1    0    0  502    0  0.00000000000E+00  0.00000000000E+00  0.12370662700E+04  0.12370662700E+04  0.00000000000E+00 0. -1.
          1   -1    0    0  501    0 -0.00000000000E+00 -0.00000000000E+00 -0.31747358922E+02  0.31747358922E+02  0.00000000000E+00 0. -1.
         25    2    1    2    0    0  0.15268505394E+02  0.10656555474E+02  0.30712975836E+03  0.33211424907E+03  0.12499798612E+03 0.  0.
          2    1    1    2  501    0  0.52089151064E+02 -0.17806579353E+02  0.24273773746E+02  0.60162862454E+02  0.00000000000E+00 0. -1.
          1    1    1    2  502    0 -0.67357656458E+02  0.71500238798E+01  0.87391537899E+03  0.87653651741E+03  0.00000000000E+00 0. -1.
         22    1    3    3    0    0  0.65131418707E+02 -0.19366802439E+02  0.17522418020E+03  0.18793798995E+03  0.00000000000E+00 0.  1.
         22    1    3    3    0    0 -0.49862913313E+02  0.30023357913E+02  0.13190557816E+03  0.14417625912E+03  0.00000000000E+00 0.  1.
</event>
<event>
 7    1  0.6089676E-006  0.2099426E+03  0.7818608E-02  0.1175308E+00
          2   -1    0    0  502    0  0.00000000000E+00  0.00000000000E+00  0.27833490628E+03  0.27833490628E+03  0.00000000000E+00 0. -1.
          1   -1    0    0  501    0 -0.00000000000E+00 -0.00000000000E+00 -0.92047228079E+03  0.92047228079E+03  0.00000000000E+00 0. -1.
         25    2    1    2    0    0  0.15143453828E+02  0.14010932807E+03  0.11000616199E+03  0.21814313861E+03  0.12500050095E+03 0.  0.
          2    1    1    2  501    0 -0.15619794464E+03 -0.15326685330E+03 -0.80135165522E+03  0.83069428886E+03  0.00000000000E+00 0. -1.
          1    1    1    2  502    0  0.14105449081E+03  0.13157525227E+02  0.49208118715E+02  0.14996975960E+03  0.00000000000E+00 0. -1.
         22    1    3    3    0    0  0.61723430657E+02  0.39881547084E+02  0.67328321747E+02  0.99666557074E+02  0.00000000000E+00 0.  1.
         22    1    3    3    0    0 -0.46579976828E+02  0.10022778099E+03  0.42677840243E+02  0.11847658153E+03  0.00000000000E+00 0.  1.
</event>
<event>
 7    1  0.6089676E-006  0.4883256E+02  0.7818608E-02  0.1455679E+00
          2   -1    0    0  502    0  0.00000000000E+00  0.00000000000E+00  0.15772026144E+03  0.15772026144E+03  0.00000000000E+00 0. -1.
          1   -1    0    0  501    0 -0.00000000000E+00 -0.00000000000E+00 -0.19426682010E+04  0.19426682010E+04  0.00000000000E+00 0. -1.
         25    2    1    2    0    0  0.56137035180E+02 -0.48315320653E+02 -0.12987984360E+03  0.19488330018E+03  0.12499995994E+03 0.  0.
          2    1    1    2  501    0 -0.48718756641E+02  0.14550821957E+01 -0.17754461757E+04  0.17761150743E+04  0.00000000000E+00 0. -1.
          1    1    1    2  502    0 -0.74182785388E+01  0.46860238457E+02  0.12037807967E+03  0.12939008798E+03  0.00000000000E+00 0. -1.
         22    1    3    3    0    0  0.24984944668E+02 -0.66082335696E+02 -0.14068581504E+03  0.15742814585E+03  0.00000000000E+00 0.  1.
         22    1    3    3    0    0  0.31152090512E+02  0.17767015043E+02  0.10805971444E+02  0.37455154327E+02  0.00000000000E+00 0.  1.
</event>
<event>
 7    1  0.6089676E-006  0.3878895E+03  0.7818608E-02  0.1246416E+00
          2   -1    0    0  502    0  0.00000000000E+00  0.00000000000E+00  0.24117617348E+03  0.24117617348E+03  0.00000000000E+00 0. -1.
          1   -1    0    0  501    0 -0.00000000000E+00 -0.00000000000E+00 -0.12873850271E+04  0.12873850271E+04  0.00000000000E+00 0. -1.
         25    2    1    2    0    0 -0.39145336250E+03  0.11840339248E+03 -0.28790596462E+03  0.51553449911E+03  0.12502350558E+03 0.  0.
          2    1    1    2  501    0  0.32501467345E+02 -0.15254029417E+02 -0.61019905149E+03  0.61125437686E+03  0.00000000000E+00 0. -1.
          1    1    1    2  502    0  0.35895189515E+03 -0.10314936306E+03 -0.14810383750E+03  0.40177232460E+03  0.00000000000E+00 0. -1.
         22    1    3    3    0    0 -0.33119390410E+03  0.47946987858E+02 -0.23321926435E+03  0.40789648322E+03  0.00000000000E+00 0.  1.
         22    1    3    3    0    0 -0.60259458397E+02  0.70456404623E+02 -0.54686700268E+02  0.10763801589E+03  0.00000000000E+00 0.  1.
</event>
<event>
 7    1  0.6089676E-006  0.5180752E+02  0.7818608E-02  0.1436006E+00
          2   -1    0    0  502    0  0.00000000000E+00  0.00000000000E+00  0.14652750248E+04  0.14652750248E+04  0.00000000000E+00 0. -1.
          1   -1    0    0  501    0 -0.00000000000E+00 -0.00000000000E+00 -0.39116835447E+03  0.39116835447E+03  0.00000000000E+00 0. -1.
         25    2    1    2    0    0 -0.39241174224E+00 -0.14408189836E+02 -0.64679933200E+02  0.14147739023E+03  0.12499843305E+03 0.  0.
          2    1    1    2  501    0 -0.51181403563E+02  0.80301605285E+01 -0.28528277166E+03  0.28994875298E+03  0.00000000000E+00 0. -1.
          1    1    1    2  502    0  0.51573815305E+02  0.63780293073E+01  0.14240693752E+04  0.14250172361E+04  0.00000000000E+00 0. -1.
         22    1    3    3    0    0  0.16877706528E+02 -0.44383393039E+02 -0.87835290622E+02  0.99848789847E+02  0.00000000000E+00 0.  1.
         22    1    3    3    0    0 -0.17270118270E+02  0.29975203203E+02  0.23155357422E+02  0.41628600378E+02  0.00000000000E+00 0.  1.
</event>
<event>
 7    1  0.6089676E-006  0.7885765E+02  0.7818608E-02  0.1405963E+00
          2   -1    0    0  502    0  0.00000000000E+00  0.00000000000E+00  0.58865828928E+02  0.58865828928E+02  0.00000000000E+00 0. -1.
          1   -1    0    0  501    0 -0.00000000000E+00 -0.00000000000E+00 -0.63631750251E+03  0.63631750251E+03  0.00000000000E+00 0. -1.
         25    2    1    2    0    0  0.83580532529E+02  0.48871876080E+02 -0.36361288929E+03  0.39650183926E+03  0.12500083836E+03 0.  0.
          2    1    1    2  501    0 -0.39860254132E+02  0.15623997150E+02 -0.21652534761E+03  0.22071741051E+03  0.00000000000E+00 0. -1.
          1    1    1    2  502    0 -0.43720278397E+02 -0.64495873230E+02  0.26865633188E+01  0.77964081661E+02  0.00000000000E+00 0. -1.
         22    1    3    3    0    0  0.11411569487E+03  0.20146786990E+02 -0.27762316302E+03  0.30083700818E+03  0.00000000000E+00 0. -1.
         22    1    3    3    0    0 -0.30535162345E+02  0.28725089090E+02 -0.85989726272E+02  0.95664831087E+02  0.00000000000E+00 0. -1.
</event>
<event>
 7    1  0.6089676E-006  0.1581589E+03  0.7818608E-02  0.1381801E+00
          2   -1    0    0  502    0  0.00000000000E+00  0.00000000000E+00  0.14798364014E+04  0.14798364014E+04  0.00000000000E+00 0. -1.
          1   -1    0    0  501    0 -0.00000000000E+00 -0.00000000000E+00 -0.15342722608E+03  0.15342722608E+03  0.00000000000E+00 0. -1.
         25    2    1    2    0    0  0.12575535397E+03  0.72083442106E+02  0.94637433590E+02  0.21352144930E+03  0.12499893517E+03 0.  0.
          2    1    1    2  501    0 -0.10491935122E+00  0.25891816530E+02 -0.87312020738E+02  0.91070226400E+02  0.00000000000E+00 0. -1.
          1    1    1    2  502    0 -0.12565043462E+03 -0.97975258636E+02  0.13190837625E+04  0.13286719518E+04  0.00000000000E+00 0. -1.
         22    1    3    3    0    0  0.40059636665E+02 -0.27991258986E+02 -0.38578826075E+01  0.49022120798E+02  0.00000000000E+00 0.  1.
         22    1    3    3    0    0  0.85695717308E+02  0.10007470109E+03  0.98495316197E+02  0.16449932850E+03  0.00000000000E+00 0.  1.
</event>
<event>
 7    1  0.6089676E-006  0.6584290E+02  0.7818608E-02  0.1443344E+00
          2   -1    0    0  502    0  0.00000000000E+00  0.00000000000E+00  0.19731952035E+04  0.19731952035E+04  0.00000000000E+00 0. -1.
          1   -1    0    0  501    0 -0.00000000000E+00 -0.00000000000E+00 -0.10624254731E+03  0.10624254731E+03  0.00000000000E+00 0. -1.
         25    2    1    2    0    0 -0.56373825568E+02 -0.35174290977E+02  0.63202643273E+02  0.15503245398E+03  0.12500099486E+03 0.  0.
          2    1    1    2  501    0  0.28025408469E+02  0.61278648260E+02 -0.41247482759E+02  0.79005386440E+02  0.00000000000E+00 0. -1.
          1    1    1    2  502    0  0.28348417099E+02 -0.26104357283E+02  0.18449974956E+04  0.18453999104E+04  0.00000000000E+00 0. -1.
         22    1    3    3    0    0 -0.36980766532E+01 -0.47656604966E+02  0.84318954585E+02  0.96925300464E+02  0.00000000000E+00 0. -1.
         22    1    3    3    0    0 -0.52675748915E+02  0.12482313988E+02 -0.21116311311E+02  0.58107153515E+02  0.00000000000E+00 0. -1.
</event>
<event>
 7    1  0.6089676E-006  0.7140833E+02  0.7818608E-02  0.1373615E+00
          2   -1    0    0  502    0  0.00000000000E+00  0.00000000000E+00  0.53725516048E+03  0.53725516048E+03  0.00000000000E+00 0. -1.
          1   -1    0    0  501    0 -0.00000000000E+00 -0.00000000000E+00 -0.13191161837E+03  0.13191161837E+03  0.00000000000E+00 0. -1.
         25    2    1    2    0    0  0.12196262016E+03  0.29000503965E+02  0.14909608763E+03  0.23144095054E+03  0.12497743915E+03 0.  0.
          2    1    1    2  501    0 -0.60660477908E+02 -0.30502282121E+02 -0.74815434088E+02  0.10103183643E+03  0.00000000000E+00 0. -1.
          1    1    1    2  502    0 -0.61302142251E+02  0.15017781561E+01  0.33106288856E+03  0.33669399188E+03  0.00000000000E+00 0. -1.
         22    1    3    3    0    0  0.16784343424E+02  0.59480734475E+02  0.83178976834E+02  0.10362631975E+03  0.00000000000E+00 0.  1.
         22    1    3    3    0    0  0.10517827674E+03 -0.30480230510E+02  0.65917110799E+02  0.12781463079E+03  0.00000000000E+00 0.  1.
</event>
<event>
 7    1  0.1168034E-005  0.4385578E+02  0.7818608E-02  0.1508353E+00
          2   -1    0    0  502    0  0.00000000000E+00  0.00000000000E+00  0.26535966132E+04  0.26535966132E+04  0.00000000000E+00 0. -1.
          1   -1    0    0  501    0 -0.00000000000E+00 -0.00000000000E+00 -0.13852719005E+04  0.13852719005E+04  0.00000000000E+00 0. -1.
         25    2    1    2    0    0 -0.22376629538E+02  0.18909189028E+02 -0.54623283849E+03  0.56111786715E+03  0.12499870402E+03 0.  0.
          2    1    1    2  501    0 -0.19923278360E+02 -0.30520934426E+02 -0.83101527710E+03  0.83181419514E+03  0.00000000000E+00 0. -1.
          1    1    1    2  502    0  0.42299907899E+02  0.11611745398E+02  0.26455728283E+04  0.26459364514E+04  0.00000000000E+00 0. -1.
         22    1    3    3    0    0  0.12769900353E+02 -0.49528103669E+02 -0.23727382845E+03  0.24272406777E+03  0.00000000000E+00 0.  1.
         22    1    3    3    0    0 -0.35146529892E+02  0.68437292697E+02 -0.30895901005E+03  0.31839379938E+03  0.00000000000E+00 0.  1.
</event>
<event>
 7    1  0.6089676E-006  0.7231119E+02  0.7818608E-02  0.1410857E+00
          2   -1    0    0  502    0  0.00000000000E+00  0.00000000000E+00  0.16539394430E+04  0.16539394430E+04  0.00000000000E+00 0. -1.
          1   -1    0    0  501    0 -0.00000000000E+00 -0.00000000000E+00 -0.52331309456E+02  0.52331309456E+02  0.00000000000E+00 0. -1.
         25    2    1    2    0    0 -0.92055666214E+02  0.43732990244E+02  0.56697879311E+03  0.58947048875E+03  0.12499474050E+03 0.  0.
          2    1    1    2  501    0  0.44328041008E+02  0.73645152817E+01 -0.27295386546E+02  0.52576129865E+02  0.00000000000E+00 0. -1.
          1    1    1    2  502    0  0.47727625207E+02 -0.51097505526E+02  0.10619247270E+04  0.10642241338E+04  0.00000000000E+00 0. -1.
         22    1    3    3    0    0 -0.15998843290E+02  0.48414941326E+02  0.69550405329E+02  0.86239366949E+02  0.00000000000E+00 0. -1.
         22    1    3    3    0    0 -0.76056822924E+02 -0.46819510818E+01  0.49742838778E+03  0.50323112180E+03  0.00000000000E+00 0. -1.
</event>
<event>
 7    1  0.6089676E-006  0.2584272E+02  0.7818608E-02  0.1651971E+00
          2   -1    0    0  502    0  0.00000000000E+00  0.00000000000E+00  0.16664563074E+04  0.16664563074E+04  0.00000000000E+00 0. -1.
          1   -1    0    0  501    0 -0.00000000000E+00 -0.00000000000E+00 -0.68267801056E+02  0.68267801056E+02  0.00000000000E+00 0. -1.
         25    2    1    2    0    0 -0.21753686473E+02 -0.38247189702E+02  0.17578829408E+03  0.22013999343E+03  0.12499608784E+03 0.  0.
          2    1    1    2  501    0  0.22188089529E+02  0.12811379784E+02 -0.42412448595E+02  0.49550565736E+02  0.00000000000E+00 0. -1.
          1    1    1    2  502    0 -0.43440305648E+00  0.25435809917E+02  0.14648126608E+04  0.14650335493E+04  0.00000000000E+00 0. -1.
         22    1    3    3    0    0  0.26677319494E+02 -0.46465237121E+02  0.20667461749E+02  0.57426837030E+02  0.00000000000E+00 0. -1.
         22    1    3    3    0    0 -0.48431005967E+02  0.82180474192E+01  0.15512083233E+03  0.16271315640E+03  0.00000000000E+00 0. -1.
</event>
<event>
 7    1  0.6089676E-006  0.1026258E+03  0.7818608E-02  0.1341855E+00
          2   -1    0    0  502    0  0.00000000000E+00  0.00000000000E+00  0.34219227219E+03  0.34219227219E+03  0.00000000000E+00 0. -1.
          1   -1    0    0  501    0 -0.00000000000E+00 -0.00000000000E+00 -0.33326697280E+04  0.33326697280E+04  0.00000000000E+00 0. -1.
         25    2    1    2    0    0 -0.56620028157E+02  0.32041111958E+02 -0.11820790910E+04  0.11904489580E+04  0.12500113526E+03 0.  0.
          2    1    1    2  501    0  0.11232768755E+03 -0.34722043677E+02 -0.21424822740E+04  0.21457058102E+04  0.00000000000E+00 0. -1.
          1    1    1    2  502    0 -0.55707659390E+02  0.26809317182E+01  0.33408390910E+03  0.33870723202E+03  0.00000000000E+00 0. -1.
         22    1    3    3    0    0 -0.53849594854E+02  0.43173726038E+02 -0.28293924477E+03  0.29123592793E+03  0.00000000000E+00 0. -1.
         22    1    3    3    0    0 -0.27704333038E+01 -0.11132614080E+02 -0.89913984622E+03  0.89921303007E+03  0.00000000000E+00 0. -1.
</event>
<event>
 7    1  0.6089676E-006  0.1318811E+03  0.7818608E-02  0.1344223E+00
          2   -1    0    0  502    0  0.00000000000E+00  0.00000000000E+00  0.12597039990E+04  0.12597039990E+04  0.00000000000E+00 0. -1.
          1   -1    0    0  501    0 -0.00000000000E+00 -0.00000000000E+00 -0.50448380649E+02  0.50448380649E+02  0.00000000000E+00 0. -1.
         25    2    1    2    0    0 -0.62689048716E+02  0.75443625033E+02  0.22912646183E+03  0.27882888976E+03  0.12499982746E+03 0.  0.
          2    1    1    2  501    0 -0.13629350344E+02  0.40279563687E+02  0.11084411077E+01  0.42537408046E+02  0.00000000000E+00 0. -1.
          1    1    1    2  502    0  0.76318399060E+02 -0.11572318872E+03  0.97902071546E+03  0.98878608189E+03  0.00000000000E+00 0. -1.
         22    1    3    3    0    0 -0.12685241673E+02  0.76838568463E+02  0.49292953034E+02  0.92167652560E+02  0.00000000000E+00 0. -1.
         22    1    3    3    0    0 -0.50003807043E+02 -0.13949434300E+01  0.17983350880E+03  0.18666123720E+03  0.00000000000E+00 0. -1.
</event>
<event>
 7    1  0.7736775E-006  0.7866516E+02  0.7818608E-02  0.1341621E+00
          2   -1    0    0  502    0  0.00000000000E+00  0.00000000000E+00  0.14384722891E+04  0.14384722891E+04  0.00000000000E+00 0. -1.
          1   -1    0    0  501    0 -0.00000000000E+00 -0.00000000000E+00 -0.11287015669E+04  0.11287015669E+04  0.00000000000E+00 0. -1.
         25    2    1    2    0    0 -0.71920431495E+02  0.10215313944E+03 -0.54531868695E+03  0.57323943298E+03  0.12499265904E+03 0.  0.
          2    1    1    2  501    0  0.50653713582E+01 -0.73069235733E+02 -0.56612887328E+03  0.57084732842E+03  0.00000000000E+00 0. -1.
          1    1    1    2  502    0  0.66855060137E+02 -0.29083903708E+02  0.14212182824E+04  0.14230870946E+04  0.00000000000E+00 0. -1.
         22    1    3    3    0    0 -0.33197481169E+02  0.23451807714E+01 -0.23973440752E+02  0.41015832191E+02  0.00000000000E+00 0. -1.
         22    1    3    3    0    0 -0.38722950326E+02  0.99807958670E+02 -0.52134524620E+03  0.53222360078E+03  0.00000000000E+00 0. -1.
</event>
<event>
 7    1  0.6089676E-006  0.1042696E+03  0.7818608E-02  0.1311643E+00
          2   -1    0    0  502    0  0.00000000000E+00  0.00000000000E+00  0.94751589192E+03  0.94751589192E+03  0.00000000000E+00 0. -1.
          1   -1    0    0  501    0 -0.00000000000E+00 -0.00000000000E+00 -0.49762562345E+03  0.49762562345E+03  0.00000000000E+00 0. -1.
         25    2    1    2    0    0  0.13856123483E+03 -0.25420844417E+02  0.99757241025E+02  0.21312545329E+03  0.12500206628E+03 0.  0.
          2    1    1    2  501    0 -0.41028301072E+02  0.58803821457E+02 -0.43463320242E+03  0.44050792451E+03  0.00000000000E+00 0. -1.
          1    1    1    2  502    0 -0.97532933760E+02 -0.33382977041E+02  0.78476622986E+03  0.79150813758E+03  0.00000000000E+00 0. -1.
         22    1    3    3    0    0 -0.18272731368E+02  0.12257537289E+02  0.30452940904E+02  0.37570221476E+02  0.00000000000E+00 0.  1.
         22    1    3    3    0    0  0.15683396620E+03 -0.37678381706E+02  0.69304300122E+02  0.17555523181E+03  0.00000000000E+00 0.  1.
</event>
<event>
 7    1  0.6089676E-006  0.1321252E+03  0.7818608E-02  0.1271466E+00
          2   -1    0    0  502    0  0.00000000000E+00  0.00000000000E+00  0.24972029769E+03  0.24972029769E+03  0.00000000000E+00 0. -1.
          1   -1    0    0  501    0 -0.00000000000E+00 -0.00000000000E+00 -0.27928948729E+03  0.27928948729E+03  0.00000000000E+00 0. -1.
         25    2    1    2    0    0 -0.13521985287E+03  0.12490874290E+03 -0.88900206706E+02  0.23961397793E+03  0.12500003601E+03 0.  0.
          2    1    1    2  501    0  0.81611704611E+02 -0.11119973662E+02 -0.70652048356E+02  0.10851652446E+03  0.00000000000E+00 0. -1.
          1    1    1    2  502    0  0.53608148260E+02 -0.11378876924E+03  0.12998306546E+03  0.18087928259E+03  0.00000000000E+00 0. -1.
         22    1    3    3    0    0 -0.18107278029E+01  0.33620569913E+02  0.24939197009E+02  0.41899701716E+02  0.00000000000E+00 0.  1.
         22    1    3    3    0    0 -0.13340912507E+03  0.91288172989E+02 -0.11383940372E+03  0.19771427621E+03  0.00000000000E+00 0.  1.
</event>
<event>
 7    1  0.6089676E-006  0.7994124E+02  0.7818608E-02  0.1436829E+00
          2   -1    0    0  502    0  0.00000000000E+00  0.00000000000E+00  0.24273382076E+03  0.24273382076E+03  0.00000000000E+00 0. -1.
          1   -1    0    0  501    0 -0.00000000000E+00 -0.00000000000E+00 -0.78860154138E+03  0.78860154138E+03  0.00000000000E+00 0. -1.
         25    2    1    2    0    0 -0.58238334131E+02  0.14520290547E+02 -0.12017747370E+03  0.18349085922E+03  0.12499491123E+03 0.  0.
          2    1    1    2  501    0 -0.22280786134E+02 -0.24779796404E+02 -0.62850609204E+03  0.62938889366E+03  0.00000000000E+00 0. -1.
          1    1    1    2  502    0  0.80519120265E+02  0.10259505858E+02  0.20281584511E+03  0.21845560926E+03  0.00000000000E+00 0. -1.
         22    1    3    3    0    0  0.39359548372E+02 -0.15842979913E+01 -0.28476172546E+02  0.48606341675E+02  0.00000000000E+00 0. -1.
         22    1    3    3    0    0 -0.97597882503E+02  0.16104588538E+02 -0.91701301151E+02  0.13488451755E+03  0.00000000000E+00 0. -1.
</event>
<event>
 7    1  0.6089676E-006  0.6400624E+02  0.7818608E-02  0.1386848E+00
          2   -1    0    0  502    0  0.00000000000E+00  0.00000000000E+00  0.21187488648E+04  0.21187488648E+04  0.00000000000E+00 0. -1.
          1   -1    0    0  501    0 -0.00000000000E+00 -0.00000000000E+00 -0.34357783792E+02  0.34357783792E+02  0.00000000000E+00 0. -1.
         25    2    1    2    0    0  0.56522519483E+01 -0.22931760060E+02  0.74361823851E+03  0.75441872380E+03  0.12498684974E+03 0.  0.
          2    1    1    2  501    0 -0.50769289585E+02 -0.34559309500E+02  0.57696472890E+01  0.61685942223E+02  0.00000000000E+00 0. -1.
          1    1    1    2  502    0  0.45117037637E+02  0.57491069560E+02  0.13350031952E+04  0.13370019826E+04  0.00000000000E+00 0. -1.
         22    1    3    3    0    0 -0.51003870382E+02 -0.40498008284E+02  0.31041956838E+03  0.31717785532E+03  0.00000000000E+00 0.  1.
         22    1    3    3    0    0  0.56656122330E+02  0.17566248224E+02  0.43319867012E+03  0.43724086848E+03  0.00000000000E+00 0.  1.
</event>
<event>
 7    1  0.6089676E-006  0.1823168E+03  0.7818608E-02  0.1365628E+00
          2   -1    0    0  502    0  0.00000000000E+00  0.00000000000E+00  0.18053044546E+04  0.18053044546E+04  0.00000000000E+00 0. -1.
          1   -1    0    0  501    0 -0.00000000000E+00 -0.00000000000E+00 -0.11299352848E+04  0.11299352848E+04  0.00000000000E+00 0. -1.
         25    2    1    2    0    0 -0.14130238897E+03 -0.77308652821E+02  0.18542180573E+03  0.27559215152E+03  0.12500717984E+03 0.  0.
          2    1    1    2  501    0 -0.25550243961E+02 -0.23706648365E+01 -0.10792696302E+04  0.10795746244E+04  0.00000000000E+00 0. -1.
          1    1    1    2  502    0  0.16685263293E+03  0.79679317658E+02  0.15692169943E+04  0.15800729635E+04  0.00000000000E+00 0. -1.
         22    1    3    3    0    0 -0.10280831516E+03 -0.60115399575E+02  0.19846986137E+03  0.23145992484E+03  0.00000000000E+00 0. -1.
         22    1    3    3    0    0 -0.38494073818E+02 -0.17193253247E+02 -0.13048055648E+02  0.44132226689E+02  0.00000000000E+00 0. -1.
</event>
<event>
 7    1  0.6089676E-006  0.5941424E+02  0.7818608E-02  0.1491365E+00
          2   -1    0    0  502    0  0.00000000000E+00  0.00000000000E+00  0.22282529093E+04  0.22282529093E+04  0.00000000000E+00 0. -1.
          1   -1    0    0  501    0 -0.00000000000E+00 -0.00000000000E+00 -0.34502663653E+03  0.34502663653E+03  0.00000000000E+00 0. -1.
         25    2    1    2    0    0 -0.11110398352E+02 -0.40565210470E+02  0.86903606719E+03  0.87898630130E+03  0.12499701816E+03 0.  0.
          2    1    1    2  501    0 -0.29426357928E+02 -0.69477695911E+01 -0.33865755186E+03  0.34000458744E+03  0.00000000000E+00 0. -1.
          1    1    1    2  502    0  0.40536756280E+02  0.47512980061E+02  0.13528477575E+04  0.13542886571E+04  0.00000000000E+00 0. -1.
         22    1    3    3    0    0 -0.49949763380E+02 -0.67300155772E+02  0.60426279586E+03  0.61004738856E+03  0.00000000000E+00 0. -1.
         22    1    3    3    0    0  0.38839365028E+02  0.26734945302E+02  0.26477327133E+03  0.26893891274E+03  0.00000000000E+00 0. -1.
</event>
<event>
 7    1  0.6089676E-006  0.6237531E+02  0.7818608E-02  0.1502220E+00
          2   -1    0    0  502    0  0.00000000000E+00  0.00000000000E+00  0.23632863897E+03  0.23632863897E+03  0.00000000000E+00 0. -1.
          1   -1    0    0  501    0 -0.00000000000E+00 -0.00000000000E+00 -0.17430113219E+04  0.17430113219E+04  0.00000000000E+00 0. -1.
         25    2    1    2    0    0 -0.27202178651E+02  0.24859943632E+02 -0.96404768794E+03  0.97281578517E+03  0.12499852775E+03 0.  0.
          2    1    1    2  501    0 -0.11759295953E+02  0.23994883761E+02 -0.77013490334E+03  0.77059834209E+03  0.00000000000E+00 0. -1.
          1    1    1    2  502    0  0.38961474604E+02 -0.48854827393E+02  0.22749990836E+03  0.23592583361E+03  0.00000000000E+00 0. -1.
         22    1    3    3    0    0 -0.75786279161E+02  0.15499694963E+01 -0.60973156348E+03  0.61442537547E+03  0.00000000000E+00 0. -1.
         22    1    3    3    0    0  0.48584100510E+02  0.23309974136E+02 -0.35431612445E+03  0.35839040970E+03  0.00000000000E+00 0. -1.
</event>
<event>
 7    1  0.6089676E-006  0.7267725E+02  0.7818608E-02  0.1383431E+00
          2   -1    0    0  502    0  0.00000000000E+00  0.00000000000E+00  0.35851859662E+03  0.35851859662E+03  0.00000000000E+00 0. -1.
          1   -1    0    0  501    0 -0.00000000000E+00 -0.00000000000E+00 -0.12879037446E+04  0.12879037446E+04  0.00000000000E+00 0. -1.
         25    2    1    2    0    0  0.67637776685E+02  0.95836318095E+02 -0.29282483622E+03  0.33930926594E+03  0.12499969816E+03 0.  0.
          2    1    1    2  501    0 -0.49135021744E+02 -0.26031249422E+02 -0.96714017988E+03  0.96873732449E+03  0.00000000000E+00 0. -1.
          1    1    1    2  502    0 -0.18502754940E+02 -0.69805068672E+02  0.33057986810E+03  0.33837575082E+03  0.00000000000E+00 0. -1.
         22    1    3    3    0    0  0.22304621678E+02 -0.29109181705E+02 -0.44620255783E+02  0.57756452747E+02  0.00000000000E+00 0.  1.
         22    1    3    3    0    0  0.45333155007E+02  0.12494549980E+03 -0.24820458044E+03  0.28155281319E+03  0.00000000000E+00 0.  1.
</event>
<event>
 7    1  0.6089676E-006  0.5718865E+02  0.7818608E-02  0.1437872E+00
          2   -1    0    0  502    0  0.00000000000E+00  0.00000000000E+00  0.71454603310E+03  0.71454603310E+03  0.00000000000E+00 0. -1.
          1   -1    0    0  501    0 -0.00000000000E+00 -0.00000000000E+00 -0.78561110352E+03  0.78561110352E+03  0.00000000000E+00 0. -1.
         25    2    1    2    0    0 -0.33028247857E+02  0.77320719010E+01  0.16270991837E+03  0.20796379810E+03  0.12499509468E+03 0.  0.
          2    1    1    2  501    0  0.63140856111E+01  0.45785298525E+02 -0.76059028566E+03  0.76199327023E+03  0.00000000000E+00 0. -1.
          1    1    1    2  502    0  0.26714162246E+02 -0.53517370426E+02  0.52681529687E+03  0.53020006829E+03  0.00000000000E+00 0. -1.
         22    1    3    3    0    0 -0.42742897084E+02 -0.51205409461E+02  0.63107792062E+02  0.91823431804E+02  0.00000000000E+00 0. -1.
         22    1    3    3    0    0  0.97146492274E+01  0.58937481362E+02  0.99602126311E+02  0.11614036630E+03  0.00000000000E+00 0. -1.
</event>
<event>
 7    1  0.6089676E-006  0.9740585E+02  0.7818608E-02  0.1288065E+00
          2   -1    0    0  502    0  0.00000000000E+00  0.00000000000E+00  0.33081116708E+03  0.33081116708E+03  0.00000000000E+00 0. -1.
          1   -1    0    0  501    0 -0.00000000000E+00 -0.00000000000E+00 -0.32172717772E+04  0.32172717772E+04  0.00000000000E+00 0. -1.
         25    2    1    2    0    0  0.61120347482E+02 -0.14781058093E+01  0.20109591846E+02  0.14059913184E+03  0.12500335403E+03 0.  0.
          2    1    1    2  501    0 -0.32662468324E+02  0.92528711866E+02 -0.31471510588E+04  0.31486803881E+04  0.00000000000E+00 0. -1.
          1    1    1    2  502    0 -0.28457879158E+02 -0.91050606057E+02  0.24058085688E+03  0.25880342433E+03  0.00000000000E+00 0. -1.
         22    1    3    3    0    0  0.50305757473E+02  0.54725946233E+02  0.33941040626E+02  0.81716538502E+02  0.00000000000E+00 0. -1.
         22    1    3    3    0    0  0.10814590009E+02 -0.56204052042E+02 -0.13831448781E+02  0.58882593340E+02  0.00000000000E+00 0. -1.
</event>
<event>
 7    1  0.6089676E-006  0.1316727E+03  0.7818608E-02  0.1232221E+00
          2   -1    0    0  502    0  0.00000000000E+00  0.00000000000E+00  0.18068637834E+04  0.18068637834E+04  0.00000000000E+00 0. -1.
          1   -1    0    0  501    0 -0.00000000000E+00 -0.00000000000E+00 -0.98640248085E+03  0.98640248085E+03  0.00000000000E+00 0. -1.
         25    2    1    2    0    0 -0.16408715449E+02 -0.10156243241E+02  0.18598195003E+03  0.22491403340E+03  0.12499856585E+03 0.  0.
          2    1    1    2  501    0  0.23239480755E+02 -0.12960569837E+03 -0.95937425677E+03  0.96836804732E+03  0.00000000000E+00 0. -1.
          1    1    1    2  502    0 -0.68307653052E+01  0.13976194161E+03  0.15938536093E+04  0.15999841835E+04  0.00000000000E+00 0. -1.
         22    1    3    3    0    0 -0.42594739540E+01 -0.65562657214E+02  0.71201638166E+02  0.96882807643E+02  0.00000000000E+00 0. -1.
         22    1    3    3    0    0 -0.12149241495E+02  0.55406413973E+02  0.11478031186E+03  0.12803122576E+03  0.00000000000E+00 0. -1.
</event>
<event>
 7    1  0.6089676E-006  0.3934099E+02  0.7818608E-02  0.1522497E+00
          2   -1    0    0  502    0  0.00000000000E+00  0.00000000000E+00  0.28815035405E+04  0.28815035405E+04  0.00000000000E+00 0. -1.
          1   -1    0    0  501    0 -0.00000000000E+00 -0.00000000000E+00 -0.63576650868E+03  0.63576650868E+03  0.00000000000E+00 0. -1.
         25    2    1    2    0    0 -0.13785628718E+02  0.75479226630E+01  0.11455560996E+04  0.11524630948E+04  0.12500157187E+03 0.  0.
          2    1    1    2  501    0  0.29753649019E+02  0.25765382711E+02 -0.63150332839E+03  0.63272868462E+03  0.00000000000E+00 0. -1.
          1    1    1    2  502    0 -0.15968020301E+02 -0.33313305374E+02  0.17316842606E+04  0.17320782697E+04  0.00000000000E+00 0. -1.
         22    1    3    3    0    0 -0.18458849505E+02 -0.32236785207E+02  0.10199011230E+04  0.10205774053E+04  0.00000000000E+00 0. -1.
         22    1    3    3    0    0  0.46732207870E+01  0.39784707870E+02  0.12565497659E+03  0.13188568957E+03  0.00000000000E+00 0. -1.
</event>
<event>
 7    1  0.6089676E-006  0.7072209E+02  0.7818608E-02  0.1440988E+00
          2   -1    0    0  502    0  0.00000000000E+00  0.00000000000E+00  0.17620764427E+03  0.17620764427E+03  0.00000000000E+00 0. -1.
          1   -1    0    0  501    0 -0.00000000000E+00 -0.00000000000E+00 -0.94340113828E+03  0.94340113828E+03  0.00000000000E+00 0. -1.
         25    2    1    2    0    0 -0.12222508759E+02  0.10522103442E+03 -0.11691440579E+03  0.20128344721E+03  0.12500076814E+03 0.  0.
          2    1    1    2  501    0  0.89932863107E+01 -0.68850868453E+02 -0.78024459000E+03  0.78332811868E+03  0.00000000000E+00 0. -1.
          1    1    1    2  502    0  0.32292224480E+01 -0.36370165971E+02  0.12996550179E+03  0.13499721666E+03  0.00000000000E+00 0. -1.
         22    1    3    3    0    0 -0.55084791314E+02  0.10214248165E+03 -0.62060840002E+02  0.13160155263E+03  0.00000000000E+00 0.  1.
         22    1    3    3    0    0  0.42862282555E+02  0.30785527705E+01 -0.54853565792E+02  0.69681894586E+02  0.00000000000E+00 0.  1.
</event>
<event>
 7    1  0.6089676E-006  0.2063780E+03  0.7818608E-02  0.1307457E+00
          2   -1    0    0  502    0  0.00000000000E+00  0.00000000000E+00  0.28952877702E+03  0.28952877702E+03  0.00000000000E+00 0. -1.
          1   -1    0    0  501    0 -0.00000000000E+00 -0.00000000000E+00 -0.14748242710E+04  0.14748242710E+04  0.00000000000E+00 0. -1.
         25    2    1    2    0    0 -0.19495261156E+03 -0.26490880981E+02  0.66770247395E+01  0.23319059064E+03  0.12499992549E+03 0.  0.
          2    1    1    2  501    0  0.20700522867E+03 -0.91565837064E+01 -0.13514821478E+04  0.13672742971E+04  0.00000000000E+00 0. -1.
          1    1    1    2  502    0 -0.12052617108E+02  0.35647464687E+02  0.15950962907E+03  0.16388816029E+03  0.00000000000E+00 0. -1.
         22    1    3    3    0    0 -0.18251760982E+03 -0.69449187718E+01  0.45272059867E+02  0.18817669674E+03  0.00000000000E+00 0. -1.
         22    1    3    3    0    0 -0.12435001735E+02 -0.19545962209E+02 -0.38595035128E+02  0.45013893892E+02  0.00000000000E+00 0. -1.
</event>
<event>
 7    1  0.6089676E-006  0.5097170E+02  0.7818608E-02  0.1546234E+00
          2   -1    0    0  502    0  0.00000000000E+00  0.00000000000E+00  0.18768172757E+04  0.18768172757E+04  0.00000000000E+00 0. -1.
          1   -1    0    0  501    0 -0.00000000000E+00 -0.00000000000E+00 -0.50674805257E+03  0.50674805257E+03  0.00000000000E+00 0. -1.
         25    2    1    2    0    0 -0.99599364591E+01 -0.69142508877E+02  0.20900514140E+03  0.25335355161E+03  0.12499994446E+03 0.  0.
          2    1    1    2  501    0 -0.58333523626E+01  0.50540317947E+02 -0.48314768736E+03  0.48581893700E+03  0.00000000000E+00 0. -1.
          1    1    1    2  502    0  0.15793288822E+02  0.18602190931E+02  0.16442117691E+04  0.16443928396E+04  0.00000000000E+00 0. -1.
         22    1    3    3    0    0 -0.13906451221E+02 -0.10519357056E+03  0.16699890334E+03  0.19785780345E+03  0.00000000000E+00 0.  1.
         22    1    3    3    0    0  0.39465147614E+01  0.36051061682E+02  0.42006238063E+02  0.55495748156E+02  0.00000000000E+00 0.  1.
</event>
<event>
 7    1  0.6089676E-006  0.8637122E+02  0.7818608E-02  0.1431463E+00
          2   -1    0    0  502    0  0.00000000000E+00  0.00000000000E+00  0.83167679646E+03  0.83167679646E+03  0.00000000000E+00 0. -1.
          1   -1    0    0  501    0 -0.00000000000E+00 -0.00000000000E+00 -0.59559913787E+02  0.59559913787E+02  0.00000000000E+00 0. -1.
         25    2    1    2    0    0  0.40167979152E+02  0.40105273081E+02  0.48998425255E+03  0.50885284886E+03  0.12499901827E+03 0.  0.
          2    1    1    2  501    0 -0.60178733049E+02 -0.65224734973E+02 -0.92596029679E+01  0.89227160723E+02  0.00000000000E+00 0. -1.
          1    1    1    2  502    0  0.20010753897E+02  0.25119461891E+02  0.29139223309E+03  0.29315670066E+03  0.00000000000E+00 0. -1.
         22    1    3    3    0    0  0.53803431491E+02 -0.26717704663E+02  0.14093895467E+03  0.15320716016E+03  0.00000000000E+00 0.  1.
         22    1    3    3    0    0 -0.13635452338E+02  0.66822977744E+02  0.34904529788E+03  0.35564568870E+03  0.00000000000E+00 0.  1.
</event>
<event>
 7    1  0.6089676E-006  0.1185812E+03  0.7818608E-02  0.1351358E+00
          2   -1    0    0  502    0  0.00000000000E+00  0.00000000000E+00  0.33312212647E+04  0.33312212647E+04  0.00000000000E+00 0. -1.
          1   -1    0    0  501    0 -0.00000000000E+00 -0.00000000000E+00 -0.66114718215E+02  0.66114718215E+02  0.00000000000E+00 0. -1.
         25    2    1    2    0    0  0.22995297300E+02 -0.92678049987E+02  0.68937184130E+03  0.70709053497E+03  0.12500193763E+03 0.  0.
          2    1    1    2  501    0  0.11627359242E+02  0.12061822438E+03  0.72697795893E+01  0.12139522738E+03  0.00000000000E+00 0. -1.
          1    1    1    2  502    0 -0.34622656541E+02 -0.27940174396E+02  0.25684649256E+04  0.25688502206E+04  0.00000000000E+00 0. -1.
         22    1    3    3    0    0  0.53216374596E+01 -0.71384700665E+02  0.66877295325E+03  0.67259301091E+03  0.00000000000E+00 0. -1.
         22    1    3    3    0    0  0.17673659840E+02 -0.21293349323E+02  0.20598888048E+02  0.34497524061E+02  0.00000000000E+00 0. -1.
</event>
<event>
 7    1  0.6089676E-006  0.1286167E+03  0.7818608E-02  0.1400911E+00
          2   -1    0    0  502    0  0.00000000000E+00  0.00000000000E+00  0.10943626382E+04  0.10943626382E+04  0.00000000000E+00 0. -1.
          1   -1    0    0  501    0 -0.00000000000E+00 -0.00000000000E+00 -0.10308086972E+04  0.10308086972E+04  0.00000000000E+00 0. -1.
         25    2    1    2    0    0 -0.14588302088E+03  0.16258483118E+02  0.27951403159E+02  0.19479369881E+03  0.12496843643E+03 0.  0.
          2    1    1    2  501    0  0.22212223626E+02  0.15898022465E+02 -0.94303619038E+03  0.94343170731E+03  0.00000000000E+00 0. -1.
          1    1    1    2  502    0  0.12367079725E+03 -0.32156505583E+02  0.97863872824E+03  0.98694592930E+03  0.00000000000E+00 0. -1.
         22    1    3    3    0    0 -0.17191540167E+02 -0.38508856456E+01  0.58424876431E+02  0.61023311608E+02  0.00000000000E+00 0.  1.
         22    1    3    3    0    0 -0.12869148071E+03  0.20109368764E+02 -0.30473473272E+02  0.13377038720E+03  0.00000000000E+00 0.  1.
</event>
<event>
 7    1  0.6089676E-006  0.4851203E+02  0.7818608E-02  0.1456818E+00
          2   -1    0    0  502    0  0.00000000000E+00  0.00000000000E+00  0.99514150910E+03  0.99514150910E+03  0.00000000000E+00 0. -1.
          1   -1    0    0  501    0 -0.00000000000E+00 -0.00000000000E+00 -0.12853344407E+03  0.12853344407E+03  0.00000000000E+00 0. -1.
         25    2    1    2    0    0  0.23004960349E+02 -0.11423684766E+02  0.78594851553E+02  0.14987259154E+03  0.12499965692E+03 0.  0.
          2    1    1    2  501    0  0.33868637997E+01  0.50750344646E+02 -0.85242068517E+02  0.99263682046E+02  0.00000000000E+00 0. -1.
          1    1    1    2  502    0 -0.26391824149E+02 -0.39326659880E+02  0.87325528200E+03  0.87453867959E+03  0.00000000000E+00 0. -1.
         22    1    3    3    0    0 -0.93895193841E+01  0.17595652057E+02  0.99597828964E+02  0.10157508346E+03  0.00000000000E+00 0.  1.
         22    1    3    3    0    0  0.32394479733E+02 -0.29019336823E+02 -0.21002977412E+02  0.48297508083E+02  0.00000000000E+00 0.  1.
</event>
<event>
 7    1  0.6089676E-006  0.8353315E+02  0.7818608E-02  0.1455132E+00
          2   -1    0    0  502    0  0.00000000000E+00  0.00000000000E+00  0.26715621521E+03  0.26715621521E+03  0.00000000000E+00 0. -1.
          1   -1    0    0  501    0 -0.00000000000E+00 -0.00000000000E+00 -0.36725907243E+03  0.36725907243E+03  0.00000000000E+00 0. -1.
         25    2    1    2    0    0 -0.87353389528E+02 -0.61480167943E+02 -0.14940569528E+03  0.22216288592E+03  0.12499544145E+03 0.  0.
          2    1    1    2  501    0  0.13522262046E+02  0.24342621472E+02 -0.17292589957E+03  0.17515359412E+03  0.00000000000E+00 0. -1.
          1    1    1    2  502    0  0.73831127482E+02  0.37137546471E+02  0.22222873763E+03  0.23709880761E+03  0.00000000000E+00 0. -1.
         22    1    3    3    0    0 -0.59485617785E+02 -0.63895895437E+02 -0.16747455495E+03  0.18886225333E+03  0.00000000000E+00 0.  1.
         22    1    3    3    0    0 -0.27867771743E+02  0.24157274939E+01  0.18068859665E+02  0.33300632589E+02  0.00000000000E+00 0.  1.
</event>
<event>
 7    1  0.6089676E-006  0.9616708E+02  0.7818608E-02  0.1471194E+00
          2   -1    0    0  502    0  0.00000000000E+00  0.00000000000E+00  0.37885797598E+03  0.37885797598E+03  0.00000000000E+00 0. -1.
          1   -1    0    0  501    0 -0.00000000000E+00 -0.00000000000E+00 -0.67277717400E+03  0.67277717400E+03  0.00000000000E+00 0. -1.
         25    2    1    2    0    0 -0.66613199714E+02 -0.68971786368E+02 -0.19852983459E+03  0.25344150578E+03  0.12499630370E+03 0.  0.
          2    1    1    2  501    0  0.49991204912E+02  0.82664153507E+02 -0.44123071681E+03  0.45168244187E+03  0.00000000000E+00 0. -1.
          1    1    1    2  502    0  0.16621994802E+02 -0.13692367139E+02  0.34584135338E+03  0.34651120232E+03  0.00000000000E+00 0. -1.
         22    1    3    3    0    0  0.29715722260E+02  0.57429861839E+01 -0.70158712343E+02  0.76408448207E+02  0.00000000000E+00 0.  1.
         22    1    3    3    0    0 -0.96328921974E+02 -0.74714772552E+02 -0.12837112225E+03  0.17703305757E+03  0.00000000000E+00 0.  1.
</event>
<event>
 7    1  0.6089676E-006  0.7357588E+02  0.7818608E-02  0.1444866E+00
          2   -1    0    0  502    0  0.00000000000E+00  0.00000000000E+00  0.29413078703E+03  0.29413078703E+03  0.00000000000E+00 0. -1.
          1   -1    0    0  501    0 -0.00000000000E+00 -0.00000000000E+00 -0.69182463729E+02  0.69182463729E+02  0.00000000000E+00 0. -1.
         25    2    1    2    0    0 -0.55762027370E+02 -0.58527620446E+02  0.99554750095E+02  0.17908344070E+03  0.12499937766E+03 0.  0.
          2    1    1    2  501    0  0.32312184020E+02 -0.10892111995E+02 -0.51917965439E+01  0.34491594501E+02  0.00000000000E+00 0. -1.
          1    1    1    2  502    0  0.23449843350E+02  0.69419732441E+02  0.13058536975E+03  0.14973821555E+03  0.00000000000E+00 0. -1.
         22    1    3    3    0    0 -0.14635838536E+02  0.38896707606E+02  0.16896760509E+02  0.44862703307E+02  0.00000000000E+00 0.  1.
         22    1    3    3    0    0 -0.41126188834E+02 -0.97424328052E+02  0.82657989586E+02  0.13422073739E+03  0.00000000000E+00 0.  1.
</event>
<event>
 7    1  0.6089676E-006  0.6667707E+02  0.7818608E-02  0.1415720E+00
          2   -1    0    0  502    0  0.00000000000E+00  0.00000000000E+00  0.21669865214E+04  0.21669865214E+04  0.00000000000E+00 0. -1.
          1   -1    0    0  501    0 -0.00000000000E+00 -0.00000000000E+00 -0.62148182421E+02  0.62148182421E+02  0.00000000000E+00 0. -1.
         25    2    1    2    0    0 -0.30922482857E+02 -0.46922496953E+01  0.15290816806E+03  0.19995968034E+03  0.12499899499E+03 0.  0.
          2    1    1    2  501    0 -0.28373166344E+02  0.37377497263E+02 -0.23571028595E+02  0.52513876824E+02  0.00000000000E+00 0. -1.
          1    1    1    2  502    0  0.59295649202E+02 -0.32685247568E+02  0.19755011995E+04  0.19766611466E+04  0.00000000000E+00 0. -1.
         22    1    3    3    0    0 -0.23756912219E+02 -0.60630339522E+02  0.11451868921E+03  0.13173822196E+03  0.00000000000E+00 0.  1.
         22    1    3    3    0    0 -0.71655706384E+01  0.55938089827E+02  0.38389478850E+02  0.68221458373E+02  0.00000000000E+00 0.  1.
</event>
<event>
 7    1  0.6089676E-006  0.6063372E+02  0.7818608E-02  0.1420447E+00
          2   -1    0    0  502    0  0.00000000000E+00  0.00000000000E+00  0.16783796774E+04  0.16783796774E+04  0.00000000000E+00 0. -1.
          1   -1    0    0  501    0 -0.00000000000E+00 -0.00000000000E+00 -0.46455793723E+03  0.46455793723E+03  0.00000000000E+00 0. -1.
         25    2    1    2    0    0 -0.57946107597E+01 -0.88232796640E+02  0.35434788771E+03  0.38601304857E+03  0.12500017691E+03 0.  0.
          2    1    1    2  501    0  0.36000608458E+02  0.48694162824E+02 -0.44620624163E+03  0.45029676367E+03  0.00000000000E+00 0. -1.
          1    1    1    2  502    0 -0.30205997699E+02  0.39538633816E+02  0.13056800941E+04  0.13066278024E+04  0.00000000000E+00 0. -1.
         22    1    3    3    0    0  0.14256277304E+02  0.23493422575E+02  0.23245155886E+02  0.35993327424E+02  0.00000000000E+00 0.  1.
         22    1    3    3    0    0 -0.20050888063E+02 -0.11172621922E+03  0.33110273182E+03  0.35001972115E+03  0.00000000000E+00 0.  1.
</event>
<event>
 7    1  0.6089676E-006  0.8635981E+02  0.7818608E-02  0.1363321E+00
          2   -1    0    0  502    0  0.00000000000E+00  0.00000000000E+00  0.11875571592E+04  0.11875571592E+04  0.00000000000E+00 0. -1.
          1   -1    0    0  501    0 -0.00000000000E+00 -0.00000000000E+00 -0.56013543906E+03  0.56013543906E+03  0.00000000000E+00 0. -1.
         25    2    1    2    0    0 -0.12392461126E+03 -0.13558958630E+01  0.67468139602E+02  0.18851046235E+03  0.12500038731E+03 0.  0.
          2    1    1    2  501    0  0.44393254705E+02  0.32848297367E+02 -0.49635400327E+03  0.49941672806E+03  0.00000000000E+00 0. -1.
          1    1    1    2  502    0  0.79531356552E+02 -0.31492401504E+02  0.10563075838E+04  0.10597654078E+04  0.00000000000E+00 0. -1.
         22    1    3    3    0    0 -0.63712283072E+02 -0.21456621344E+01 -0.32691852929E+02  0.71642278916E+02  0.00000000000E+00 0.  1.
         22    1    3    3    0    0 -0.60212328185E+02  0.78976627137E+00  0.10015999253E+03  0.11686818344E+03  0.00000000000E+00 0.  1.
</event>
<event>
 7    1  0.6089676E-006  0.7399192E+02  0.7818608E-02  0.1379836E+00
          2   -1    0    0  502    0  0.00000000000E+00  0.00000000000E+00  0.26977169180E+04  0.26977169180E+04  0.00000000000E+00 0. -1.
          1   -1    0    0  501    0 -0.00000000000E+00 -0.00000000000E+00 -0.40730314005E+03  0.40730314005E+03  0.00000000000E+00 0. -1.
         25    2    1    2    0    0 -0.21644704318E+02 -0.12241923103E+03  0.13588936570E+03  0.22258898960E+03  0.12499990892E+03 0.  0.
          2    1    1    2  501    0  0.27215909188E+02  0.49213558164E+02 -0.36124215912E+03  0.36559345938E+03  0.00000000000E+00 0. -1.
          1    1    1    2  502    0 -0.55712048700E+01  0.73205672864E+02  0.25157665714E+04  0.25168376091E+04  0.00000000000E+00 0. -1.
         22    1    3    3    0    0 -0.30595443862E+02 -0.14071776095E+03  0.14104959057E+03  0.20157518803E+03  0.00000000000E+00 0. -1.
         22    1    3    3    0    0  0.89507395438E+01  0.18298529920E+02 -0.51602248655E+01  0.21013801566E+02  0.00000000000E+00 0. -1.
</event>
<event>
 7    1  0.6089676E-006  0.3928482E+02  0.7818608E-02  0.1577688E+00
          2   -1    0    0  502    0  0.00000000000E+00  0.00000000000E+00  0.61102903919E+03  0.61102903919E+03  0.00000000000E+00 0. -1.
          1   -1    0    0  501    0 -0.00000000000E+00 -0.00000000000E+00 -0.35917217711E+02  0.35917217711E+02  0.00000000000E+00 0. -1.
         25    2    1    2    0    0  0.13739561866E+02 -0.52477606168E+01  0.17958788067E+03  0.21930304761E+03  0.12500282100E+03 0.  0.
          2    1    1    2  501    0  0.25332618351E+02 -0.56346751576E+01 -0.38318348084E+01  0.26233072154E+02  0.00000000000E+00 0. -1.
          1    1    1    2  502    0 -0.39072180216E+02  0.10882435774E+02  0.39935577562E+03  0.40141013713E+03  0.00000000000E+00 0. -1.
         22    1    3    3    0    0  0.19883677375E+01 -0.61057782653E+02  0.54667985246E+02  0.81979235417E+02  0.00000000000E+00 0.  1.
         22    1    3    3    0    0  0.11751194128E+02  0.55810022036E+02  0.12491989542E+03  0.13732381219E+03  0.00000000000E+00 0.  1.
</event>
<event>
 7    1  0.6089676E-006  0.4070907E+02  0.7818608E-02  0.1513221E+00
          2   -1    0    0  502    0  0.00000000000E+00  0.00000000000E+00  0.29842414847E+03  0.29842414847E+03  0.00000000000E+00 0. -1.
          1   -1    0    0  501    0 -0.00000000000E+00 -0.00000000000E+00 -0.24828766954E+03  0.24828766954E+03  0.00000000000E+00 0. -1.
         25    2    1    2    0    0 -0.34933086111E+02  0.14721812548E+02  0.16495711949E+03  0.21041165541E+03  0.12500064478E+03 0.  0.
          2    1    1    2  501    0  0.31187717758E+02  0.26163999297E+02 -0.21982072280E+03  0.22355844599E+03  0.00000000000E+00 0. -1.
          1    1    1    2  502    0  0.37453683527E+01 -0.40885811845E+02  0.10500008225E+03  0.11274171662E+03  0.00000000000E+00 0. -1.
         22    1    3    3    0    0 -0.82301532402E+02  0.12015968596E+02  0.10439069566E+03  0.13347412887E+03  0.00000000000E+00 0. -1.
         22    1    3    3    0    0  0.47368446291E+02  0.27058439523E+01  0.60566423824E+02  0.76937526542E+02  0.00000000000E+00 0. -1.
</event>
<event>
 7    1  0.6089676E-006  0.4970855E+02  0.7818608E-02  0.1461918E+00
          2   -1    0    0  502    0  0.00000000000E+00  0.00000000000E+00  0.12237575746E+03  0.12237575746E+03  0.00000000000E+00 0. -1.
          1   -1    0    0  501    0 -0.00000000000E+00 -0.00000000000E+00 -0.40139482747E+03  0.40139482747E+03  0.00000000000E+00 0. -1.
         25    2    1    2    0    0 -0.68121391889E+01 -0.96193622354E+01 -0.78432796554E+02  0.14804025109E+03  0.12500109998E+03 0.  0.
          2    1    1    2  501    0  0.12798685488E+02 -0.42660640230E+02 -0.27831952185E+03  0.28186076850E+03  0.00000000000E+00 0. -1.
          1    1    1    2  502    0 -0.59865462987E+01  0.52280002466E+02  0.77733248391E+02  0.93869565354E+02  0.00000000000E+00 0. -1.
         22    1    3    3    0    0  0.22307947105E+02  0.10857400274E+02 -0.10224469220E+03  0.10521171383E+03  0.00000000000E+00 0. -1.
         22    1    3    3    0    0 -0.29120086294E+02 -0.20476762510E+02  0.23811895648E+02  0.42828537250E+02  0.00000000000E+00 0. -1.
</event>
<event>
 7    1  0.6089676E-006  0.1723568E+03  0.7818608E-02  0.1245534E+00
          2   -1    0    0  502    0  0.00000000000E+00  0.00000000000E+00  0.96984690366E+03  0.96984690366E+03  0.00000000000E+00 0. -1.
          1   -1    0    0  501    0 -0.00000000000E+00 -0.00000000000E+00 -0.52243816761E+03  0.52243816761E+03  0.00000000000E+00 0. -1.
         25    2    1    2    0    0  0.10616421231E+03  0.17462066371E+03  0.35067109179E+03  0.42468748513E+03  0.12500411689E+03 0.  0.
          2    1    1    2  501    0 -0.13943936808E+03 -0.10020167659E+03 -0.46722277106E+03  0.49777588447E+03  0.00000000000E+00 0. -1.
          1    1    1    2  502    0  0.33275155771E+02 -0.74418987123E+02  0.56396041533E+03  0.56982170167E+03  0.00000000000E+00 0. -1.
         22    1    3    3    0    0  0.12770395441E+03  0.13646724057E+03  0.23033913326E+03  0.29662724762E+03  0.00000000000E+00 0.  1.
         22    1    3    3    0    0 -0.21539742102E+02  0.38153423140E+02  0.12033195852E+03  0.12806023750E+03  0.00000000000E+00 0.  1.
</event>
<event>
 7    1  0.6089676E-006  0.7781619E+02  0.7818608E-02  0.1458658E+00
          2   -1    0    0  502    0  0.00000000000E+00  0.00000000000E+00  0.72460746661E+03  0.72460746661E+03  0.00000000000E+00 0. -1.
          1   -1    0    0  501    0 -0.00000000000E+00 -0.00000000000E+00 -0.35354719535E+02  0.35354719535E+02  0.00000000000E+00 0. -1.
         25    2    1    2    0    0  0.55102079104E+02 -0.75759842714E+01  0.18847539954E+03  0.23289825950E+03  0.12499995355E+03 0.  0.
          2    1    1    2  501    0  0.26044990769E+02  0.13053201750E+02  0.11903650816E+02  0.31471010833E+02  0.00000000000E+00 0. -1.
          1    1    1    2  502    0 -0.81147069873E+02 -0.54772174786E+01  0.48887369672E+03  0.49559291582E+03  0.00000000000E+00 0. -1.
         22    1    3    3    0    0  0.43739469329E+02 -0.26116385108E+02  0.85404367791E+01  0.51654097695E+02  0.00000000000E+00 0.  1.
         22    1    3    3    0    0  0.11362609775E+02  0.18540400837E+02  0.17993496276E+03  0.18124416180E+03  0.00000000000E+00 0.  1.
</event>
<event>
 7    1  0.6089676E-006  0.5819525E+02  0.7818608E-02  0.1490702E+00
          2   -1    0    0  502    0  0.00000000000E+00  0.00000000000E+00  0.74683364975E+03  0.74683364975E+03  0.00000000000E+00 0. -1.
          1   -1    0    0  501    0 -0.00000000000E+00 -0.00000000000E+00 -0.37188123814E+03  0.37188123814E+03  0.00000000000E+00 0. -1.
         25    2    1    2    0    0 -0.72524932507E+02 -0.70732190940E+01  0.75201545977E+02  0.16305928569E+03  0.12499264727E+03 0.  0.
          2    1    1    2  501    0  0.50373189861E+02  0.28776040575E+02 -0.32499919948E+03  0.33013633310E+03  0.00000000000E+00 0. -1.
          1    1    1    2  502    0  0.22151742645E+02 -0.21702821481E+02  0.62475006511E+03  0.62551926911E+03  0.00000000000E+00 0. -1.
         22    1    3    3    0    0 -0.26674948642E+02 -0.53587810449E+02 -0.44835085889E+01  0.60027561694E+02  0.00000000000E+00 0.  1.
         22    1    3    3    0    0 -0.45849983865E+02  0.46514591355E+02  0.79685054566E+02  0.10303172400E+03  0.00000000000E+00 0.  1.
</event>
<event>
 7    1  0.6089676E-006  0.7054515E+02  0.7818608E-02  0.1435860E+00
          2   -1    0    0  502    0  0.00000000000E+00  0.00000000000E+00  0.90170465785E+02  0.90170465785E+02  0.00000000000E+00 0. -1.
          1   -1    0    0  501    0 -0.00000000000E+00 -0.00000000000E+00 -0.79035058015E+03  0.79035058015E+03  0.00000000000E+00 0. -1.
         25    2    1    2    0    0 -0.10813562570E+02  0.63709311314E+02 -0.11576110841E+03  0.18221258084E+03  0.12499992364E+03 0.  0.
          2    1    1    2  501    0  0.47442051719E+02 -0.53450475677E+02 -0.63276735004E+03  0.63679056282E+03  0.00000000000E+00 0. -1.
          1    1    1    2  502    0 -0.36628489149E+02 -0.10258835636E+02  0.48348344080E+02  0.61517902282E+02  0.00000000000E+00 0. -1.
         22    1    3    3    0    0  0.25594771828E+02  0.69726099310E+02 -0.12386815825E+03  0.14443040503E+03  0.00000000000E+00 0.  1.
         22    1    3    3    0    0 -0.36408334398E+02 -0.60167879961E+01  0.81070498386E+01  0.37782175804E+02  0.00000000000E+00 0.  1.
</event>
<event>
 7    1  0.6089676E-006  0.7234841E+02  0.7818608E-02  0.1416415E+00
          2   -1    0    0  502    0  0.00000000000E+00  0.00000000000E+00  0.72025313937E+03  0.72025313937E+03  0.00000000000E+00 0. -1.
          1   -1    0    0  501    0 -0.00000000000E+00 -0.00000000000E+00 -0.27419976204E+03  0.27419976204E+03  0.00000000000E+00 0. -1.
         25    2    1    2    0    0  0.41164868917E+02 -0.16999808679E+02  0.33769519260E+03  0.36283199712E+03  0.12500190039E+03 0.  0.
          2    1    1    2  501    0  0.22991222282E+02 -0.36356631753E+02 -0.25510286914E+03  0.25870422265E+03  0.00000000000E+00 0. -1.
          1    1    1    2  502    0 -0.64156091199E+02  0.53356440432E+02  0.36346105386E+03  0.37291668165E+03  0.00000000000E+00 0. -1.
         22    1    3    3    0    0 -0.31289493080E+02  0.32025579698E+02  0.12871415472E+03  0.13627913912E+03  0.00000000000E+00 0. -1.
         22    1    3    3    0    0  0.72454361997E+02 -0.49025388378E+02  0.20898103787E+03  0.22655285800E+03  0.00000000000E+00 0. -1.
</event>
<event>
 7    1  0.6944616E-006  0.4216727E+02  0.7818608E-02  0.1493166E+00
          2   -1    0    0  502    0  0.00000000000E+00  0.00000000000E+00  0.24431472951E+04  0.24431472951E+04  0.00000000000E+00 0. -1.
          1   -1    0    0  501    0 -0.00000000000E+00 -0.00000000000E+00 -0.34988977233E+03  0.34988977233E+03  0.00000000000E+00 0. -1.
         25    2    1    2    0    0  0.40572026461E+01  0.30023781862E+02 -0.16430053137E+03  0.20868075455E+03  0.12504041083E+03 0.  0.
          2    1    1    2  501    0 -0.43508999150E+02 -0.15136397685E+02 -0.15996474084E+03  0.16646579785E+03  0.00000000000E+00 0. -1.
          1    1    1    2  502    0  0.39451796504E+02 -0.14887384177E+02  0.24175227950E+04  0.24178905150E+04  0.00000000000E+00 0. -1.
         22    1    3    3    0    0 -0.42187367208E+02 -0.22700660483E+02 -0.11001716543E+03  0.11999529419E+03  0.00000000000E+00 0.  1.
         22    1    3    3    0    0  0.46244569854E+02  0.52724442345E+02 -0.54283365944E+02  0.88685460363E+02  0.00000000000E+00 0.  1.
</event>
<event>
 7    1  0.6089676E-006  0.6304116E+02  0.7818608E-02  0.1476025E+00
          2   -1    0    0  502    0  0.00000000000E+00  0.00000000000E+00  0.10200666735E+04  0.10200666735E+04  0.00000000000E+00 0. -1.
          1   -1    0    0  501    0 -0.00000000000E+00 -0.00000000000E+00 -0.16624158877E+03  0.16624158877E+03  0.00000000000E+00 0. -1.
         25    2    1    2    0    0  0.78408571804E+02  0.46502506074E+02  0.25251450938E+02  0.15675787115E+03  0.12500002875E+03 0.  0.
          2    1    1    2  501    0 -0.48557531699E+02 -0.35717017321E+02 -0.91150231280E+02  0.10927901845E+03  0.00000000000E+00 0. -1.
          1    1    1    2  502    0 -0.29851040105E+02 -0.10785488753E+02  0.91972386508E+03  0.92027137268E+03  0.00000000000E+00 0. -1.
         22    1    3    3    0    0  0.86436979470E+01  0.79207263394E+01 -0.47441844631E+02  0.48869009014E+02  0.00000000000E+00 0. -1.
         22    1    3    3    0    0  0.69764873856E+02  0.38581779735E+02  0.72693295569E+02  0.10788886213E+03  0.00000000000E+00 0. -1.
</event>
<event>
 7    1  0.6089676E-006  0.3384890E+03  0.7818608E-02  0.1242441E+00
          2   -1    0    0  502    0  0.00000000000E+00  0.00000000000E+00  0.43850450536E+03  0.43850450536E+03  0.00000000000E+00 0. -1.
          1   -1    0    0  501    0 -0.00000000000E+00 -0.00000000000E+00 -0.17519302887E+04  0.17519302887E+04  0.00000000000E+00 0. -1.
         25    2    1    2    0    0  0.27576813460E+03  0.11594268308E+03 -0.99174495587E+03  0.10433953798E+04  0.12500036517E+03 0.  0.
          2    1    1    2  501    0  0.35390246799E+02  0.24114720990E+02 -0.66301465182E+03  0.66439628074E+03  0.00000000000E+00 0. -1.
          1    1    1    2  502    0 -0.31115838140E+03 -0.14005740407E+03  0.34133382431E+03  0.48264313356E+03  0.00000000000E+00 0. -1.
         22    1    3    3    0    0  0.19273613817E+03  0.53640476941E+02 -0.46014412569E+03  0.50175405940E+03  0.00000000000E+00 0.  1.
         22    1    3    3    0    0  0.83031996434E+02  0.62302206134E+02 -0.53160083018E+03  0.54164132041E+03  0.00000000000E+00 0.  1.
</event>
<event>
 7    1  0.6089676E-006  0.8495746E+02  0.7818608E-02  0.1412456E+00
          2   -1    0    0  502    0  0.00000000000E+00  0.00000000000E+00  0.76923086266E+03  0.76923086266E+03  0.00000000000E+00 0. -1.
          1   -1    0    0  501    0 -0.00000000000E+00 -0.00000000000E+00 -0.48704506133E+02  0.48704506133E+02  0.00000000000E+00 0. -1.
         25    2    1    2    0    0  0.14266959504E+02 -0.81940337048E+02  0.15636409658E+03  0.21676759034E+03  0.12498276904E+03 0.  0.
          2    1    1    2  501    0  0.35800027475E+02  0.12050347190E+02  0.82722684629E+01  0.38668892667E+02  0.00000000000E+00 0. -1.
          1    1    1    2  502    0 -0.50066986978E+02  0.69889989858E+02  0.55588999149E+03  0.56249888578E+03  0.00000000000E+00 0. -1.
         22    1    3    3    0    0 -0.50516532677E+02 -0.10250488079E+02  0.71652428421E+02  0.88266998805E+02  0.00000000000E+00 0. -1.
         22    1    3    3    0    0  0.64783492180E+02 -0.71689848969E+02  0.84711668155E+02  0.12850059154E+03  0.00000000000E+00 0. -1.
</event>
<event>
 7    1  0.6089676E-006  0.8343938E+02  0.7818608E-02  0.1320683E+00
          2   -1    0    0  502    0  0.00000000000E+00  0.00000000000E+00  0.38102493905E+02  0.38102493905E+02  0.00000000000E+00 0. -1.
          1   -1    0    0  501    0 -0.00000000000E+00 -0.00000000000E+00 -0.24470889761E+04  0.24470889761E+04  0.00000000000E+00 0. -1.
         25    2    1    2    0    0 -0.12877616200E+02 -0.11063026451E+02 -0.99173596880E+03  0.99972333610E+03  0.12497317068E+03 0.  0.
          2    1    1    2  501    0  0.38533309058E+02 -0.73072726706E+02 -0.13913127823E+04  0.13937631426E+04  0.00000000000E+00 0. -1.
          1    1    1    2  502    0 -0.25655692858E+02  0.84135753157E+02 -0.25937731006E+02  0.91704991277E+02  0.00000000000E+00 0. -1.
         22    1    3    3    0    0 -0.15457614888E+02 -0.61428423936E+01 -0.13367844826E+02  0.21339438746E+02  0.00000000000E+00 0. -1.
         22    1    3    3    0    0  0.25799986875E+01 -0.49201840572E+01 -0.97836812397E+03  0.97838389736E+03  0.00000000000E+00 0. -1.
</event>
<event>
 7    1  0.6089676E-006  0.1076465E+03  0.7818608E-02  0.1274887E+00
          2   -1    0    0  502    0  0.00000000000E+00  0.00000000000E+00  0.12745500230E+04  0.12745500230E+04  0.00000000000E+00 0. -1.
          1   -1    0    0  501    0 -0.00000000000E+00 -0.00000000000E+00 -0.28010423486E+03  0.28010423486E+03  0.00000000000E+00 0. -1.
         25    2    1    2    0    0  0.42199689785E+02 -0.23564355954E+02  0.56449478770E+03  0.58018481562E+03  0.12499584893E+03 0.  0.
          2    1    1    2  501    0 -0.90292807563E+02 -0.61619169685E+02 -0.25768358293E+03  0.27991166835E+03  0.00000000000E+00 0. -1.
          1    1    1    2  502    0  0.48093117778E+02  0.85183525639E+02  0.68763458333E+03  0.69455777385E+03  0.00000000000E+00 0. -1.
         22    1    3    3    0    0  0.63553705211E+02 -0.83069816749E+01  0.54153433174E+03  0.54531414052E+03  0.00000000000E+00 0. -1.
         22    1    3    3    0    0 -0.21354015426E+02 -0.15257374280E+02  0.22960455958E+02  0.34870675109E+02  0.00000000000E+00 0. -1.
</event>
<event>
 7    1  0.6089676E-006  0.1268423E+03  0.7818608E-02  0.1315279E+00
          2   -1    0    0  502    0  0.00000000000E+00  0.00000000000E+00  0.39518308486E+04  0.39518308486E+04  0.00000000000E+00 0. -1.
          1   -1    0    0  501    0 -0.00000000000E+00 -0.00000000000E+00 -0.21962917526E+03  0.21962917526E+03  0.00000000000E+00 0. -1.
         25    2    1    2    0    0  0.65223421733E+02 -0.92563857954E+02  0.49390387081E+02  0.17574397289E+03  0.12499748449E+03 0.  0.
          2    1    1    2  501    0  0.46933442323E+02  0.32414659339E+02 -0.15016210973E+03  0.16063037492E+03  0.00000000000E+00 0. -1.
          1    1    1    2  502    0 -0.11215686406E+03  0.60149198615E+02  0.38329733960E+04  0.38350856761E+04  0.00000000000E+00 0. -1.
         22    1    3    3    0    0 -0.20317398047E+02 -0.55899625774E+02 -0.16487454224E+02  0.61720344878E+02  0.00000000000E+00 0.  1.
         22    1    3    3    0    0  0.85540819780E+02 -0.36664232181E+02  0.65877841306E+02  0.11402362801E+03  0.00000000000E+00 0.  1.
</event>
<event>
 7    1  0.6089676E-006  0.1148992E+03  0.7818608E-02  0.1278317E+00
          2   -1    0    0  502    0  0.00000000000E+00  0.00000000000E+00  0.95322718772E+02  0.95322718772E+02  0.00000000000E+00 0. -1.
          1   -1    0    0  501    0 -0.00000000000E+00 -0.00000000000E+00 -0.23889818954E+04  0.23889818954E+04  0.00000000000E+00 0. -1.
         25    2    1    2    0    0  0.99934730138E+02 -0.12736143342E+03 -0.13519381772E+04  0.13673235480E+04  0.12501585799E+03 0.  0.
          2    1    1    2  501    0 -0.96015678929E+02  0.38759327618E+02 -0.10035436647E+04  0.10088712421E+04  0.00000000000E+00 0. -1.
          1    1    1    2  502    0 -0.39190512097E+01  0.88602105807E+02  0.61822665357E+02  0.10810982410E+03  0.00000000000E+00 0. -1.
         22    1    3    3    0    0  0.89316282880E+02 -0.12426607317E+03 -0.13461864864E+04  0.13548570077E+04  0.00000000000E+00 0. -1.
         22    1    3    3    0    0  0.10618447258E+02 -0.30953602542E+01 -0.57516908475E+01  0.12466540213E+02  0.00000000000E+00 0. -1.
</event>
<event>
 7    1  0.6089676E-006  0.6378821E+02  0.7818608E-02  0.1420137E+00
          2   -1    0    0  502    0  0.00000000000E+00  0.00000000000E+00  0.19009881435E+03  0.19009881435E+03  0.00000000000E+00 0. -1.
          1   -1    0    0  501    0 -0.00000000000E+00 -0.00000000000E+00 -0.61912853049E+03  0.61912853049E+03  0.00000000000E+00 0. -1.
         25    2    1    2    0    0  0.62578731994E+02 -0.43364617240E+02 -0.40385271565E+02  0.15182875034E+03  0.12499764615E+03 0.  0.
          2    1    1    2  501    0 -0.63783715212E+02 -0.40288309508E+01 -0.51680948465E+03  0.52074623113E+03  0.00000000000E+00 0. -1.
          1    1    1    2  502    0  0.12049832183E+01  0.47393448191E+02  0.12816504008E+03  0.13665236337E+03  0.00000000000E+00 0. -1.
         22    1    3    3    0    0  0.48814972519E+02 -0.33780193009E+02 -0.85277907599E+02  0.10390536322E+03  0.00000000000E+00 0. -1.
         22    1    3    3    0    0  0.13763759475E+02 -0.95844242308E+01  0.44892636033E+02  0.47923387117E+02  0.00000000000E+00 0. -1.
</event>
<event>
 7    1  0.6089676E-006  0.3224334E+02  0.7818608E-02  0.1580171E+00
          2   -1    0    0  502    0  0.00000000000E+00  0.00000000000E+00  0.20793574551E+03  0.20793574551E+03  0.00000000000E+00 0. -1.
          1   -1    0    0  501    0 -0.00000000000E+00 -0.00000000000E+00 -0.20331619380E+04  0.20331619380E+04  0.00000000000E+00 0. -1.
         25    2    1    2    0    0  0.30626797112E+01 -0.42340428204E+02 -0.94180031404E+01  0.13232958192E+03  0.12498130900E+03 0.  0.
          2    1    1    2  501    0  0.22041737443E+02  0.21993100370E+02 -0.19603807739E+04  0.19606280405E+04  0.00000000000E+00 0. -1.
          1    1    1    2  502    0 -0.25104417155E+02  0.20347327834E+02  0.14457258451E+03  0.14814006110E+03  0.00000000000E+00 0. -1.
         22    1    3    3    0    0  0.62569731433E+02 -0.23448223668E+02 -0.18268438189E+02  0.69271396108E+02  0.00000000000E+00 0.  1.
         22    1    3    3    0    0 -0.59507051722E+02 -0.18892204535E+02  0.88504350484E+01  0.63058185808E+02  0.00000000000E+00 0.  1.
</event>
<event>
 7    1  0.6089676E-006  0.9993717E+02  0.7818608E-02  0.1397840E+00
          2   -1    0    0  502    0  0.00000000000E+00  0.00000000000E+00  0.13087118604E+04  0.13087118604E+04  0.00000000000E+00 0. -1.
          1   -1    0    0  501    0 -0.00000000000E+00 -0.00000000000E+00 -0.17018027773E+04  0.17018027773E+04  0.00000000000E+00 0. -1.
         25    2    1    2    0    0  0.23602450338E+02  0.75749928989E+02 -0.19081014579E+02  0.14928192017E+03  0.12500351662E+03 0.  0.
          2    1    1    2  501    0 -0.59200088103E+02 -0.81251431116E+02 -0.16157979749E+04  0.16189223394E+04  0.00000000000E+00 0. -1.
          1    1    1    2  502    0  0.35597637764E+02  0.55015021268E+01  0.12417880726E+04  0.12423103781E+04  0.00000000000E+00 0. -1.
         22    1    3    3    0    0  0.12946358635E+02 -0.34721287940E+02 -0.57596445727E+01  0.37501327226E+02  0.00000000000E+00 0. -1.
         22    1    3    3    0    0  0.10656091703E+02  0.11047121693E+03 -0.13321370006E+02  0.11178059294E+03  0.00000000000E+00 0. -1.
</event>
<event>
 7    1  0.6089676E-006  0.6981222E+02  0.7818608E-02  0.1459225E+00
          2   -1    0    0  502    0  0.00000000000E+00  0.00000000000E+00  0.18861555823E+04  0.18861555823E+04  0.00000000000E+00 0. -1.
          1   -1    0    0  501    0 -0.00000000000E+00 -0.00000000000E+00 -0.39765009733E+02  0.39765009733E+02  0.00000000000E+00 0. -1.
         25    2    1    2    0    0 -0.16083970830E+02  0.74783370444E+02  0.93452882164E+03  0.94594908322E+03  0.12499721175E+03 0.  0.
          2    1    1    2  501    0  0.42159386639E+02 -0.55654925793E+02  0.23240234064E+01  0.69859041874E+02  0.00000000000E+00 0. -1.
          1    1    1    2  502    0 -0.26075415809E+02 -0.19128444651E+02  0.90953772753E+03  0.91011246695E+03  0.00000000000E+00 0. -1.
         22    1    3    3    0    0 -0.53181705992E+01 -0.12217081550E+02  0.59928141839E+03  0.59942952751E+03  0.00000000000E+00 0.  1.
         22    1    3    3    0    0 -0.10765800231E+02  0.87000451994E+02  0.33524740325E+03  0.34651955570E+03  0.00000000000E+00 0.  1.
</event>
<event>
 7    1  0.6089676E-006  0.9439104E+02  0.7818608E-02  0.1345977E+00
          2   -1    0    0  502    0  0.00000000000E+00  0.00000000000E+00  0.47523585579E+03  0.47523585579E+03  0.00000000000E+00 0. -1.
          1   -1    0    0  501    0 -0.00000000000E+00 -0.00000000000E+00 -0.42487303747E+03  0.42487303747E+03  0.00000000000E+00 0. -1.
         25    2    1    2    0    0  0.22179484310E+02 -0.40540509241E+02 -0.28569573370E+03  0.31525104165E+03  0.12500281834E+03 0.  0.
          2    1    1    2  501    0 -0.20725404181E+02 -0.54730577292E+02 -0.11222082146E+03  0.12656417834E+03  0.00000000000E+00 0. -1.
          1    1    1    2  502    0 -0.14540801298E+01  0.95271086532E+02  0.44827937347E+03  0.45829367327E+03  0.00000000000E+00 0. -1.
         22    1    3    3    0    0  0.48667908979E+02 -0.24081885718E+01 -0.25494897170E+03  0.25956375500E+03  0.00000000000E+00 0.  1.
         22    1    3    3    0    0 -0.26488424668E+02 -0.38132320669E+02 -0.30746761992E+02  0.55687286646E+02  0.00000000000E+00 0.  1.
</event>
<event>
 7    1  0.6089676E-006  0.1658030E+03  0.7818608E-02  0.1261032E+00
          2   -1    0    0  502    0  0.00000000000E+00  0.00000000000E+00  0.29348980188E+03  0.29348980188E+03  0.00000000000E+00 0. -1.
          1   -1    0    0  501    0 -0.00000000000E+00 -0.00000000000E+00 -0.15695800263E+04  0.15695800263E+04  0.00000000000E+00 0. -1.
         25    2    1    2    0    0  0.18678805066E+03  0.21040123638E+02  0.20375309659E+03  0.30409641145E+03  0.12500736143E+03 0.  0.
          2    1    1    2  501    0 -0.63465324876E+02 -0.35353067871E+02 -0.14187437039E+04  0.14206024722E+04  0.00000000000E+00 0. -1.
          1    1    1    2  502    0 -0.12332272579E+03  0.14312944232E+02 -0.61099617180E+02  0.13837094452E+03  0.00000000000E+00 0. -1.
         22    1    3    3    0    0  0.11696947279E+03  0.65871772508E+02  0.16445259512E+03  0.21228660820E+03  0.00000000000E+00 0. -1.
         22    1    3    3    0    0  0.69818577880E+02 -0.44831648869E+02  0.39300501468E+02  0.91809803252E+02  0.00000000000E+00 0. -1.
</event>
<event>
 7    1  0.6089676E-006  0.5663061E+02  0.7818608E-02  0.1503644E+00
          2   -1    0    0  502    0  0.00000000000E+00  0.00000000000E+00  0.16372065871E+04  0.16372065871E+04  0.00000000000E+00 0. -1.
          1   -1    0    0  501    0 -0.00000000000E+00 -0.00000000000E+00 -0.12950523950E+04  0.12950523950E+04  0.00000000000E+00 0. -1.
         25    2    1    2    0    0 -0.44410032912E+02  0.41675802726E+02  0.46072953074E+02  0.14648182251E+03  0.12500033506E+03 0.  0.
          2    1    1    2  501    0  0.26521850719E+02  0.12088068602E+02 -0.12441563445E+04  0.12444977058E+04  0.00000000000E+00 0. -1.
          1    1    1    2  502    0  0.17888182194E+02 -0.53763871328E+02  0.15402375835E+04  0.15412794538E+04  0.00000000000E+00 0. -1.
         22    1    3    3    0    0 -0.62073064702E+02  0.59582724445E+02 -0.84314136596E+01  0.86453774644E+02  0.00000000000E+00 0.  1.
         22    1    3    3    0    0  0.17663031790E+02 -0.17906921719E+02  0.54504366734E+02  0.60028047865E+02  0.00000000000E+00 0.  1.
</event>
<event>
 7    1  0.6089676E-006  0.8156896E+02  0.7818608E-02  0.1355294E+00
          2   -1    0    0  502    0  0.00000000000E+00  0.00000000000E+00  0.66021147323E+03  0.66021147323E+03  0.00000000000E+00 0. -1.
          1   -1    0    0  501    0 -0.00000000000E+00 -0.00000000000E+00 -0.12968919903E+04  0.12968919903E+04  0.00000000000E+00 0. -1.
         25    2    1    2    0    0 -0.15828096733E+01  0.55179120599E+02 -0.72068394430E+03  0.73352539478E+03  0.12500766605E+03 0.  0.
          2    1    1    2  501    0  0.62548225536E+02 -0.74430044314E+00 -0.56550170982E+03  0.56895080482E+03  0.00000000000E+00 0. -1.
          1    1    1    2  502    0 -0.60965415863E+02 -0.54434820156E+02  0.64950513707E+03  0.65462726391E+03  0.00000000000E+00 0. -1.
         22    1    3    3    0    0 -0.27992321498E+02 -0.13407780656E+02 -0.49923500933E+03  0.50019889363E+03  0.00000000000E+00 0. -1.
         22    1    3    3    0    0  0.26409511824E+02  0.68586901255E+02 -0.22144893497E+03  0.23332650115E+03  0.00000000000E+00 0. -1.
</event>
<event>
 7    1  0.6089676E-006  0.7768399E+02  0.7818608E-02  0.1442941E+00
          2   -1    0    0  502    0  0.00000000000E+00  0.00000000000E+00  0.40428510258E+02  0.40428510258E+02  0.00000000000E+00 0. -1.
          1   -1    0    0  501    0 -0.00000000000E+00 -0.00000000000E+00 -0.10615441315E+04  0.10615441315E+04  0.00000000000E+00 0. -1.
         25    2    1    2    0    0 -0.44685586100E+00 -0.52638225858E+02 -0.44624032436E+03  0.46639736534E+03  0.12500037125E+03 0.  0.
          2    1    1    2  501    0 -0.27911196393E+01  0.85238595853E+02 -0.59234134202E+03  0.59844939137E+03  0.00000000000E+00 0. -1.
          1    1    1    2  502    0  0.32379755003E+01 -0.32600369995E+02  0.17466045120E+02  0.37125885058E+02  0.00000000000E+00 0. -1.
         22    1    3    3    0    0 -0.16135916980E+02 -0.56451566265E+02 -0.77129196557E+02  0.96933276598E+02  0.00000000000E+00 0.  1.
         22    1    3    3    0    0  0.15689061119E+02  0.38133404071E+01 -0.36911112780E+03  0.36946408875E+03  0.00000000000E+00 0.  1.
</event>
<event>
 7    1  0.6098646E-006  0.9244804E+02  0.7818608E-02  0.1450013E+00
          2   -1    0    0  502    0  0.00000000000E+00  0.00000000000E+00  0.20380823222E+04  0.20380823222E+04  0.00000000000E+00 0. -1.
          1   -1    0    0  501    0 -0.00000000000E+00 -0.00000000000E+00 -0.20128070393E+04  0.20128070393E+04  0.00000000000E+00 0. -1.
         25    2    1    2    0    0 -0.70530124217E+02  0.69696348221E+01 -0.28959512762E+03  0.32328559733E+03  0.12500066107E+03 0.  0.
          2    1    1    2  501    0 -0.21683724498E+02 -0.14570449119E+02 -0.17052076701E+04  0.17054077753E+04  0.00000000000E+00 0. -1.
          1    1    1    2  502    0  0.92213848715E+02  0.76008142974E+01  0.20200780805E+04  0.20221959889E+04  0.00000000000E+00 0. -1.
         22    1    3    3    0    0  0.85740183215E+01 -0.46223116747E+02 -0.11745227059E+03  0.12651136779E+03  0.00000000000E+00 0. -1.
         22    1    3    3    0    0 -0.79104142538E+02  0.53192751569E+02 -0.17214285702E+03  0.19677422954E+03  0.00000000000E+00 0. -1.
</event>
<event>
 7    1  0.1140950E-005  0.1365914E+03  0.7818608E-02  0.1301261E+00
          2   -1    0    0  502    0  0.00000000000E+00  0.00000000000E+00  0.12841503919E+04  0.12841503919E+04  0.00000000000E+00 0. -1.
          1   -1    0    0  501    0 -0.00000000000E+00 -0.00000000000E+00 -0.17540025702E+04  0.17540025702E+04  0.00000000000E+00 0. -1.
         25    2    1    2    0    0  0.81750984172E+01  0.77398516677E+02 -0.43090794282E+03  0.45537428471E+03  0.12500688530E+03 0.  0.
          2    1    1    2  501    0  0.19954859253E+02  0.56769061583E+02 -0.13064732477E+04  0.13078582758E+04  0.00000000000E+00 0. -1.
          1    1    1    2  502    0 -0.28129957670E+02 -0.13416757826E+03  0.12675290122E+04  0.12749204016E+04  0.00000000000E+00 0. -1.
         22    1    3    3    0    0 -0.21261194158E+02  0.10457553801E+03 -0.32898135760E+03  0.34585663963E+03  0.00000000000E+00 0.  1.
         22    1    3    3    0    0  0.29436292575E+02 -0.27177021336E+02 -0.10192658522E+03  0.10951764508E+03  0.00000000000E+00 0.  1.
</event>
<event>
 7    1  0.6089676E-006  0.1335307E+03  0.7818608E-02  0.1319302E+00
          2   -1    0    0  502    0  0.00000000000E+00  0.00000000000E+00  0.19699648123E+04  0.19699648123E+04  0.00000000000E+00 0. -1.
          1   -1    0    0  501    0 -0.00000000000E+00 -0.00000000000E+00 -0.29047833556E+02  0.29047833556E+02  0.00000000000E+00 0. -1.
         25    2    1    2    0    0 -0.43960105568E+02 -0.88433739933E+02  0.61363978006E+03  0.63398107599E+03  0.12500083120E+03 0.  0.
          2    1    1    2  501    0  0.64786985696E+02  0.13636596417E+03  0.29459270019E+03  0.33102551065E+03  0.00000000000E+00 0. -1.
          1    1    1    2  502    0 -0.20826880128E+02 -0.47932224232E+02  0.10326844985E+04  0.10340060592E+04  0.00000000000E+00 0. -1.
         22    1    3    3    0    0 -0.84336942476E+02 -0.83338575103E+02  0.45042145236E+03  0.46576552332E+03  0.00000000000E+00 0. -1.
         22    1    3    3    0    0  0.40376836908E+02 -0.50951648297E+01  0.16321832770E+03  0.16821555267E+03  0.00000000000E+00 0. -1.
</event>
<event>
 7    1  0.6089676E-006  0.1371305E+03  0.7818608E-02  0.1390129E+00
          2   -1    0    0  502    0  0.00000000000E+00  0.00000000000E+00  0.19128512141E+03  0.19128512141E+03  0.00000000000E+00 0. -1.
          1   -1    0    0  501    0 -0.00000000000E+00 -0.00000000000E+00 -0.32781566566E+03  0.32781566566E+03  0.00000000000E+00 0. -1.
         25    2    1    2    0    0  0.11929432348E+03  0.44254495199E+02  0.83695427354E+02  0.19703929709E+03  0.12501985474E+03 0.  0.
          2    1    1    2  501    0 -0.13683521374E+03 -0.22534535407E+02 -0.24707141980E+03  0.28333013868E+03  0.00000000000E+00 0. -1.
          1    1    1    2  502    0  0.17540890260E+02 -0.21719959792E+02  0.26845448190E+02  0.38731351293E+02  0.00000000000E+00 0. -1.
         22    1    3    3    0    0  0.33151393101E+02  0.58204960717E+02  0.86894466189E+02  0.10971545274E+03  0.00000000000E+00 0. -1.
         22    1    3    3    0    0  0.86142930376E+02 -0.13950465518E+02 -0.31990388351E+01  0.87323844346E+02  0.00000000000E+00 0. -1.
</event>
<event>
 7    1  0.6089676E-006  0.1765892E+03  0.7818608E-02  0.1203128E+00
          2   -1    0    0  502    0  0.00000000000E+00  0.00000000000E+00  0.20730626621E+04  0.20730626621E+04  0.00000000000E+00 0. -1.
          1   -1    0    0  501    0 -0.00000000000E+00 -0.00000000000E+00 -0.73367364637E+02  0.73367364637E+02  0.00000000000E+00 0. -1.
         25    2    1    2    0    0  0.70023079313E+00 -0.83880718504E+02  0.68443139794E+03  0.70079042333E+03  0.12499765471E+03 0.  0.
          2    1    1    2  501    0  0.67340318788E+02  0.18731098326E+03  0.97582995203E+02  0.22168122144E+03  0.00000000000E+00 0. -1.
          1    1    1    2  502    0 -0.68040549581E+02 -0.10343026476E+03  0.12176809043E+04  0.12239583819E+04  0.00000000000E+00 0. -1.
         22    1    3    3    0    0 -0.45143999245E+02 -0.57931092907E+02  0.19230177780E+03  0.20584937682E+03  0.00000000000E+00 0. -1.
         22    1    3    3    0    0  0.45844230039E+02 -0.25949625597E+02  0.49212962014E+03  0.49494104650E+03  0.00000000000E+00 0. -1.
</event>
<event>
 7    1  0.6089676E-006  0.1176044E+03  0.7818608E-02  0.1282084E+00
          2   -1    0    0  502    0  0.00000000000E+00  0.00000000000E+00  0.13334583124E+04  0.13334583124E+04  0.00000000000E+00 0. -1.
          1   -1    0    0  501    0 -0.00000000000E+00 -0.00000000000E+00 -0.23041762688E+03  0.23041762688E+03  0.00000000000E+00 0. -1.
         25    2    1    2    0    0 -0.41901484416E+02  0.12054989476E+03  0.11397783075E+03  0.21190380564E+03  0.12499706165E+03 0.  0.
          2    1    1    2  501    0 -0.41278648073E+02 -0.11218988651E+03 -0.16008125458E+03  0.19979115469E+03  0.00000000000E+00 0. -1.
          1    1    1    2  502    0  0.83180132489E+02 -0.83600082503E+01  0.11491441094E+04  0.11521809790E+04  0.00000000000E+00 0. -1.
         22    1    3    3    0    0 -0.62469483773E+02  0.14989048419E+02  0.71899415651E+02  0.96419053855E+02  0.00000000000E+00 0. -1.
         22    1    3    3    0    0  0.20567999357E+02  0.10556084634E+03  0.42078415097E+02  0.11548475179E+03  0.00000000000E+00 0. -1.
</event>
<event>
 7    1  0.6089676E-006  0.1194188E+03  0.7818608E-02  0.1275344E+00
          2   -1    0    0  502    0  0.00000000000E+00  0.00000000000E+00  0.19885578927E+03  0.19885578927E+03  0.00000000000E+00 0. -1.
          1   -1    0    0  501    0 -0.00000000000E+00 -0.00000000000E+00 -0.28963822770E+03  0.28963822770E+03  0.00000000000E+00 0. -1.
         25    2    1    2    0    0 -0.55241400145E+02  0.93878670061E+02 -0.34420826959E+02  0.16933571863E+03  0.12499990117E+03 0.  0.
          2    1    1    2  501    0 -0.25218588422E+02 -0.12900598644E+03 -0.14409401362E+03  0.19504257612E+03  0.00000000000E+00 0. -1.
          1    1    1    2  502    0  0.80459988567E+02  0.35127316380E+02  0.87732402150E+02  0.12411572222E+03  0.00000000000E+00 0. -1.
         22    1    3    3    0    0 -0.73525080220E+02  0.99210931212E+02 -0.60124361659E+02  0.13734513154E+03  0.00000000000E+00 0.  1.
         22    1    3    3    0    0  0.18283680075E+02 -0.53322611510E+01  0.25703534700E+02  0.31990587087E+02  0.00000000000E+00 0.  1.
</event>
<event>
 7    1  0.6089676E-006  0.6566979E+02  0.7818608E-02  0.1457215E+00
          2   -1    0    0  502    0  0.00000000000E+00  0.00000000000E+00  0.12227716218E+04  0.12227716218E+04  0.00000000000E+00 0. -1.
          1   -1    0    0  501    0 -0.00000000000E+00 -0.00000000000E+00 -0.78918420008E+03  0.78918420008E+03  0.00000000000E+00 0. -1.
         25    2    1    2    0    0  0.65568169350E+02 -0.53444980149E+02 -0.66218681284E+01  0.15107634754E+03  0.12499865165E+03 0.  0.
          2    1    1    2  501    0 -0.62683496607E+02  0.18678183294E+02 -0.70856407191E+03  0.71157651681E+03  0.00000000000E+00 0. -1.
          1    1    1    2  502    0 -0.28846727429E+01  0.34766796855E+02  0.11487733617E+04  0.11493029575E+04  0.00000000000E+00 0. -1.
         22    1    3    3    0    0  0.84164463010E+02 -0.73289268420E+02  0.19586260638E+02  0.11330752537E+03  0.00000000000E+00 0.  1.
         22    1    3    3    0    0 -0.18596293661E+02  0.19844288272E+02 -0.26208128766E+02  0.37768822173E+02  0.00000000000E+00 0.  1.
</event>
<event>
 7    1  0.6089676E-006  0.1049160E+03  0.7818608E-02  0.1390744E+00
          2   -1    0    0  502    0  0.00000000000E+00  0.00000000000E+00  0.36854896081E+03  0.36854896081E+03  0.00000000000E+00 0. -1.
          1   -1    0    0  501    0 -0.00000000000E+00 -0.00000000000E+00 -0.12170970666E+04  0.12170970666E+04  0.00000000000E+00 0. -1.
         25    2    1    2    0    0  0.48389751257E+02 -0.72552154466E+02  0.61850275491E+02  0.16449131798E+03  0.12500621572E+03 0.  0.
          2    1    1    2  501    0 -0.16411020404E+02 -0.32390826572E+02 -0.11536955114E+04  0.11542667890E+04  0.00000000000E+00 0. -1.
          1    1    1    2  502    0 -0.31978730853E+02  0.10494298104E+03  0.24329713015E+03  0.26688792036E+03  0.00000000000E+00 0. -1.
         22    1    3    3    0    0  0.11472025998E+01  0.34807686842E+02  0.18557523559E+02  0.39462296154E+02  0.00000000000E+00 0. -1.
         22    1    3    3    0    0  0.47242548657E+02 -0.10735984131E+03  0.43292751932E+02  0.12502902183E+03  0.00000000000E+00 0. -1.
</event>
<event>
 7    1  0.6089676E-006  0.3739823E+02  0.7818608E-02  0.1545851E+00
          2   -1    0    0  502    0  0.00000000000E+00  0.00000000000E+00  0.19734909297E+03  0.19734909297E+03  0.00000000000E+00 0. -1.
          1   -1    0    0  501    0 -0.00000000000E+00 -0.00000000000E+00 -0.24474562570E+03  0.24474562570E+03  0.00000000000E+00 0. -1.
         25    2    1    2    0    0  0.76089445096E+01  0.21089798820E+02  0.62487876558E+02  0.14155336802E+03  0.12501978096E+03 0.  0.
          2    1    1    2  501    0  0.24893534947E+02 -0.28521428992E+02 -0.20047079983E+03  0.20401397398E+03  0.00000000000E+00 0. -1.
          1    1    1    2  502    0 -0.32502479456E+02  0.74316301717E+01  0.90586390537E+02  0.96527376678E+02  0.00000000000E+00 0. -1.
         22    1    3    3    0    0  0.55126919020E+01 -0.51077120195E+02  0.10113994439E+02  0.52359859271E+02  0.00000000000E+00 0. -1.
         22    1    3    3    0    0  0.20962526076E+01  0.72166919015E+02  0.52373882119E+02  0.89193508752E+02  0.00000000000E+00 0. -1.
</event>
<event>
 7    1  0.6089676E-006  0.4234076E+02  0.7818608E-02  0.1513567E+00
          2   -1    0    0  502    0  0.00000000000E+00  0.00000000000E+00  0.25553639962E+04  0.25553639962E+04  0.00000000000E+00 0. -1.
          1   -1    0    0  501    0 -0.00000000000E+00 -0.00000000000E+00 -0.33901464448E+03  0.33901464448E+03  0.00000000000E+00 0. -1.
         25    2    1    2    0    0 -0.67185250694E+02  0.37326531543E+02  0.61187095000E+02  0.15898457715E+03  0.12500042923E+03 0.  0.
          2    1    1    2  501    0  0.32359149667E+02 -0.26591357172E+02 -0.28846767887E+03  0.29149239543E+03  0.00000000000E+00 0. -1.
          1    1    1    2  502    0  0.34826101027E+02 -0.10735174371E+02  0.24436299356E+04  0.24439016681E+04  0.00000000000E+00 0. -1.
         22    1    3    3    0    0 -0.29166677760E+02  0.18499896472E+02  0.97314248286E+02  0.10326182344E+03  0.00000000000E+00 0. -1.
         22    1    3    3    0    0 -0.38018572934E+02  0.18826635071E+02 -0.36127153286E+02  0.55722753706E+02  0.00000000000E+00 0. -1.
</event>
<event>
 7    1  0.6089676E-006  0.1441165E+03  0.7818608E-02  0.1356793E+00
          2   -1    0    0  502    0  0.00000000000E+00  0.00000000000E+00  0.27329152046E+03  0.27329152046E+03  0.00000000000E+00 0. -1.
          1   -1    0    0  501    0 -0.00000000000E+00 -0.00000000000E+00 -0.21816948584E+04  0.21816948584E+04  0.00000000000E+00 0. -1.
         25    2    1    2    0    0 -0.59964787325E+02 -0.16099761804E+03 -0.50770539733E+03  0.55036967541E+03  0.12500400152E+03 0.  0.
          2    1    1    2  501    0  0.61650332055E+02  0.12607976265E+03 -0.16484484162E+04  0.16544119955E+04  0.00000000000E+00 0. -1.
          1    1    1    2  502    0 -0.16855447301E+01  0.34917855387E+02  0.24775047563E+03  0.25020470791E+03  0.00000000000E+00 0. -1.
         22    1    3    3    0    0 -0.25974009387E+02  0.16494192300E+02 -0.94232203255E+02  0.99128278880E+02  0.00000000000E+00 0.  1.
         22    1    3    3    0    0 -0.33990777938E+02 -0.17749181034E+03 -0.41347319408E+03  0.45124139653E+03  0.00000000000E+00 0.  1.
</event>
<event>
 7    1  0.6089676E-006  0.5301125E+02  0.7818608E-02  0.1433175E+00
          2   -1    0    0  502    0  0.00000000000E+00  0.00000000000E+00  0.82106955814E+01  0.82106955814E+01  0.00000000000E+00 0. -1.
          1   -1    0    0  501    0 -0.00000000000E+00 -0.00000000000E+00 -0.23076886467E+04  0.23076886467E+04  0.00000000000E+00 0. -1.
         25    2    1    2    0    0 -0.24259842968E+02 -0.21738879181E+02 -0.76187341996E+03  0.77274679154E+03  0.12500150777E+03 0.  0.
          2    1    1    2  501    0 -0.32875678336E+01 -0.51548805188E+02 -0.69596637757E+03  0.69788056724E+03  0.00000000000E+00 0. -1.
          1    1    1    2  502    0  0.27547410802E+02  0.73287684370E+02 -0.84163815361E+03  0.84527198353E+03  0.00000000000E+00 0. -1.
         22    1    3    3    0    0 -0.43992643065E+02 -0.66798410665E+02 -0.47366360139E+03  0.48036922007E+03  0.00000000000E+00 0. -1.
         22    1    3    3    0    0  0.19732800096E+02  0.45059531484E+02 -0.28820981857E+03  0.29237757147E+03  0.00000000000E+00 0. -1.
</event>
<event>
 7    1  0.6089676E-006  0.7500599E+02  0.7818608E-02  0.1490784E+00
          2   -1    0    0  502    0  0.00000000000E+00  0.00000000000E+00  0.26553561367E+03  0.26553561367E+03  0.00000000000E+00 0. -1.
          1   -1    0    0  501    0 -0.00000000000E+00 -0.00000000000E+00 -0.14170642299E+04  0.14170642299E+04  0.00000000000E+00 0. -1.
         25    2    1    2    0    0 -0.72581262799E+02 -0.52100908546E+02 -0.89054674137E+02  0.17758650971E+03  0.12499475614E+03 0.  0.
          2    1    1    2  501    0  0.48931894596E+02  0.56458254861E+02 -0.12819994612E+04  0.12841746311E+04  0.00000000000E+00 0. -1.
          1    1    1    2  502    0  0.23649368203E+02 -0.43573463141E+01  0.21952551908E+03  0.22083870270E+03  0.00000000000E+00 0. -1.
         22    1    3    3    0    0  0.22273010210E+02 -0.50189892316E+02 -0.14139892552E+02  0.56701400652E+02  0.00000000000E+00 0.  1.
         22    1    3    3    0    0 -0.94854273009E+02 -0.19110162300E+01 -0.74914781585E+02  0.12088510905E+03  0.00000000000E+00 0.  1.
</event>
<event>
 7    1  0.6089676E-006  0.5917836E+02  0.7818608E-02  0.1435364E+00
          2   -1    0    0  502    0  0.00000000000E+00  0.00000000000E+00  0.13226915148E+02  0.13226915148E+02  0.00000000000E+00 0. -1.
          1   -1    0    0  501    0 -0.00000000000E+00 -0.00000000000E+00 -0.14598954799E+04  0.14598954799E+04  0.00000000000E+00 0. -1.
         25    2    1    2    0    0 -0.30873147720E+02 -0.49180647587E+02 -0.88064317422E+03  0.89136398113E+03  0.12500183677E+03 0.  0.
          2    1    1    2  501    0 -0.29189572886E+02  0.34920964348E+02 -0.42974227759E+03  0.43214572781E+03  0.00000000000E+00 0. -1.
          1    1    1    2  502    0  0.60062720606E+02  0.14259683239E+02 -0.13628311292E+03  0.14961268609E+03  0.00000000000E+00 0. -1.
         22    1    3    3    0    0 -0.71429227738E+02 -0.37302388993E+02 -0.74358390784E+03  0.74793758483E+03  0.00000000000E+00 0. -1.
         22    1    3    3    0    0  0.40556080018E+02 -0.11878258593E+02 -0.13705926638E+03  0.14342639630E+03  0.00000000000E+00 0. -1.
</event>
<event>
 7    1  0.6089676E-006  0.3233034E+03  0.7818608E-02  0.1189728E+00
          2   -1    0    0  502    0  0.00000000000E+00  0.00000000000E+00  0.12003427337E+04  0.12003427337E+04  0.00000000000E+00 0. -1.
          1   -1    0    0  501    0 -0.00000000000E+00 -0.00000000000E+00 -0.16351238984E+04  0.16351238984E+04  0.00000000000E+00 0. -1.
         25    2    1    2    0    0  0.16748882872E+03  0.32563843315E+03 -0.37478116782E+03  0.53868313515E+03  0.12500279775E+03 0.  0.
          2    1    1    2  501    0 -0.76326509123E+02 -0.17396905123E+02 -0.11539417177E+04  0.11565940844E+04  0.00000000000E+00 0. -1.
          1    1    1    2  502    0 -0.91162319595E+02 -0.30824152803E+03  0.10939417208E+04  0.11401894126E+04  0.00000000000E+00 0. -1.
         22    1    3    3    0    0  0.12291183903E+03  0.15448820158E+03 -0.12879298670E+03  0.23571499321E+03  0.00000000000E+00 0. -1.
         22    1    3    3    0    0  0.44576989690E+02  0.17115023157E+03 -0.24598818112E+03  0.30296814194E+03  0.00000000000E+00 0. -1.
</event>
<event>
 7    1  0.6089676E-006  0.8188635E+02  0.7818608E-02  0.1370821E+00
          2   -1    0    0  502    0  0.00000000000E+00  0.00000000000E+00  0.17024484101E+04  0.17024484101E+04  0.00000000000E+00 0. -1.
          1   -1    0    0  501    0 -0.00000000000E+00 -0.00000000000E+00 -0.31500165822E+02  0.31500165822E+02  0.00000000000E+00 0. -1.
         25    2    1    2    0    0 -0.67714081983E+02 -0.38268007441E+02  0.64757132085E+03  0.66409681075E+03  0.12500528460E+03 0.  0.
          2    1    1    2  501    0  0.30655232231E+02  0.78529993737E+02  0.56627284902E+02  0.10155467776E+03  0.00000000000E+00 0. -1.
          1    1    1    2  502    0  0.37058849752E+02 -0.40261986297E+02  0.96674963851E+03  0.96829708739E+03  0.00000000000E+00 0. -1.
         22    1    3    3    0    0 -0.50012773793E+02 -0.71266752983E+02  0.58290085066E+03  0.58936714306E+03  0.00000000000E+00 0.  1.
         22    1    3    3    0    0 -0.17701308190E+02  0.32998745543E+02  0.64670470189E+02  0.74729667693E+02  0.00000000000E+00 0.  1.
</event>
<event>
 7    1  0.6089676E-006  0.7217260E+02  0.7818608E-02  0.1372194E+00
          2   -1    0    0  502    0  0.00000000000E+00  0.00000000000E+00  0.35079550223E+04  0.35079550223E+04  0.00000000000E+00 0. -1.
          1   -1    0    0  501    0 -0.00000000000E+00 -0.00000000000E+00 -0.17540700743E+03  0.17540700743E+03  0.00000000000E+00 0. -1.
         25    2    1    2    0    0 -0.34561580112E+02 -0.74334973135E+02  0.64798323665E+03  0.66500149210E+03  0.12499807384E+03 0.  0.
          2    1    1    2  501    0 -0.26426119968E+02  0.67357438310E+02 -0.15870882917E+03  0.17442435831E+03  0.00000000000E+00 0. -1.
          1    1    1    2  502    0  0.60987700081E+02  0.69775348254E+01  0.28432736074E+04  0.28439361793E+04  0.00000000000E+00 0. -1.
         22    1    3    3    0    0 -0.76727286867E+02 -0.52623122714E+02  0.30859015642E+03  0.32231064865E+03  0.00000000000E+00 0. -1.
         22    1    3    3    0    0  0.42165706755E+02 -0.21711850421E+02  0.33939308023E+03  0.34269084345E+03  0.00000000000E+00 0. -1.
</event>
<event>
 7    1  0.6089676E-006  0.7579815E+02  0.7818608E-02  0.1396690E+00
          2   -1    0    0  502    0  0.00000000000E+00  0.00000000000E+00  0.69594771288E+03  0.69594771288E+03  0.00000000000E+00 0. -1.
          1   -1    0    0  501    0 -0.00000000000E+00 -0.00000000000E+00 -0.42111795159E+03  0.42111795159E+03  0.00000000000E+00 0. -1.
         25    2    1    2    0    0 -0.75017022896E+01 -0.35985814176E+02  0.35441293279E+03  0.37760367188E+03  0.12499900689E+03 0.  0.
          2    1    1    2  501    0 -0.23546487923E+02  0.72497108284E+02 -0.40420078302E+03  0.41132534665E+03  0.00000000000E+00 0. -1.
          1    1    1    2  502    0  0.31048190213E+02 -0.36511294108E+02  0.32461761151E+03  0.32813664595E+03  0.00000000000E+00 0. -1.
         22    1    3    3    0    0 -0.14211658623E+02 -0.82159260925E+02  0.23836238821E+03  0.25252473841E+03  0.00000000000E+00 0. -1.
         22    1    3    3    0    0  0.67099563336E+01  0.46173446749E+02  0.11605054458E+03  0.12507893346E+03  0.00000000000E+00 0. -1.
</event>
<event>
 7    1  0.6089676E-006  0.4548619E+02  0.7818608E-02  0.1510431E+00
          2   -1    0    0  502    0  0.00000000000E+00  0.00000000000E+00  0.43786439821E+03  0.43786439821E+03  0.00000000000E+00 0. -1.
          1   -1    0    0  501    0 -0.00000000000E+00 -0.00000000000E+00 -0.80423041766E+02  0.80423041766E+02  0.00000000000E+00 0. -1.
         25    2    1    2    0    0 -0.72316153546E+02 -0.27034489504E+02  0.11438449434E+03  0.18619586441E+03  0.12499839076E+03 0.  0.
          2    1    1    2  501    0  0.34309747884E+02  0.48420018659E+01 -0.35777059750E+02  0.49805640105E+02  0.00000000000E+00 0. -1.
          1    1    1    2  502    0  0.38006405663E+02  0.22192487638E+02  0.27883392186E+03  0.28228593546E+03  0.00000000000E+00 0. -1.
         22    1    3    3    0    0 -0.70899552605E+02  0.17684791236E+02  0.11457186968E+02  0.73964623529E+02  0.00000000000E+00 0. -1.
         22    1    3    3    0    0 -0.14166009416E+01 -0.44719280741E+02  0.10292730737E+03  0.11223124088E+03  0.00000000000E+00 0. -1.
</event>
<event>
 7    1  0.6089676E-006  0.1059647E+03  0.7818608E-02  0.1298669E+00
          2   -1    0    0  502    0  0.00000000000E+00  0.00000000000E+00  0.12581029242E+04  0.12581029242E+04  0.00000000000E+00 0. -1.
          1   -1    0    0  501    0 -0.00000000000E+00 -0.00000000000E+00 -0.54540155498E+03  0.54540155498E+03  0.00000000000E+00 0. -1.
         25    2    1    2    0    0  0.27128280989E+02 -0.12902330377E+03  0.36959622663E+02  0.18540254335E+03  0.12500053132E+03 0.  0.
          2    1    1    2  501    0 -0.79849375495E+02  0.69596973957E+02 -0.46382677632E+03  0.47576773744E+03  0.00000000000E+00 0. -1.
          1    1    1    2  502    0  0.52721094506E+02  0.59426329812E+02  0.11395685229E+04  0.11423341984E+04  0.00000000000E+00 0. -1.
         22    1    3    3    0    0 -0.67088320477E+01  0.13115429445E+02  0.36424444129E+02  0.39290750147E+02  0.00000000000E+00 0.  1.
         22    1    3    3    0    0  0.33837113036E+02 -0.14213873321E+03  0.53517853370E+00  0.14611179321E+03  0.00000000000E+00 0.  1.
</event>
<event>
 7    1  0.6089676E-006  0.4544960E+02  0.7818608E-02  0.1595144E+00
          2   -1    0    0  502    0  0.00000000000E+00  0.00000000000E+00  0.36840187937E+04  0.36840187937E+04  0.00000000000E+00 0. -1.
          1   -1    0    0  501    0 -0.00000000000E+00 -0.00000000000E+00 -0.92275915236E+01  0.92275915236E+01  0.00000000000E+00 0. -1.
         25    2    1    2    0    0 -0.28517694462E+01  0.54890341179E+02  0.74500042917E+03  0.75741120199E+03  0.12500002912E+03 0.  0.
          2    1    1    2  501    0  0.16416956371E+02 -0.11696821786E+02  0.32856321532E+02  0.38546983812E+02  0.00000000000E+00 0. -1.
          1    1    1    2  502    0 -0.13565186925E+02 -0.43193519393E+02  0.28969344514E+04  0.28972881994E+04  0.00000000000E+00 0. -1.
         22    1    3    3    0    0  0.29792343074E+02  0.39620583810E+02  0.10206456726E+03  0.11346607536E+03  0.00000000000E+00 0. -1.
         22    1    3    3    0    0 -0.32644112521E+02  0.15269757369E+02  0.64293586191E+03  0.64394512663E+03  0.00000000000E+00 0. -1.
</event>
<event>
 7    1  0.6089676E-006  0.8420921E+02  0.7818608E-02  0.1319275E+00
          2   -1    0    0  502    0  0.00000000000E+00  0.00000000000E+00  0.27757452523E+03  0.27757452523E+03  0.00000000000E+00 0. -1.
          1   -1    0    0  501    0 -0.00000000000E+00 -0.00000000000E+00 -0.10250682836E+04  0.10250682836E+04  0.00000000000E+00 0. -1.
         25    2    1    2    0    0 -0.30957686656E+02 -0.48358606128E+02 -0.36316135896E+03  0.38833957264E+03  0.12499807156E+03 0.  0.
          2    1    1    2  501    0 -0.40312696146E+02  0.90684219219E+02 -0.63890960768E+03  0.64657113133E+03  0.00000000000E+00 0. -1.
          1    1    1    2  502    0  0.71270382802E+02 -0.42325613092E+02  0.25457720828E+03  0.26773210484E+03  0.00000000000E+00 0. -1.
         22    1    3    3    0    0 -0.31479466708E+02 -0.46727874272E+02 -0.50464615393E+02  0.75638141601E+02  0.00000000000E+00 0. -1.
         22    1    3    3    0    0  0.52178005177E+00 -0.16307318558E+01 -0.31269674356E+03  0.31270143104E+03  0.00000000000E+00 0. -1.
</event>
<event>
 7    1  0.6089676E-006  0.5182977E+02  0.7818608E-02  0.1457904E+00
          2   -1    0    0  502    0  0.00000000000E+00  0.00000000000E+00  0.29792626761E+04  0.29792626761E+04  0.00000000000E+00 0. -1.
          1   -1    0    0  501    0 -0.00000000000E+00 -0.00000000000E+00 -0.49855338032E+02  0.49855338032E+02  0.00000000000E+00 0. -1.
         25    2    1    2    0    0  0.14654171429E+02 -0.14507643423E+02  0.34356101652E+03  0.36616877284E+03  0.12498072518E+03 0.  0.
          2    1    1    2  501    0  0.54579465530E+01  0.53619930573E+02 -0.19437016338E+02  0.57294709524E+02  0.00000000000E+00 0. -1.
          1    1    1    2  502    0 -0.20112117982E+02 -0.39112287150E+02  0.26052833379E+04  0.26056545318E+04  0.00000000000E+00 0. -1.
         22    1    3    3    0    0 -0.98543532754E+01 -0.60356778860E+02  0.26498775776E+03  0.27195323274E+03  0.00000000000E+00 0. -1.
         22    1    3    3    0    0  0.24508524704E+02  0.45849135437E+02  0.78573258763E+02  0.94215540099E+02  0.00000000000E+00 0. -1.
</event>
<event>
 7    1  0.6089676E-006  0.7951243E+02  0.7818608E-02  0.1385013E+00
          2   -1    0    0  502    0  0.00000000000E+00  0.00000000000E+00  0.14527836249E+04  0.14527836249E+04  0.00000000000E+00 0. -1.
          1   -1    0    0  501    0 -0.00000000000E+00 -0.00000000000E+00 -0.51487647511E+02  0.51487647511E+02  0.00000000000E+00 0. -1.
         25    2    1    2    0    0  0.58643348686E+02  0.37749405344E+02  0.26720065149E+03  0.30312523905E+03  0.12499864977E+03 0.  0.
          2    1    1    2  501    0 -0.31553269182E+02  0.39014745527E+02 -0.12462731124E+02  0.51701826193E+02  0.00000000000E+00 0. -1.
          1    1    1    2  502    0 -0.27090079504E+02 -0.76764150871E+02  0.11465580570E+04  0.11494442072E+04  0.00000000000E+00 0. -1.
         22    1    3    3    0    0  0.14610420346E+02  0.26534538125E+02 -0.17707621318E+01  0.30342737100E+02  0.00000000000E+00 0.  1.
         22    1    3    3    0    0  0.44032928340E+02  0.11214867219E+02  0.26897141362E+03  0.27278250195E+03  0.00000000000E+00 0.  1.
</event>
<event>
 7    1  0.6089676E-006  0.1511866E+03  0.7818608E-02  0.1222306E+00
          2   -1    0    0  502    0  0.00000000000E+00  0.00000000000E+00  0.13974609518E+03  0.13974609518E+03  0.00000000000E+00 0. -1.
          1   -1    0    0  501    0 -0.00000000000E+00 -0.00000000000E+00 -0.69073845612E+03  0.69073845612E+03  0.00000000000E+00 0. -1.
         25    2    1    2    0    0  0.21517033602E+03 -0.37875779062E+02 -0.22100846784E+03  0.33496685263E+03  0.12500080545E+03 0.  0.
          2    1    1    2  501    0 -0.10861881956E+03  0.88440631660E+02 -0.34899462726E+03  0.37605457469E+03  0.00000000000E+00 0. -1.
          1    1    1    2  502    0 -0.10655151646E+03 -0.50564852598E+02  0.19010734160E+02  0.11946312399E+03  0.00000000000E+00 0. -1.
         22    1    3    3    0    0  0.13028820831E+03 -0.79871698747E+02 -0.10600093751E+03  0.18598576353E+03  0.00000000000E+00 0. -1.
         22    1    3    3    0    0  0.84882127715E+02  0.41995919686E+02 -0.11500753034E+03  0.14898108910E+03  0.00000000000E+00 0. -1.
</event>
<event>
 7    1  0.6089676E-006  0.6696412E+02  0.7818608E-02  0.1385779E+00
          2   -1    0    0  502    0  0.00000000000E+00  0.00000000000E+00  0.78769245783E+03  0.78769245783E+03  0.00000000000E+00 0. -1.
          1   -1    0    0  501    0 -0.00000000000E+00 -0.00000000000E+00 -0.35920609052E+03  0.35920609052E+03  0.00000000000E+00 0. -1.
         25    2    1    2    0    0  0.10279600055E+03 -0.38430620177E+02  0.35916886183E+02  0.17017416947E+03  0.12500117978E+03 0.  0.
          2    1    1    2  501    0 -0.65400960748E+02 -0.74789108287E+01 -0.28706481225E+03  0.29451557889E+03  0.00000000000E+00 0. -1.
          1    1    1    2  502    0 -0.37395039805E+02  0.45909531005E+02  0.67963429338E+03  0.68220879999E+03  0.00000000000E+00 0. -1.
         22    1    3    3    0    0  0.12604098396E+03 -0.12246786741E+02  0.10821047459E+02  0.12709606009E+03  0.00000000000E+00 0.  1.
         22    1    3    3    0    0 -0.23244983403E+02 -0.26183833436E+02  0.25095838724E+02  0.43078109383E+02  0.00000000000E+00 0.  1.
</event>
<event>
 7    1  0.6089676E-006  0.1213149E+03  0.7818608E-02  0.1344203E+00
          2   -1    0    0  502    0  0.00000000000E+00  0.00000000000E+00  0.59133759144E+03  0.59133759144E+03  0.00000000000E+00 0. -1.
          1   -1    0    0  501    0 -0.00000000000E+00 -0.00000000000E+00 -0.58876291633E+03  0.58876291633E+03  0.00000000000E+00 0. -1.
         25    2    1    2    0    0  0.63780997828E+02 -0.90182672645E+02  0.73477594492E+02  0.18227766732E+03  0.12500104392E+03 0.  0.
          2    1    1    2  501    0 -0.34812420451E+02 -0.30425625533E+02 -0.52502947285E+03  0.52706125893E+03  0.00000000000E+00 0. -1.
          1    1    1    2  502    0 -0.28968577377E+02  0.12060829818E+03  0.45412655347E+03  0.47076158152E+03  0.00000000000E+00 0. -1.
         22    1    3    3    0    0 -0.75843645263E+01  0.82999220609E+01  0.58693536196E+02  0.59760710192E+02  0.00000000000E+00 0.  1.
         22    1    3    3    0    0  0.71365362354E+02 -0.98482594706E+02  0.14784058296E+02  0.12251695713E+03  0.00000000000E+00 0.  1.
</event>
<event>
 7    1  0.6089676E-006  0.4493624E+02  0.7818608E-02  0.1560717E+00
          2   -1    0    0  502    0  0.00000000000E+00  0.00000000000E+00  0.65701435620E+03  0.65701435620E+03  0.00000000000E+00 0. -1.
          1   -1    0    0  501    0 -0.00000000000E+00 -0.00000000000E+00 -0.10397291299E+03  0.10397291299E+03  0.00000000000E+00 0. -1.
         25    2    1    2    0    0  0.31870307480E+02 -0.89983717218E+01  0.95879511484E+02  0.16098289946E+03  0.12500370396E+03 0.  0.
          2    1    1    2  501    0  0.11548466284E+02  0.22433896246E+02 -0.68180489657E+02  0.72699559449E+02  0.00000000000E+00 0. -1.
          1    1    1    2  502    0 -0.43418773764E+02 -0.13435524524E+02  0.52534242139E+03  0.52730481028E+03  0.00000000000E+00 0. -1.
         22    1    3    3    0    0 -0.41587424476E+02 -0.35048338328E+01  0.72578887677E+02  0.83722712995E+02  0.00000000000E+00 0.  1.
         22    1    3    3    0    0  0.73457731956E+02 -0.54935378890E+01  0.23300623807E+02  0.77260186464E+02  0.00000000000E+00 0.  1.
</event>
<event>
 7    1  0.6089676E-006  0.8075008E+02  0.7818608E-02  0.1486489E+00
          2   -1    0    0  502    0  0.00000000000E+00  0.00000000000E+00  0.25578173167E+03  0.25578173167E+03  0.00000000000E+00 0. -1.
          1   -1    0    0  501    0 -0.00000000000E+00 -0.00000000000E+00 -0.32632948532E+03  0.32632948532E+03  0.00000000000E+00 0. -1.
         25    2    1    2    0    0  0.87626350743E+01  0.86270907489E+02 -0.11522492404E+02  0.15257846361E+03  0.12501186533E+03 0.  0.
          2    1    1    2  501    0 -0.28879309897E+02 -0.75087106238E+02 -0.23689367497E+03  0.25018133684E+03  0.00000000000E+00 0. -1.
          1    1    1    2  502    0  0.20116674823E+02 -0.11183801251E+02  0.17786841373E+03  0.17935141655E+03  0.00000000000E+00 0. -1.
         22    1    3    3    0    0  0.52058432887E+02  0.90554899165E+02  0.82733140190E+01  0.10477937737E+03  0.00000000000E+00 0. -1.
         22    1    3    3    0    0 -0.43295797813E+02 -0.42839916760E+01 -0.19795806423E+02  0.47799086234E+02  0.00000000000E+00 0. -1.
</event>
<event>
 7    1  0.6089676E-006  0.6115233E+02  0.7818608E-02  0.1471030E+00
          2   -1    0    0  502    0  0.00000000000E+00  0.00000000000E+00  0.16406411277E+04  0.16406411277E+04  0.00000000000E+00 0. -1.
          1   -1    0    0  501    0 -0.00000000000E+00 -0.00000000000E+00 -0.78052171594E+03  0.78052171594E+03  0.00000000000E+00 0. -1.
         25    2    1    2    0    0  0.18034721301E+02 -0.22312950662E+02 -0.89108031793E+02  0.15616487208E+03  0.12499642795E+03 0.  0.
          2    1    1    2  501    0 -0.39732094095E+02  0.48367418009E+02 -0.65621698207E+03  0.65919555064E+03  0.00000000000E+00 0. -1.
          1    1    1    2  502    0  0.21697372794E+02 -0.26054467347E+02  0.16054444257E+04  0.16058024210E+04  0.00000000000E+00 0. -1.
         22    1    3    3    0    0  0.20891327648E+02  0.16654863023E+02 -0.10906570241E+03  0.11229051374E+03  0.00000000000E+00 0. -1.
         22    1    3    3    0    0 -0.28566063472E+01 -0.38967813685E+02  0.19957670616E+02  0.43874358339E+02  0.00000000000E+00 0. -1.
</event>
<event>
 7    1  0.6089676E-006  0.1637644E+03  0.7818608E-02  0.1386143E+00
          2   -1    0    0  502    0  0.00000000000E+00  0.00000000000E+00  0.14951112208E+04  0.14951112208E+04  0.00000000000E+00 0. -1.
          1   -1    0    0  501    0 -0.00000000000E+00 -0.00000000000E+00 -0.31435833752E+03  0.31435833752E+03  0.00000000000E+00 0. -1.
         25    2    1    2    0    0  0.16684585523E+03  0.25853805658E+01  0.22419529797E+03  0.30615867917E+03  0.12500152639E+03 0.  0.
          2    1    1    2  501    0 -0.16152531456E+03 -0.26132721687E+02 -0.24876101451E+03  0.29775054782E+03  0.00000000000E+00 0. -1.
          1    1    1    2  502    0 -0.53205406709E+01  0.23547341121E+02  0.12053185999E+04  0.12055603314E+04  0.00000000000E+00 0. -1.
         22    1    3    3    0    0  0.65968054186E+02 -0.17573296641E+02  0.18304489502E+03  0.19536130252E+03  0.00000000000E+00 0.  1.
         22    1    3    3    0    0  0.10087780104E+03  0.20158677207E+02  0.41150402947E+02  0.11079737665E+03  0.00000000000E+00 0.  1.
</event>
<event>
 7    1  0.6089676E-006  0.5007052E+02  0.7818608E-02  0.1501153E+00
          2   -1    0    0  502    0  0.00000000000E+00  0.00000000000E+00  0.21682154650E+03  0.21682154650E+03  0.00000000000E+00 0. -1.
          1   -1    0    0  501    0 -0.00000000000E+00 -0.00000000000E+00 -0.24080724400E+03  0.24080724400E+03  0.00000000000E+00 0. -1.
         25    2    1    2    0    0  0.69258249865E+02  0.39708610551E+02  0.56852699127E+02  0.15884990674E+03  0.12501033776E+03 0.  0.
          2    1    1    2  501    0 -0.31467176060E+02 -0.11586812313E+02 -0.18312324113E+03  0.18616809294E+03  0.00000000000E+00 0. -1.
          1    1    1    2  502    0 -0.37791073804E+02 -0.28121798239E+02  0.10228484450E+03  0.11261079082E+03  0.00000000000E+00 0. -1.
         22    1    3    3    0    0 -0.36636715308E+02  0.96961950440E+01  0.97737735451E+01  0.39138111301E+02  0.00000000000E+00 0. -1.
         22    1    3    3    0    0  0.10589496517E+03  0.30012415507E+02  0.47078925582E+02  0.11971179544E+03  0.00000000000E+00 0. -1.
</event>
<event>
 7    1  0.6089676E-006  0.1770273E+03  0.7818608E-02  0.1382344E+00
          2   -1    0    0  502    0  0.00000000000E+00  0.00000000000E+00  0.18013653771E+03  0.18013653771E+03  0.00000000000E+00 0. -1.
          1   -1    0    0  501    0 -0.00000000000E+00 -0.00000000000E+00 -0.89017272431E+03  0.89017272431E+03  0.00000000000E+00 0. -1.
         25    2    1    2    0    0 -0.10450217421E+03  0.12548101829E+03 -0.19642697893E+03  0.28438706321E+03  0.12500501311E+03 0.  0.
          2    1    1    2  501    0 -0.22893792737E+02  0.25052827315E+01 -0.58956547524E+03  0.59001512843E+03  0.00000000000E+00 0. -1.
          1    1    1    2  502    0  0.12739596695E+03 -0.12798630102E+03  0.75956267565E+02  0.19590707038E+03  0.00000000000E+00 0. -1.
         22    1    3    3    0    0 -0.80739547016E+02  0.16894281571E+02 -0.37914127713E+02  0.90784207230E+02  0.00000000000E+00 0. -1.
         22    1    3    3    0    0 -0.23762627198E+02  0.10858673671E+03 -0.15851285122E+03  0.19360285598E+03  0.00000000000E+00 0. -1.
</event>
<event>
 7    1  0.6089676E-006  0.8694989E+02  0.7818608E-02  0.1340763E+00
          2   -1    0    0  502    0  0.00000000000E+00  0.00000000000E+00  0.51066355668E+03  0.51066355668E+03  0.00000000000E+00 0. -1.
          1   -1    0    0  501    0 -0.00000000000E+00 -0.00000000000E+00 -0.32031494930E+03  0.32031494930E+03  0.00000000000E+00 0. -1.
         25    2    1    2    0    0  0.15465279611E+02  0.34169032569E+02  0.22729985578E+03  0.26209894204E+03  0.12499573321E+03 0.  0.
          2    1    1    2  501    0 -0.81914370941E+02 -0.33626066009E+02 -0.29209644139E+03  0.30522288177E+03  0.00000000000E+00 0. -1.
          1    1    1    2  502    0  0.66449091331E+02 -0.54296656008E+00  0.25514519299E+03  0.26365668218E+03  0.00000000000E+00 0. -1.
         22    1    3    3    0    0 -0.35570794577E+02  0.12420446435E+02  0.11663916914E+02  0.39441043017E+02  0.00000000000E+00 0.  1.
         22    1    3    3    0    0  0.51036074188E+02  0.21748586134E+02  0.21563593887E+03  0.22265789902E+03  0.00000000000E+00 0.  1.
</event>
<event>
 7    1  0.7256984E-006  0.4957795E+02  0.7818608E-02  0.1471299E+00
          2   -1    0    0  502    0  0.00000000000E+00  0.00000000000E+00  0.18471777807E+04  0.18471777807E+04  0.00000000000E+00 0. -1.
          1   -1    0    0  501    0 -0.00000000000E+00 -0.00000000000E+00 -0.22035202231E+04  0.22035202231E+04  0.00000000000E+00 0. -1.
         25    2    1    2    0    0 -0.87439682934E+02  0.19022695543E+02 -0.45195042527E+03  0.47737919515E+03  0.12499659180E+03 0.  0.
          2    1    1    2  501    0  0.41740961036E+02  0.13082965945E+00 -0.17382702222E+04  0.17387713162E+04  0.00000000000E+00 0. -1.
          1    1    1    2  502    0  0.45698721898E+02 -0.19153525202E+02  0.18338782050E+04  0.18345474923E+04  0.00000000000E+00 0. -1.
         22    1    3    3    0    0 -0.63180625117E+02  0.21653791447E+02 -0.44764621864E+03  0.45260116563E+03  0.00000000000E+00 0. -1.
         22    1    3    3    0    0 -0.24259057817E+02 -0.26310959041E+01 -0.43042066317E+01  0.24778029513E+02  0.00000000000E+00 0. -1.
</event>
<event>
 7    1  0.6089676E-006  0.6200926E+02  0.7818608E-02  0.1441110E+00
          2   -1    0    0  502    0  0.00000000000E+00  0.00000000000E+00  0.31396267417E+03  0.31396267417E+03  0.00000000000E+00 0. -1.
          1   -1    0    0  501    0 -0.00000000000E+00 -0.00000000000E+00 -0.22517123660E+03  0.22517123660E+03  0.00000000000E+00 0. -1.
         25    2    1    2    0    0 -0.63816995336E+01  0.44930962083E+02  0.65459696120E+02  0.14822347640E+03  0.12500283876E+03 0.  0.
          2    1    1    2  501    0 -0.41600621467E+02 -0.64799458676E+00 -0.17615925008E+03  0.18100583690E+03  0.00000000000E+00 0. -1.
          1    1    1    2  502    0  0.47982321000E+02 -0.44282967496E+02  0.19949099153E+03  0.20990459747E+03  0.00000000000E+00 0. -1.
         22    1    3    3    0    0  0.23624056633E+02  0.70839644413E+02  0.76669102022E+02  0.10702570942E+03  0.00000000000E+00 0.  1.
         22    1    3    3    0    0 -0.30005756167E+02 -0.25908682330E+02 -0.11209405902E+02  0.41197766978E+02  0.00000000000E+00 0.  1.
</event>
<event>
 7    1  0.6089676E-006  0.6309728E+02  0.7818608E-02  0.1410689E+00
          2   -1    0    0  502    0  0.00000000000E+00  0.00000000000E+00  0.28286814383E+04  0.28286814383E+04  0.00000000000E+00 0. -1.
          1   -1    0    0  501    0 -0.00000000000E+00 -0.00000000000E+00 -0.19578304484E+03  0.19578304484E+03  0.00000000000E+00 0. -1.
         25    2    1    2    0    0 -0.63669498230E+02  0.28455273265E+00  0.73510035692E+02  0.15837063764E+03  0.12499459006E+03 0.  0.
          2    1    1    2  501    0  0.21485143408E+02  0.46875520900E+02 -0.14863806257E+03  0.15732831751E+03  0.00000000000E+00 0. -1.
          1    1    1    2  502    0  0.42184354821E+02 -0.47160073632E+02  0.27080264204E+04  0.27087655280E+04  0.00000000000E+00 0. -1.
         22    1    3    3    0    0  0.42736169393E+01  0.16143599030E+02  0.85901183285E+02  0.87509387389E+02  0.00000000000E+00 0. -1.
         22    1    3    3    0    0 -0.67943115169E+02 -0.15859046298E+02 -0.12391147593E+02  0.70861250250E+02  0.00000000000E+00 0. -1.
</event>
<event>
 7    1  0.6089676E-006  0.1082315E+03  0.7818608E-02  0.1407049E+00
          2   -1    0    0  502    0  0.00000000000E+00  0.00000000000E+00  0.24498264689E+04  0.24498264689E+04  0.00000000000E+00 0. -1.
          1   -1    0    0  501    0 -0.00000000000E+00 -0.00000000000E+00 -0.17332193172E+03  0.17332193172E+03  0.00000000000E+00 0. -1.
         25    2    1    2    0    0  0.13331023341E+03 -0.37716111754E+01  0.17410707221E+03  0.25244016315E+03  0.12500767973E+03 0.  0.
          2    1    1    2  501    0 -0.27403209578E+02 -0.14341351835E+02 -0.13106394492E+03  0.13466390728E+03  0.00000000000E+00 0. -1.
          1    1    1    2  502    0 -0.10590702383E+03  0.18112963011E+02  0.22334614098E+04  0.22360443301E+04  0.00000000000E+00 0. -1.
         22    1    3    3    0    0  0.17721230421E+02  0.97462743271E+01 -0.18496740847E+02  0.27407321884E+02  0.00000000000E+00 0. -1.
         22    1    3    3    0    0  0.11558900299E+03 -0.13517885503E+02  0.19260381306E+03  0.22503284126E+03  0.00000000000E+00 0. -1.
</event>
<event>
 7    1  0.6089676E-006  0.6379577E+02  0.7818608E-02  0.1434705E+00
          2   -1    0    0  502    0  0.00000000000E+00  0.00000000000E+00  0.36635833930E+03  0.36635833930E+03  0.00000000000E+00 0. -1.
          1   -1    0    0  501    0 -0.00000000000E+00 -0.00000000000E+00 -0.11184114769E+04  0.11184114769E+04  0.00000000000E+00 0. -1.
         25    2    1    2    0    0 -0.35029350742E+02  0.86693264389E+02  0.11713510302E+03  0.19516494481E+03  0.12500378322E+03 0.  0.
          2    1    1    2  501    0 -0.60151038200E+00 -0.63656666991E+02 -0.10763054265E+04  0.10781863958E+04  0.00000000000E+00 0. -1.
          1    1    1    2  502    0  0.35630861124E+02 -0.23036597399E+02  0.20711718592E+03  0.21141847551E+03  0.00000000000E+00 0. -1.
         22    1    3    3    0    0  0.84731909915E+00  0.11189471882E+03  0.78051436313E+02  0.13643010210E+03  0.00000000000E+00 0. -1.
         22    1    3    3    0    0 -0.35876669841E+02 -0.25201454430E+02  0.39083666712E+02  0.58734842708E+02  0.00000000000E+00 0. -1.
</event>
<event>
 7    1  0.6089676E-006  0.1282090E+03  0.7818608E-02  0.1270140E+00
          2   -1    0    0  502    0  0.00000000000E+00  0.00000000000E+00  0.21796965870E+03  0.21796965870E+03  0.00000000000E+00 0. -1.
          1   -1    0    0  501    0 -0.00000000000E+00 -0.00000000000E+00 -0.30132705129E+04  0.30132705129E+04  0.00000000000E+00 0. -1.
         25    2    1    2    0    0 -0.58650202197E+02  0.38732329390E+00 -0.58740061663E+03  0.60341109436E+03  0.12500187259E+03 0.  0.
          2    1    1    2  501    0 -0.54135942883E+02 -0.66790897618E+02 -0.23966222041E+04  0.23981638212E+04  0.00000000000E+00 0. -1.
          1    1    1    2  502    0  0.11278614508E+03  0.66403574325E+02  0.18872196647E+03  0.22966525605E+03  0.00000000000E+00 0. -1.
         22    1    3    3    0    0  0.15831638356E+02  0.44853299637E+02 -0.27975109265E+03  0.28376598299E+03  0.00000000000E+00 0. -1.
         22    1    3    3    0    0 -0.74481840553E+02 -0.44465976343E+02 -0.30764952397E+03  0.31964511138E+03  0.00000000000E+00 0. -1.
</event>
<event>
 7    1  0.6089676E-006  0.4933950E+02  0.7818608E-02  0.1462966E+00
          2   -1    0    0  502    0  0.00000000000E+00  0.00000000000E+00  0.22665322470E+04  0.22665322470E+04  0.00000000000E+00 0. -1.
          1   -1    0    0  501    0 -0.00000000000E+00 -0.00000000000E+00 -0.33568483942E+02  0.33568483942E+02  0.00000000000E+00 0. -1.
         25    2    1    2    0    0  0.18270172580E+02 -0.13289021044E+02  0.37301132392E+03  0.39404720660E+03  0.12500142385E+03 0.  0.
          2    1    1    2  501    0 -0.24991064881E+02 -0.36859830419E+02 -0.87165595340E+00  0.44541668205E+02  0.00000000000E+00 0. -1.
          1    1    1    2  502    0  0.67208923007E+01  0.50148851463E+02  0.18608240951E+04  0.18615118561E+04  0.00000000000E+00 0. -1.
         22    1    3    3    0    0 -0.33313016732E+02  0.31603712748E+02  0.72230189505E+02  0.85590607073E+02  0.00000000000E+00 0.  1.
         22    1    3    3    0    0  0.51583189312E+02 -0.44892733792E+02  0.30078113442E+03  0.30845659952E+03  0.00000000000E+00 0.  1.
</event>
<event>
 7    1  0.6089676E-006  0.7904830E+02  0.7818608E-02  0.1413496E+00
          2   -1    0    0  502    0  0.00000000000E+00  0.00000000000E+00  0.84091681873E+03  0.84091681873E+03  0.00000000000E+00 0. -1.
          1   -1    0    0  501    0 -0.00000000000E+00 -0.00000000000E+00 -0.15323285695E+04  0.15323285695E+04  0.00000000000E+00 0. -1.
         25    2    1    2    0    0 -0.57173616866E+02 -0.66526845344E+02 -0.10387544085E+03  0.18468932212E+03  0.12500157949E+03 0.  0.
          2    1    1    2  501    0 -0.16127091729E+02  0.36900417866E+02 -0.13858008699E+04  0.13863858680E+04  0.00000000000E+00 0. -1.
          1    1    1    2  502    0  0.73300708595E+02  0.29626427478E+02  0.79826455997E+03  0.80217019814E+03  0.00000000000E+00 0. -1.
         22    1    3    3    0    0  0.37306475882E+02 -0.10208826486E+02 -0.96684724785E+01  0.39868190842E+02  0.00000000000E+00 0.  1.
         22    1    3    3    0    0 -0.94480092748E+02 -0.56318018858E+02 -0.94206968373E+02  0.14482113128E+03  0.00000000000E+00 0.  1.
</event>
<event>
 7    1  0.6089676E-006  0.5957029E+02  0.7818608E-02  0.1494513E+00
          2   -1    0    0  502    0  0.00000000000E+00  0.00000000000E+00  0.13060723408E+04  0.13060723408E+04  0.00000000000E+00 0. -1.
          1   -1    0    0  501    0 -0.00000000000E+00 -0.00000000000E+00 -0.16928429081E+03  0.16928429081E+03  0.00000000000E+00 0. -1.
         25    2    1    2    0    0  0.37288687104E+02  0.12201323765E+02  0.12968690449E+03  0.18434579984E+03  0.12500144894E+03 0.  0.
          2    1    1    2  501    0  0.69992064282E+01  0.28662553174E+02 -0.13962202154E+03  0.14270542998E+03  0.00000000000E+00 0. -1.
          1    1    1    2  502    0 -0.44287893532E+02 -0.40863876939E+02  0.11467231671E+04  0.11483054018E+04  0.00000000000E+00 0. -1.
         22    1    3    3    0    0  0.64657841053E+02  0.19940910350E+02  0.19311764961E+02  0.70364910155E+02  0.00000000000E+00 0.  1.
         22    1    3    3    0    0 -0.27369153949E+02 -0.77395865847E+01  0.11037513953E+03  0.11398088969E+03  0.00000000000E+00 0.  1.
</event>
<event>
 7    1  0.6089676E-006  0.5580205E+02  0.7818608E-02  0.1550065E+00
          2   -1    0    0  502    0  0.00000000000E+00  0.00000000000E+00  0.32199428137E+03  0.32199428137E+03  0.00000000000E+00 0. -1.
          1   -1    0    0  501    0 -0.00000000000E+00 -0.00000000000E+00 -0.82981998928E+03  0.82981998928E+03  0.00000000000E+00 0. -1.
         25    2    1    2    0    0 -0.55040216474E+02  0.58456537264E+01  0.34179537345E+02  0.14091499479E+03  0.12500079154E+03 0.  0.
          2    1    1    2  501    0  0.57831283662E+01  0.20963822363E+02 -0.77294349344E+03  0.77324935853E+03  0.00000000000E+00 0. -1.
          1    1    1    2  502    0  0.49257088107E+02 -0.26809476089E+02  0.23093824818E+03  0.23764991734E+03  0.00000000000E+00 0. -1.
         22    1    3    3    0    0  0.14833945335E+01  0.56824185850E+01  0.72428351091E+02  0.72666060730E+02  0.00000000000E+00 0. -1.
         22    1    3    3    0    0 -0.56523611007E+02  0.16323514141E+00 -0.38248813746E+02  0.68248934057E+02  0.00000000000E+00 0. -1.
</event>
<event>
 7    1  0.6089676E-006  0.2634146E+02  0.7818608E-02  0.1656300E+00
          2   -1    0    0  502    0  0.00000000000E+00  0.00000000000E+00  0.57177175746E+03  0.57177175746E+03  0.00000000000E+00 0. -1.
          1   -1    0    0  501    0 -0.00000000000E+00 -0.00000000000E+00 -0.13275137967E+03  0.13275137967E+03  0.00000000000E+00 0. -1.
         25    2    1    2    0    0 -0.16246658049E+02 -0.42540831757E+02 -0.57877671534E+02  0.14508045338E+03  0.12499934730E+03 0.  0.
          2    1    1    2  501    0  0.16412125336E+02  0.18183084024E+02 -0.26148574643E+02  0.35829183057E+02  0.00000000000E+00 0. -1.
          1    1    1    2  502    0 -0.16546728702E+00  0.24357747733E+02  0.52304662397E+03  0.52361350068E+03  0.00000000000E+00 0. -1.
         22    1    3    3    0    0 -0.55887111399E+02 -0.20350172788E+02  0.13011866470E+02  0.60883556254E+02  0.00000000000E+00 0. -1.
         22    1    3    3    0    0  0.39640453350E+02 -0.22190658969E+02 -0.70889538005E+02  0.84196897127E+02  0.00000000000E+00 0. -1.
</event>
<event>
 7    1  0.6089676E-006  0.9156529E+02  0.7818608E-02  0.1430999E+00
          2   -1    0    0  502    0  0.00000000000E+00  0.00000000000E+00  0.16579497947E+04  0.16579497947E+04  0.00000000000E+00 0. -1.
          1   -1    0    0  501    0 -0.00000000000E+00 -0.00000000000E+00 -0.42427612842E+03  0.42427612842E+03  0.00000000000E+00 0. -1.
         25    2    1    2    0    0 -0.42231344643E+02 -0.58670805743E+02 -0.28375631425E+02  0.14715749682E+03  0.12499760996E+03 0.  0.
          2    1    1    2  501    0 -0.30316361507E+02  0.22589921803E+01 -0.33449889845E+03  0.33587750429E+03  0.00000000000E+00 0. -1.
          1    1    1    2  502    0  0.72547706150E+02  0.56411813563E+02  0.15965481961E+04  0.15991909220E+04  0.00000000000E+00 0. -1.
         22    1    3    3    0    0  0.37035162864E+02 -0.18422913188E+02  0.20003000756E+02  0.45947002709E+02  0.00000000000E+00 0.  1.
         22    1    3    3    0    0 -0.79266507507E+02 -0.40247892555E+02 -0.48378632180E+02  0.10121049412E+03  0.00000000000E+00 0.  1.
</event>
<event>
 7    1  0.6089676E-006  0.9365245E+02  0.7818608E-02  0.1387146E+00
          2   -1    0    0  502    0  0.00000000000E+00  0.00000000000E+00  0.16315996397E+03  0.16315996397E+03  0.00000000000E+00 0. -1.
          1   -1    0    0  501    0 -0.00000000000E+00 -0.00000000000E+00 -0.47417944637E+03  0.47417944637E+03  0.00000000000E+00 0. -1.
         25    2    1    2    0    0  0.10155914263E+03 -0.28315662102E+02 -0.11079397526E+03  0.19752585084E+03  0.12500048249E+03 0.  0.
          2    1    1    2  501    0 -0.72366770064E+02  0.58335064564E+02 -0.30930672374E+03  0.32297148251E+03  0.00000000000E+00 0. -1.
          1    1    1    2  502    0 -0.29192372569E+02 -0.30019402463E+02  0.10908121660E+03  0.11684207699E+03  0.00000000000E+00 0. -1.
         22    1    3    3    0    0  0.36526826783E+02 -0.33232516123E+02  0.18484486578E+02  0.52728412140E+02  0.00000000000E+00 0. -1.
         22    1    3    3    0    0  0.65032315850E+02  0.49168540213E+01 -0.12927846184E+03  0.14479743870E+03  0.00000000000E+00 0. -1.
</event>
<event>
 7    1  0.6089676E-006  0.9154064E+02  0.7818608E-02  0.1317937E+00
          2   -1    0    0  502    0  0.00000000000E+00  0.00000000000E+00  0.31181485305E+03  0.31181485305E+03  0.00000000000E+00 0. -1.
          1   -1    0    0  501    0 -0.00000000000E+00 -0.00000000000E+00 -0.20054032621E+03  0.20054032621E+03  0.00000000000E+00 0. -1.
         25    2    1    2    0    0  0.10555422632E+03 -0.50844933988E+02  0.15268306377E+03  0.22948637360E+03  0.12499990280E+03 0.  0.
          2    1    1    2  501    0 -0.88318027240E+02 -0.24376925451E+02 -0.13400402122E+03  0.16233110033E+03  0.00000000000E+00 0. -1.
          1    1    1    2  502    0 -0.17236199078E+02  0.75221859439E+02  0.92595484289E+02  0.12053770533E+03  0.00000000000E+00 0. -1.
         22    1    3    3    0    0  0.43458778480E+01  0.30128869288E+02  0.68429529007E+02  0.74894831991E+02  0.00000000000E+00 0.  1.
         22    1    3    3    0    0  0.10120834847E+03 -0.80973803275E+02  0.84253534766E+02  0.15459154161E+03  0.00000000000E+00 0.  1.
</event>
<event>
 7    1  0.6089676E-006  0.5379550E+02  0.7818608E-02  0.1487951E+00
          2   -1    0    0  502    0  0.00000000000E+00  0.00000000000E+00  0.75011178622E+03  0.75011178622E+03  0.00000000000E+00 0. -1.
          1   -1    0    0  501    0 -0.00000000000E+00 -0.00000000000E+00 -0.43331610511E+03  0.43331610511E+03  0.00000000000E+00 0. -1.
         25    2    1    2    0    0 -0.21261815541E+02  0.41850684890E+02  0.73047641831E+02  0.15220186582E+03  0.12500362137E+03 0.  0.
          2    1    1    2  501    0  0.32273100504E+02  0.11310554261E+02 -0.39183705042E+03  0.39332652559E+03  0.00000000000E+00 0. -1.
          1    1    1    2  502    0 -0.11011284963E+02 -0.53161239151E+02  0.63558508970E+03  0.63789949991E+03  0.00000000000E+00 0. -1.
         22    1    3    3    0    0 -0.60088869225E+01 -0.14323750299E+02 -0.30038523853E+02  0.33816999571E+02  0.00000000000E+00 0. -1.
         22    1    3    3    0    0 -0.15252928619E+02  0.56174435189E+02  0.10308616568E+03  0.11838486624E+03  0.00000000000E+00 0. -1.
</event>
<event>
 7    1  0.6089676E-006  0.1199676E+03  0.7818608E-02  0.1342987E+00
          2   -1    0    0  502    0  0.00000000000E+00  0.00000000000E+00  0.14573012799E+03  0.14573012799E+03  0.00000000000E+00 0. -1.
          1   -1    0    0  501    0 -0.00000000000E+00 -0.00000000000E+00 -0.59659406479E+03  0.59659406479E+03  0.00000000000E+00 0. -1.
         25    2    1    2    0    0  0.12593127966E+03  0.87537847426E+02 -0.11590400513E+03  0.22930162692E+03  0.12499574303E+03 0.  0.
          2    1    1    2  501    0 -0.22304164952E+02 -0.41650161268E+02 -0.38589054229E+03  0.38877206991E+03  0.00000000000E+00 0. -1.
          1    1    1    2  502    0 -0.10362711471E+03 -0.45887686158E+02  0.50930610625E+02  0.12425049594E+03  0.00000000000E+00 0. -1.
         22    1    3    3    0    0  0.12815075285E+03  0.38733057848E+02 -0.12064517819E+03  0.18021688114E+03  0.00000000000E+00 0. -1.
         22    1    3    3    0    0 -0.22194731889E+01  0.48804789578E+02  0.47411730613E+01  0.49084745787E+02  0.00000000000E+00 0. -1.
</event>
<event>
 7    1  0.6089676E-006  0.8110710E+02  0.7818608E-02  0.1327343E+00
          2   -1    0    0  502    0  0.00000000000E+00  0.00000000000E+00  0.36057204452E+04  0.36057204452E+04  0.00000000000E+00 0. -1.
          1   -1    0    0  501    0 -0.00000000000E+00 -0.00000000000E+00 -0.13795236442E+03  0.13795236442E+03  0.00000000000E+00 0. -1.
         25    2    1    2    0    0  0.96307321254E+02 -0.11122769475E+03  0.22528060958E+03  0.29668448916E+03  0.12499453129E+03 0.  0.
          2    1    1    2  501    0 -0.23836120689E+02  0.76477647028E+02 -0.86001127187E+02  0.11752950703E+03  0.00000000000E+00 0. -1.
          1    1    1    2  502    0 -0.72471200565E+02  0.34750047719E+02  0.33284885984E+04  0.33294588134E+04  0.00000000000E+00 0. -1.
         22    1    3    3    0    0  0.31326569059E+02 -0.11763178059E+03  0.17971370232E+03  0.21706129211E+03  0.00000000000E+00 0. -1.
         22    1    3    3    0    0  0.64980752196E+02  0.64040858407E+01  0.45566907257E+02  0.79623197050E+02  0.00000000000E+00 0. -1.
</event>
<event>
 7    1  0.6089676E-006  0.5717789E+02  0.7818608E-02  0.1476080E+00
          2   -1    0    0  502    0  0.00000000000E+00  0.00000000000E+00  0.81553070517E+03  0.81553070517E+03  0.00000000000E+00 0. -1.
          1   -1    0    0  501    0 -0.00000000000E+00 -0.00000000000E+00 -0.11169046152E+03  0.11169046152E+03  0.00000000000E+00 0. -1.
         25    2    1    2    0    0  0.15479364655E+02  0.87377600704E+02  0.14414516707E+03  0.21042317691E+03  0.12500251341E+03 0.  0.
          2    1    1    2  501    0 -0.17971171647E+02 -0.52485862653E+02 -0.68208293051E+02  0.87920987425E+02  0.00000000000E+00 0. -1.
          1    1    1    2  502    0  0.24918069922E+01 -0.34891738051E+02  0.62790336963E+03  0.62887700235E+03  0.00000000000E+00 0. -1.
         22    1    3    3    0    0 -0.13541036416E+02  0.94868655497E+02  0.43190579649E+02  0.10511349882E+03  0.00000000000E+00 0.  1.
         22    1    3    3    0    0  0.29020401071E+02 -0.74910547935E+01  0.10095458742E+03  0.10530967810E+03  0.00000000000E+00 0.  1.
</event>
<event>
 7    1  0.6089676E-006  0.2400663E+03  0.7818608E-02  0.1287234E+00
          2   -1    0    0  502    0  0.00000000000E+00  0.00000000000E+00  0.25621356847E+03  0.25621356847E+03  0.00000000000E+00 0. -1.
          1   -1    0    0  501    0 -0.00000000000E+00 -0.00000000000E+00 -0.10287198565E+04  0.10287198565E+04  0.00000000000E+00 0. -1.
         25    2    1    2    0    0 -0.12842042173E+02 -0.21671504941E+03 -0.17240016034E+03  0.30410023152E+03  0.12499921934E+03 0.  0.
          2    1    1    2  501    0 -0.11957759083E+02  0.24682667467E+03 -0.76887699968E+03  0.80761267695E+03  0.00000000000E+00 0. -1.
          1    1    1    2  502    0  0.24799801256E+02 -0.30111625266E+02  0.16877087197E+03  0.17322051652E+03  0.00000000000E+00 0. -1.
         22    1    3    3    0    0  0.86210422986E+01 -0.13726689296E+03 -0.17399322595E+03  0.22178855910E+03  0.00000000000E+00 0.  1.
         22    1    3    3    0    0 -0.21463084472E+02 -0.79448156448E+02  0.15930656047E+01  0.82311672417E+02  0.00000000000E+00 0.  1.
</event>
<event>
 7    1  0.6089676E-006  0.9049609E+02  0.7818608E-02  0.1326441E+00
          2   -1    0    0  502    0  0.00000000000E+00  0.00000000000E+00  0.25915639264E+04  0.25915639264E+04  0.00000000000E+00 0. -1.
          1   -1    0    0  501    0 -0.00000000000E+00 -0.00000000000E+00 -0.33915733893E+03  0.33915733893E+03  0.00000000000E+00 0. -1.
         25    2    1    2    0    0  0.16040291532E+03  0.98294927424E+01 -0.57553626456E+01  0.20367436076E+03  0.12499762742E+03 0.  0.
          2    1    1    2  501    0 -0.72030380666E+02  0.69989942188E+01 -0.22802459822E+03  0.23923331509E+03  0.00000000000E+00 0. -1.
          1    1    1    2  502    0 -0.88372534651E+02 -0.16828486961E+02  0.24861865483E+04  0.24878135894E+04  0.00000000000E+00 0. -1.
         22    1    3    3    0    0  0.14380509071E+03  0.49693357403E+02 -0.28613604006E+02  0.15481625308E+03  0.00000000000E+00 0. -1.
         22    1    3    3    0    0  0.16597824605E+02 -0.39863864661E+02  0.22858241360E+02  0.48858107673E+02  0.00000000000E+00 0. -1.
</event>
<event>
 7    1  0.6089676E-006  0.1644940E+03  0.7818608E-02  0.1235228E+00
          2   -1    0    0  502    0  0.00000000000E+00  0.00000000000E+00  0.45356339965E+03  0.45356339965E+03  0.00000000000E+00 0. -1.
          1   -1    0    0  501    0 -0.00000000000E+00 -0.00000000000E+00 -0.25526386070E+03  0.25526386070E+03  0.00000000000E+00 0. -1.
         25    2    1    2    0    0 -0.50289874780E+02 -0.19724010480E+03 -0.84970968994E+01  0.23902254759E+03  0.12500738841E+03 0.  0.
          2    1    1    2  501    0 -0.56240214342E+02  0.76357889841E+02 -0.90860682994E+02  0.13133602996E+03  0.00000000000E+00 0. -1.
          1    1    1    2  502    0  0.10653008912E+03  0.12088221496E+03  0.29765731884E+03  0.33846868281E+03  0.00000000000E+00 0. -1.
         22    1    3    3    0    0 -0.24381018094E+02 -0.11514892270E+02 -0.40632816121E+02  0.48765279997E+02  0.00000000000E+00 0.  1.
         22    1    3    3    0    0 -0.25908856686E+02 -0.18572521253E+03  0.32135719222E+02  0.19025726760E+03  0.00000000000E+00 0.  1.
</event>
<event>
 7    1  0.6089676E-006  0.9091413E+02  0.7818608E-02  0.1467937E+00
          2   -1    0    0  502    0  0.00000000000E+00  0.00000000000E+00  0.93076549180E+03  0.93076549180E+03  0.00000000000E+00 0. -1.
          1   -1    0    0  501    0 -0.00000000000E+00 -0.00000000000E+00 -0.29621039440E+03  0.29621039440E+03  0.00000000000E+00 0. -1.
         25    2    1    2    0    0  0.68148264260E+02  0.12962067091E+02 -0.12206434012E+02  0.14347780235E+03  0.12499872652E+03 0.  0.
          2    1    1    2  501    0  0.19965791211E+02  0.12044955177E+02 -0.21531271493E+03  0.21657164859E+03  0.00000000000E+00 0. -1.
          1    1    1    2  502    0 -0.88114055471E+02 -0.25007022267E+02  0.86207424634E+03  0.86692643525E+03  0.00000000000E+00 0. -1.
         22    1    3    3    0    0  0.97788675563E+02 -0.81970912131E+00  0.17455784186E+02  0.99337814516E+02  0.00000000000E+00 0. -1.
         22    1    3    3    0    0 -0.29640411303E+02  0.13781776212E+02 -0.29662218198E+02  0.44139987836E+02  0.00000000000E+00 0. -1.
</event>
<event>
 7    1  0.6089676E-006  0.1006999E+03  0.7818608E-02  0.1306844E+00
          2   -1    0    0  502    0  0.00000000000E+00  0.00000000000E+00  0.73645594562E+03  0.73645594562E+03  0.00000000000E+00 0. -1.
          1   -1    0    0  501    0 -0.00000000000E+00 -0.00000000000E+00 -0.67518268519E+02  0.67518268519E+02  0.00000000000E+00 0. -1.
         25    2    1    2    0    0  0.16136702811E+03 -0.33975545336E+02  0.28109652085E+03  0.34902836249E+03  0.12494754237E+03 0.  0.
          2    1    1    2  501    0 -0.84990407961E+02  0.20520884710E+02  0.35824164011E+02  0.94487284233E+02  0.00000000000E+00 0. -1.
          1    1    1    2  502    0 -0.76376620151E+02  0.13454660626E+02  0.35201699224E+03  0.36045856741E+03  0.00000000000E+00 0. -1.
         22    1    3    3    0    0  0.51967305102E+02  0.79403725402E+01  0.19936912978E+03  0.20618365654E+03  0.00000000000E+00 0.  1.
         22    1    3    3    0    0  0.10939972301E+03 -0.41915917877E+02  0.81727391074E+02  0.14284470595E+03  0.00000000000E+00 0.  1.
</event>
<event>
 7    1  0.6089676E-006  0.1043242E+03  0.7818608E-02  0.1400967E+00
          2   -1    0    0  502    0  0.00000000000E+00  0.00000000000E+00  0.15355087593E+03  0.15355087593E+03  0.00000000000E+00 0. -1.
          1   -1    0    0  501    0 -0.00000000000E+00 -0.00000000000E+00 -0.29796808325E+03  0.29796808325E+03  0.00000000000E+00 0. -1.
         25    2    1    2    0    0 -0.18058214589E+02  0.85847522666E+02 -0.80835404957E+00  0.15271325920E+03  0.12499915934E+03 0.  0.
          2    1    1    2  501    0  0.50370586730E+02 -0.95280434808E+02 -0.20340065965E+03  0.23018989033E+03  0.00000000000E+00 0. -1.
          1    1    1    2  502    0 -0.32312372141E+02  0.94329121423E+01  0.59791806381E+02  0.68615809659E+02  0.00000000000E+00 0. -1.
         22    1    3    3    0    0  0.47820824419E+02  0.20329432299E+02  0.22959976084E+02  0.56809132783E+02  0.00000000000E+00 0.  1.
         22    1    3    3    0    0 -0.65879039008E+02  0.65518090367E+02 -0.23768330134E+02  0.95904126415E+02  0.00000000000E+00 0.  1.
</event>
<event>
 7    1  0.6089676E-006  0.1153355E+03  0.7818608E-02  0.1363766E+00
          2   -1    0    0  502    0  0.00000000000E+00  0.00000000000E+00  0.10519214532E+04  0.10519214532E+04  0.00000000000E+00 0. -1.
          1   -1    0    0  501    0 -0.00000000000E+00 -0.00000000000E+00 -0.51980320406E+03  0.51980320406E+03  0.00000000000E+00 0. -1.
         25    2    1    2    0    0 -0.13527418829E+03 -0.91659934980E+01  0.53347924442E+02  0.19198153482E+03  0.12501114837E+03 0.  0.
          2    1    1    2  501    0  0.11175020310E+03 -0.24654476940E+02 -0.44275108897E+03  0.45730129883E+03  0.00000000000E+00 0. -1.
          1    1    1    2  502    0  0.23523985181E+02  0.33820470438E+02  0.92152141372E+03  0.92244182366E+03  0.00000000000E+00 0. -1.
         22    1    3    3    0    0  0.20276407218E+02  0.98360527914E+01 -0.76824588188E+01  0.23809678656E+02  0.00000000000E+00 0.  1.
         22    1    3    3    0    0 -0.15555059550E+03 -0.19002046289E+02  0.61030383260E+02  0.16817185616E+03  0.00000000000E+00 0.  1.
</event>
<event>
 7    1  0.6089676E-006  0.8713749E+02  0.7818608E-02  0.1389086E+00
          2   -1    0    0  502    0  0.00000000000E+00  0.00000000000E+00  0.29130211450E+03  0.29130211450E+03  0.00000000000E+00 0. -1.
          1   -1    0    0  501    0 -0.00000000000E+00 -0.00000000000E+00 -0.89915964687E+03  0.89915964687E+03  0.00000000000E+00 0. -1.
         25    2    1    2    0    0 -0.42529523588E+02 -0.83581068395E+02  0.17253055288E+03  0.23277964561E+03  0.12500006543E+03 0.  0.
          2    1    1    2  501    0 -0.16311020920E+01  0.87168360391E+02 -0.86115706816E+03  0.86555905609E+03  0.00000000000E+00 0. -1.
          1    1    1    2  502    0  0.44160625680E+02 -0.35872919963E+01  0.80768982899E+02  0.92123059669E+02  0.00000000000E+00 0. -1.
         22    1    3    3    0    0 -0.41560838039E+02 -0.28522231819E+02 -0.13121958322E+01  0.50423633590E+02  0.00000000000E+00 0. -1.
         22    1    3    3    0    0 -0.96868554886E+00 -0.55058836576E+02  0.17384274872E+03  0.18235601202E+03  0.00000000000E+00 0. -1.
</event>
<event>
 7    1  0.6089676E-006  0.7070389E+02  0.7818608E-02  0.1466998E+00
          2   -1    0    0  502    0  0.00000000000E+00  0.00000000000E+00  0.23328955574E+03  0.23328955574E+03  0.00000000000E+00 0. -1.
          1   -1    0    0  501    0 -0.00000000000E+00 -0.00000000000E+00 -0.10836841235E+04  0.10836841235E+04  0.00000000000E+00 0. -1.
         25    2    1    2    0    0 -0.38240040908E+02  0.57125256689E+02 -0.35453251023E+03  0.38215749917E+03  0.12500183073E+03 0.  0.
          2    1    1    2  501    0 -0.22296551889E+02 -0.20348205371E+02 -0.70929475106E+03  0.70993677857E+03  0.00000000000E+00 0. -1.
          1    1    1    2  502    0  0.60536592797E+02 -0.36777051319E+02  0.21343269351E+03  0.22487940152E+03  0.00000000000E+00 0. -1.
         22    1    3    3    0    0 -0.65860416473E+02  0.56622715437E+02 -0.13260684862E+03  0.15851909242E+03  0.00000000000E+00 0. -1.
         22    1    3    3    0    0  0.27620375564E+02  0.50254125213E+00 -0.22192566161E+03  0.22363840675E+03  0.00000000000E+00 0. -1.
</event>
<event>
 7    1  0.6089676E-006  0.6655644E+02  0.7818608E-02  0.1400087E+00
          2   -1    0    0  502    0  0.00000000000E+00  0.00000000000E+00  0.19558214370E+03  0.19558214370E+03  0.00000000000E+00 0. -1.
          1   -1    0    0  501    0 -0.00000000000E+00 -0.00000000000E+00 -0.22072584723E+04  0.22072584723E+04  0.00000000000E+00 0. -1.
         25    2    1    2    0    0 -0.80975237070E+02  0.10980307101E+02 -0.35165569389E+01  0.14941328942E+03  0.12503762921E+03 0.  0.
          2    1    1    2  501    0  0.24731626953E+02 -0.47023750815E+02 -0.21213390279E+04  0.21220042785E+04  0.00000000000E+00 0. -1.
          1    1    1    2  502    0  0.56243610117E+02  0.36043443713E+02  0.11317925628E+03  0.13142304808E+03  0.00000000000E+00 0. -1.
         22    1    3    3    0    0  0.76029205402E+01  0.39559094334E+02 -0.32685249625E+02  0.51875349525E+02  0.00000000000E+00 0.  1.
         22    1    3    3    0    0 -0.88578157610E+02 -0.28578787233E+02  0.29168692686E+02  0.97537939891E+02  0.00000000000E+00 0.  1.
</event>
<event>
 7    1  0.6089676E-006  0.6054965E+02  0.7818608E-02  0.1400794E+00
          2   -1    0    0  502    0  0.00000000000E+00  0.00000000000E+00  0.42420980012E+03  0.42420980012E+03  0.00000000000E+00 0. -1.
          1   -1    0    0  501    0 -0.00000000000E+00 -0.00000000000E+00 -0.17851726275E+03  0.17851726275E+03  0.00000000000E+00 0. -1.
         25    2    1    2    0    0  0.13584403556E+02  0.44918010996E+02  0.15441398329E+03  0.20413307510E+03  0.12499788151E+03 0.  0.
          2    1    1    2  501    0 -0.60894783915E+02 -0.11235458179E+02 -0.14373760920E+03  0.15650849985E+03  0.00000000000E+00 0. -1.
          1    1    1    2  502    0  0.47310380359E+02 -0.33682552817E+02  0.23501616328E+03  0.24208548791E+03  0.00000000000E+00 0. -1.
         22    1    3    3    0    0  0.23517619876E+02  0.87015989303E+02  0.10016822974E+03  0.13475360881E+03  0.00000000000E+00 0. -1.
         22    1    3    3    0    0 -0.99332163206E+01 -0.42097978307E+02  0.54245753552E+02  0.69379466288E+02  0.00000000000E+00 0. -1.
</event>
<event>
 7    1  0.6089676E-006  0.1343734E+03  0.7818608E-02  0.1312466E+00
          2   -1    0    0  502    0  0.00000000000E+00  0.00000000000E+00  0.30632964003E+03  0.30632964003E+03  0.00000000000E+00 0. -1.
          1   -1    0    0  501    0 -0.00000000000E+00 -0.00000000000E+00 -0.18341587229E+04  0.18341587229E+04  0.00000000000E+00 0. -1.
         25    2    1    2    0    0 -0.83841341766E+02  0.12369019366E+03 -0.23257566926E+03  0.30339449111E+03  0.12501256220E+03 0.  0.
          2    1    1    2  501    0  0.29067579645E+02 -0.13074293912E+03 -0.15604604681E+04  0.15661977885E+04  0.00000000000E+00 0. -1.
          1    1    1    2  502    0  0.54773762122E+02  0.70527454610E+01  0.26520705445E+03  0.27089608333E+03  0.00000000000E+00 0. -1.
         22    1    3    3    0    0 -0.33194212652E+02 -0.98269655642E+01 -0.53595573556E+01  0.35030698834E+02  0.00000000000E+00 0.  1.
         22    1    3    3    0    0 -0.50647129114E+02  0.13351715923E+03 -0.22721611191E+03  0.26836379228E+03  0.00000000000E+00 0.  1.
</event>
<event>
 7    1  0.6089676E-006  0.4899474E+02  0.7818608E-02  0.1575581E+00
          2   -1    0    0  502    0  0.00000000000E+00  0.00000000000E+00  0.56795225964E+03  0.56795225964E+03  0.00000000000E+00 0. -1.
          1   -1    0    0  501    0 -0.00000000000E+00 -0.00000000000E+00 -0.98877138263E+02  0.98877138263E+02  0.00000000000E+00 0. -1.
         25    2    1    2    0    0  0.38597710295E+02 -0.40477900513E+02  0.11787525295E+03  0.18068707067E+03  0.12499999431E+03 0.  0.
          2    1    1    2  501    0 -0.44423744950E+02  0.20216770255E+02 -0.58337802941E+02  0.76062383390E+02  0.00000000000E+00 0. -1.
          1    1    1    2  502    0  0.58260346550E+01  0.20261130258E+02  0.40953767136E+03  0.41007994384E+03  0.00000000000E+00 0. -1.
         22    1    3    3    0    0 -0.22752947964E+02 -0.22483244572E+02 -0.13391871460E+02  0.34677588566E+02  0.00000000000E+00 0.  1.
         22    1    3    3    0    0  0.61350658259E+02 -0.17994655941E+02  0.13126712441E+03  0.14600948210E+03  0.00000000000E+00 0.  1.
</event>
<event>
 7    1  0.6089676E-006  0.1069983E+03  0.7818608E-02  0.1311423E+00
          2   -1    0    0  502    0  0.00000000000E+00  0.00000000000E+00  0.58317399875E+03  0.58317399875E+03  0.00000000000E+00 0. -1.
          1   -1    0    0  501    0 -0.00000000000E+00 -0.00000000000E+00 -0.37196129287E+03  0.37196129287E+03  0.00000000000E+00 0. -1.
         25    2    1    2    0    0  0.14792420228E+03  0.79026494131E+02 -0.17087421488E+02  0.20986522320E+03  0.12499870216E+03 0.  0.
          2    1    1    2  501    0 -0.69169796679E+02 -0.10830988144E+02 -0.24800874360E+03  0.25770158707E+03  0.00000000000E+00 0. -1.
          1    1    1    2  502    0 -0.78754405599E+02 -0.68195505987E+02  0.47630887097E+03  0.48756848134E+03  0.00000000000E+00 0. -1.
         22    1    3    3    0    0  0.11916665993E+03 -0.60329508455E+01 -0.12236037736E+02  0.11994502888E+03  0.00000000000E+00 0.  1.
         22    1    3    3    0    0  0.28757542349E+02  0.85059444977E+02 -0.48513837522E+01  0.89920194317E+02  0.00000000000E+00 0.  1.
</event>
<event>
 7    1  0.6089676E-006  0.2101753E+03  0.7818608E-02  0.1253249E+00
          2   -1    0    0  502    0  0.00000000000E+00  0.00000000000E+00  0.22041327438E+04  0.22041327438E+04  0.00000000000E+00 0. -1.
          1   -1    0    0  501    0 -0.00000000000E+00 -0.00000000000E+00 -0.67119009245E+03  0.67119009245E+03  0.00000000000E+00 0. -1.
         25    2    1    2    0    0  0.15879233278E+03  0.11600384624E+03  0.22751181066E+03  0.32566560031E+03  0.12499824777E+03 0.  0.
          2    1    1    2  501    0 -0.19978929285E+03 -0.69642628913E+02 -0.60360780734E+03  0.63961569899E+03  0.00000000000E+00 0. -1.
          1    1    1    2  502    0  0.40996960073E+02 -0.46361217327E+02  0.19090386480E+04  0.19100415369E+04  0.00000000000E+00 0. -1.
         22    1    3    3    0    0  0.33057640728E+02  0.86414635842E+01 -0.10605397048E+02  0.35776485992E+02  0.00000000000E+00 0. -1.
         22    1    3    3    0    0  0.12573469205E+03  0.10736238266E+03  0.23811720771E+03  0.28988911432E+03  0.00000000000E+00 0. -1.
</event>
<event>
 7    1  0.6089676E-006  0.1248853E+03  0.7818608E-02  0.1398798E+00
          2   -1    0    0  502    0  0.00000000000E+00  0.00000000000E+00  0.77046567001E+03  0.77046567001E+03  0.00000000000E+00 0. -1.
          1   -1    0    0  501    0 -0.00000000000E+00 -0.00000000000E+00 -0.93930021485E+03  0.93930021485E+03  0.00000000000E+00 0. -1.
         25    2    1    2    0    0  0.32276886874E+02  0.13437361258E+03  0.25123782403E+02  0.18802808397E+03  0.12500116294E+03 0.  0.
          2    1    1    2  501    0 -0.51555892216E+02 -0.11323994014E+03 -0.85302450637E+03  0.86205110204E+03  0.00000000000E+00 0. -1.
          1    1    1    2  502    0  0.19279005342E+02 -0.21133672444E+02  0.65906617913E+03  0.65968669884E+03  0.00000000000E+00 0. -1.
         22    1    3    3    0    0  0.54401828045E-01  0.65255994480E+02 -0.49058090025E+02  0.81639720553E+02  0.00000000000E+00 0. -1.
         22    1    3    3    0    0  0.32222485046E+02  0.69117618100E+02  0.74181872428E+02  0.10638836342E+03  0.00000000000E+00 0. -1.
</event>
<event>
 7    1  0.6089676E-006  0.7730635E+02  0.7818608E-02  0.1366504E+00
          2   -1    0    0  502    0  0.00000000000E+00  0.00000000000E+00  0.71649308409E+02  0.71649308409E+02  0.00000000000E+00 0. -1.
          1   -1    0    0  501    0 -0.00000000000E+00 -0.00000000000E+00 -0.18655660197E+04  0.18655660197E+04  0.00000000000E+00 0. -1.
         25    2    1    2    0    0  0.78976440273E+02  0.16316804695E+02 -0.24640485824E+03  0.28782756659E+03  0.12500335071E+03 0.  0.
          2    1    1    2  501    0 -0.43618226943E+02 -0.64885188539E+02 -0.15794269328E+04  0.15813608296E+04  0.00000000000E+00 0. -1.
          1    1    1    2  502    0 -0.35358213331E+02  0.48568383844E+02  0.31915079694E+02  0.68026931954E+02  0.00000000000E+00 0. -1.
         22    1    3    3    0    0  0.91058711582E+02  0.52593691376E+02 -0.14241186106E+03  0.17702803026E+03  0.00000000000E+00 0. -1.
         22    1    3    3    0    0 -0.12082271309E+02 -0.36276886681E+02 -0.10399299718E+03  0.11079953633E+03  0.00000000000E+00 0. -1.
</event>
<event>
 7    1  0.6089676E-006  0.8861991E+02  0.7818608E-02  0.1473347E+00
          2   -1    0    0  502    0  0.00000000000E+00  0.00000000000E+00  0.95943941684E+03  0.95943941684E+03  0.00000000000E+00 0. -1.
          1   -1    0    0  501    0 -0.00000000000E+00 -0.00000000000E+00 -0.13355237070E+04  0.13355237070E+04  0.00000000000E+00 0. -1.
         25    2    1    2    0    0 -0.67259584627E+02 -0.78108195282E+02  0.73721061700E+03  0.75480414136E+03  0.12500022442E+03 0.  0.
          2    1    1    2  501    0  0.69307185209E+02  0.55186546528E+02 -0.13246225622E+04  0.13275820024E+04  0.00000000000E+00 0. -1.
          1    1    1    2  502    0 -0.20476005822E+01  0.22921648754E+02  0.21132765506E+03  0.21257698004E+03  0.00000000000E+00 0. -1.
         22    1    3    3    0    0 -0.18354730887E+02  0.28426092315E+02  0.30870449395E+03  0.31055338262E+03  0.00000000000E+00 0.  1.
         22    1    3    3    0    0 -0.48904853740E+02 -0.10653428760E+03  0.42850612305E+03  0.44425075874E+03  0.00000000000E+00 0.  1.
</event>
<event>
 7    1  0.6089676E-006  0.4530408E+02  0.7818608E-02  0.1533523E+00
          2   -1    0    0  502    0  0.00000000000E+00  0.00000000000E+00  0.15345356783E+04  0.15345356783E+04  0.00000000000E+00 0. -1.
          1   -1    0    0  501    0 -0.00000000000E+00 -0.00000000000E+00 -0.70759936101E+02  0.70759936101E+02  0.00000000000E+00 0. -1.
         25    2    1    2    0    0  0.77576548616E-01 -0.17934019789E+02 -0.12492338688E+01  0.12628517898E+03  0.12499900304E+03 0.  0.
          2    1    1    2  501    0 -0.33580358325E+02  0.48430300689E+02  0.12474917476E+03  0.13796916718E+03  0.00000000000E+00 0. -1.
          1    1    1    2  502    0  0.33502781777E+02 -0.30496280900E+02  0.13402758013E+04  0.13410412682E+04  0.00000000000E+00 0. -1.
         22    1    3    3    0    0 -0.55061802728E+02 -0.37735820049E+02 -0.83387820017E+01  0.67270569492E+02  0.00000000000E+00 0. -1.
         22    1    3    3    0    0  0.55139379277E+02  0.19801800260E+02  0.70895481330E+01  0.59014609491E+02  0.00000000000E+00 0. -1.
</event>
<event>
 7    1  0.6089676E-006  0.1377966E+03  0.7818608E-02  0.1255732E+00
          2   -1    0    0  502    0  0.00000000000E+00  0.00000000000E+00  0.25787036818E+04  0.25787036818E+04  0.00000000000E+00 0. -1.
          1   -1    0    0  501    0 -0.00000000000E+00 -0.00000000000E+00 -0.42233493175E+03  0.42233493175E+03  0.00000000000E+00 0. -1.
         25    2    1    2    0    0 -0.39681278550E+02  0.12096962222E+03  0.18097617540E+03  0.25413671362E+03  0.12499935911E+03 0.  0.
          2    1    1    2  501    0 -0.51966589651E+02 -0.13007550991E+03 -0.37210640497E+03  0.39759695841E+03  0.00000000000E+00 0. -1.
          1    1    1    2  502    0  0.91647868202E+02  0.91058876854E+01  0.23474989796E+04  0.23493049415E+04  0.00000000000E+00 0. -1.
         22    1    3    3    0    0 -0.42025227494E+02  0.68015772142E+02  0.18443453264E+03  0.20101831219E+03  0.00000000000E+00 0.  1.
         22    1    3    3    0    0  0.23439489436E+01  0.52953850082E+02 -0.34583572422E+01  0.53118401426E+02  0.00000000000E+00 0.  1.
</event>
<event>
 7    1  0.6089676E-006  0.7035590E+02  0.7818608E-02  0.1516858E+00
          2   -1    0    0  502    0  0.00000000000E+00  0.00000000000E+00  0.79026627787E+02  0.79026627787E+02  0.00000000000E+00 0. -1.
          1   -1    0    0  501    0 -0.00000000000E+00 -0.00000000000E+00 -0.54848333198E+03  0.54848333198E+03  0.00000000000E+00 0. -1.
         25    2    1    2    0    0 -0.67269073857E+02  0.13980591139E+02 -0.24627310183E+03  0.28459693506E+03  0.12499755813E+03 0.  0.
          2    1    1    2  501    0  0.62275088208E+02 -0.34842499107E+02 -0.27643838912E+03  0.28550020899E+03  0.00000000000E+00 0. -1.
          1    1    1    2  502    0  0.49939856497E+01  0.20861907968E+02  0.53254786748E+02  0.57412815715E+02  0.00000000000E+00 0. -1.
         22    1    3    3    0    0 -0.84734956669E+02  0.18340446160E+02 -0.81976115034E+02  0.11931667228E+03  0.00000000000E+00 0. -1.
         22    1    3    3    0    0  0.17465882811E+02 -0.43598550206E+01 -0.16429698679E+03  0.16528026279E+03  0.00000000000E+00 0. -1.
</event>
<event>
 7    1  0.6089676E-006  0.6652389E+02  0.7818608E-02  0.1463869E+00
          2   -1    0    0  502    0  0.00000000000E+00  0.00000000000E+00  0.70562775992E+02  0.70562775992E+02  0.00000000000E+00 0. -1.
          1   -1    0    0  501    0 -0.00000000000E+00 -0.00000000000E+00 -0.10767526994E+04  0.10767526994E+04  0.00000000000E+00 0. -1.
         25    2    1    2    0    0 -0.95722325661E+02 -0.67183273145E+01 -0.31010275516E+03  0.34784541469E+03  0.12499925684E+03 0.  0.
          2    1    1    2  501    0  0.32251954811E+02 -0.60503196422E+01 -0.72699046405E+03  0.72773067118E+03  0.00000000000E+00 0. -1.
          1    1    1    2  502    0  0.63470370850E+02  0.12768646957E+02  0.30903295786E+02  0.71739389539E+02  0.00000000000E+00 0. -1.
         22    1    3    3    0    0 -0.51780822003E+02 -0.37498457240E+02 -0.27814685206E+03  0.28539982329E+03  0.00000000000E+00 0. -1.
         22    1    3    3    0    0 -0.43941503657E+02  0.30780129926E+02 -0.31955903094E+02  0.62445591393E+02  0.00000000000E+00 0. -1.
</event>
<event>
 7    1  0.6089676E-006  0.3176139E+02  0.7818608E-02  0.1618732E+00
          2   -1    0    0  502    0  0.00000000000E+00  0.00000000000E+00  0.38959353973E+03  0.38959353973E+03  0.00000000000E+00 0. -1.
          1   -1    0    0  501    0 -0.00000000000E+00 -0.00000000000E+00 -0.17458971278E+04  0.17458971278E+04  0.00000000000E+00 0. -1.
         25    2    1    2    0    0  0.12994268221E+02 -0.48563119173E+02 -0.19046141107E+03  0.23330034048E+03  0.12500508874E+03 0.  0.
          2    1    1    2  501    0 -0.20029485680E+02  0.24510796112E+02 -0.15334262926E+04  0.15337529639E+04  0.00000000000E+00 0. -1.
          1    1    1    2  502    0  0.70352174582E+01  0.24052323061E+02  0.36758411559E+03  0.36843736315E+03  0.00000000000E+00 0. -1.
         22    1    3    3    0    0 -0.23693388305E+02 -0.55419385673E+02 -0.27731967255E+02  0.66345662749E+02  0.00000000000E+00 0. -1.
         22    1    3    3    0    0  0.36687656526E+02  0.68562665009E+01 -0.16272944381E+03  0.16695467773E+03  0.00000000000E+00 0. -1.
</event>
<event>
 7    1  0.6089676E-006  0.1298400E+03  0.7818608E-02  0.1231897E+00
          2   -1    0    0  502    0  0.00000000000E+00  0.00000000000E+00  0.70308853808E+03  0.70308853808E+03  0.00000000000E+00 0. -1.
          1   -1    0    0  501    0 -0.00000000000E+00 -0.00000000000E+00 -0.85716828854E+03  0.85716828854E+03  0.00000000000E+00 0. -1.
         25    2    1    2    0    0 -0.56948899102E+02 -0.10332380306E+03  0.57804269726E+02  0.18134486973E+03  0.12500257114E+03 0.  0.
          2    1    1    2  501    0 -0.75250560424E+02  0.10581005403E+03 -0.78248876070E+03  0.79318791910E+03  0.00000000000E+00 0. -1.
          1    1    1    2  502    0  0.13219945953E+03 -0.24862509713E+01  0.57060474052E+03  0.58572403779E+03  0.00000000000E+00 0. -1.
         22    1    3    3    0    0  0.43228405442E+01 -0.89284656715E+02 -0.87278148819E+01  0.89814317498E+02  0.00000000000E+00 0.  1.
         22    1    3    3    0    0 -0.61271739647E+02 -0.14039146342E+02  0.66532084608E+02  0.91530552230E+02  0.00000000000E+00 0.  1.
</event>
<event>
 7    1  0.6089676E-006  0.1373902E+03  0.7818608E-02  0.1236863E+00
          2   -1    0    0  502    0  0.00000000000E+00  0.00000000000E+00  0.58726044830E+03  0.58726044830E+03  0.00000000000E+00 0. -1.
          1   -1    0    0  501    0 -0.00000000000E+00 -0.00000000000E+00 -0.81074693792E+03  0.81074693792E+03  0.00000000000E+00 0. -1.
         25    2    1    2    0    0 -0.18373052601E+03  0.13409050745E+03 -0.39655186820E+03  0.47393532502E+03  0.12499655094E+03 0.  0.
          2    1    1    2  501    0  0.97688648223E+02 -0.62922461159E+02 -0.36059510401E+03  0.37885503448E+03  0.00000000000E+00 0. -1.
          1    1    1    2  502    0  0.86041877785E+02 -0.71168046292E+02  0.53366048260E+03  0.54521702673E+03  0.00000000000E+00 0. -1.
         22    1    3    3    0    0 -0.14899575995E+03  0.53956313824E+02 -0.17657563412E+03  0.23725508393E+03  0.00000000000E+00 0. -1.
         22    1    3    3    0    0 -0.34734766059E+02  0.80134193627E+02 -0.21997623408E+03  0.23668024109E+03  0.00000000000E+00 0. -1.
</event>
<event>
 7    1  0.6089676E-006  0.1099726E+03  0.7818608E-02  0.1348737E+00
          2   -1    0    0  502    0  0.00000000000E+00  0.00000000000E+00  0.27570259587E+03  0.27570259587E+03  0.00000000000E+00 0. -1.
          1   -1    0    0  501    0 -0.00000000000E+00 -0.00000000000E+00 -0.25772169559E+04  0.25772169559E+04  0.00000000000E+00 0. -1.
         25    2    1    2    0    0 -0.15652722419E+03 -0.89919050956E+01 -0.65063409184E+02  0.21080839873E+03  0.12500122997E+03 0.  0.
          2    1    1    2  501    0  0.10799545277E+03  0.16156376803E+02 -0.24350731128E+04  0.24375202791E+04  0.00000000000E+00 0. -1.
          1    1    1    2  502    0  0.48531771415E+02 -0.71644717075E+01  0.19862216194E+03  0.20459087395E+03  0.00000000000E+00 0. -1.
         22    1    3    3    0    0  0.13682796395E+02  0.17703813830E+02  0.78667712426E+01  0.23717715554E+02  0.00000000000E+00 0. -1.
         22    1    3    3    0    0 -0.17021002058E+03 -0.26695718925E+02 -0.72930180427E+02  0.18709068318E+03  0.00000000000E+00 0. -1.
</event>
<event>
 7    1  0.6089676E-006  0.5659061E+02  0.7818608E-02  0.1488242E+00
          2   -1    0    0  502    0  0.00000000000E+00  0.00000000000E+00  0.10497279872E+04  0.10497279872E+04  0.00000000000E+00 0. -1.
          1   -1    0    0  501    0 -0.00000000000E+00 -0.00000000000E+00 -0.17160792029E+03  0.17160792029E+03  0.00000000000E+00 0. -1.
         25    2    1    2    0    0  0.90730575415E+01 -0.72153557223E+02  0.18595073035E+03  0.23556710726E+03  0.12500292680E+03 0.  0.
          2    1    1    2  501    0 -0.26512816627E+02  0.18697485322E+02 -0.14405150984E+03  0.14765961835E+03  0.00000000000E+00 0. -1.
          1    1    1    2  502    0  0.17439759086E+02  0.53456071900E+02  0.83622084638E+03  0.83810918188E+03  0.00000000000E+00 0. -1.
         22    1    3    3    0    0 -0.21908217319E+02 -0.22084040215E+02  0.17235314213E+03  0.17513788973E+03  0.00000000000E+00 0.  1.
         22    1    3    3    0    0  0.30981274860E+02 -0.50069517008E+02  0.13597588229E+02  0.60429217528E+02  0.00000000000E+00 0.  1.
</event>
<event>
 7    1  0.6089676E-006  0.6415235E+02  0.7818608E-02  0.1393016E+00
          2   -1    0    0  502    0  0.00000000000E+00  0.00000000000E+00  0.17252903252E+04  0.17252903252E+04  0.00000000000E+00 0. -1.
          1   -1    0    0  501    0 -0.00000000000E+00 -0.00000000000E+00 -0.62534853344E+03  0.62534853344E+03  0.00000000000E+00 0. -1.
         25    2    1    2    0    0  0.42939719912E+02  0.45911855234E+02 -0.86561554307E+02  0.16451812168E+03  0.12498636597E+03 0.  0.
          2    1    1    2  501    0 -0.65102032254E+02  0.80247030041E+01 -0.49714961026E+03  0.50145827886E+03  0.00000000000E+00 0. -1.
          1    1    1    2  502    0  0.22162312342E+02 -0.53936558238E+02  0.16836529564E+04  0.16846624581E+04  0.00000000000E+00 0. -1.
         22    1    3    3    0    0  0.32254812818E+02  0.44051551780E+02 -0.11867008148E+03  0.13062733405E+03  0.00000000000E+00 0. -1.
         22    1    3    3    0    0  0.10684907094E+02  0.18603034539E+01  0.32108527171E+02  0.33890787622E+02  0.00000000000E+00 0. -1.
</event>
<event>
 7    1  0.6089676E-006  0.6784657E+02  0.7818608E-02  0.1463099E+00
          2   -1    0    0  502    0  0.00000000000E+00  0.00000000000E+00  0.46872476521E+02  0.46872476521E+02  0.00000000000E+00 0. -1.
          1   -1    0    0  501    0 -0.00000000000E+00 -0.00000000000E+00 -0.29707994050E+04  0.29707994050E+04  0.00000000000E+00 0. -1.
         25    2    1    2    0    0  0.21740781405E+02  0.32768597311E+02 -0.15799429817E+04  0.15853687052E+04  0.12501065381E+03 0.  0.
          2    1    1    2  501    0 -0.94311867778E+00  0.32340529160E+02 -0.13613877006E+04  0.13617721068E+04  0.00000000000E+00 0. -1.
          1    1    1    2  502    0 -0.20797662727E+02 -0.65109126471E+02  0.17403753835E+02  0.70531069553E+02  0.00000000000E+00 0. -1.
         22    1    3    3    0    0  0.29852654447E+02 -0.40360274623E+02 -0.40067445682E+03  0.40380707410E+03  0.00000000000E+00 0. -1.
         22    1    3    3    0    0 -0.81118730417E+01  0.73128871934E+02 -0.11792685249E+04  0.11815616311E+04  0.00000000000E+00 0. -1.
</event>
<event>
 7    1  0.6089676E-006  0.2531381E+03  0.7818608E-02  0.1190203E+00
          2   -1    0    0  502    0  0.00000000000E+00  0.00000000000E+00  0.14167464185E+04  0.14167464185E+04  0.00000000000E+00 0. -1.
          1   -1    0    0  501    0 -0.00000000000E+00 -0.00000000000E+00 -0.70487504682E+03  0.70487504682E+03  0.00000000000E+00 0. -1.
         25    2    1    2    0    0  0.14126607871E+02 -0.20342633758E+03  0.30997786788E+02  0.24117995182E+03  0.12500028202E+03 0.  0.
          2    1    1    2  501    0  0.93378615149E+02 -0.34245336227E+02 -0.58223984563E+03  0.59067380733E+03  0.00000000000E+00 0. -1.
          1    1    1    2  502    0 -0.10750522302E+03  0.23767167380E+03  0.12631134305E+04  0.12897677061E+04  0.00000000000E+00 0. -1.
         22    1    3    3    0    0  0.13736743191E+02  0.15205070764E+02  0.41320282893E+01  0.20903730485E+02  0.00000000000E+00 0.  1.
         22    1    3    3    0    0  0.38986468013E+00 -0.21863140834E+03  0.26865758499E+02  0.22027622134E+03  0.00000000000E+00 0.  1.
</event>
<event>
 7    1  0.6089676E-006  0.1326509E+03  0.7818608E-02  0.1313561E+00
          2   -1    0    0  502    0  0.00000000000E+00  0.00000000000E+00  0.33592413411E+03  0.33592413411E+03  0.00000000000E+00 0. -1.
          1   -1    0    0  501    0 -0.00000000000E+00 -0.00000000000E+00 -0.25543852440E+03  0.25543852440E+03  0.00000000000E+00 0. -1.
         25    2    1    2    0    0  0.17958478369E+03 -0.22447208368E+02  0.14624038836E+03  0.26413089707E+03  0.12499723160E+03 0.  0.
          2    1    1    2  501    0 -0.12449844255E+03  0.28261906012E+02 -0.16796545097E+03  0.21097627887E+03  0.00000000000E+00 0. -1.
          1    1    1    2  502    0 -0.55086341141E+02 -0.58146976440E+01  0.10221067233E+03  0.11625548257E+03  0.00000000000E+00 0. -1.
         22    1    3    3    0    0  0.74749810545E+02  0.22046082331E+02 -0.10583858569E+01  0.77940259836E+02  0.00000000000E+00 0.  1.
         22    1    3    3    0    0  0.10483497314E+03 -0.44493290699E+02  0.14729877421E+03  0.18619063724E+03  0.00000000000E+00 0.  1.
</event>
<event>
 7    1  0.6089676E-006  0.2919778E+02  0.7818608E-02  0.1668233E+00
          2   -1    0    0  502    0  0.00000000000E+00  0.00000000000E+00  0.12571322372E+03  0.12571322372E+03  0.00000000000E+00 0. -1.
          1   -1    0    0  501    0 -0.00000000000E+00 -0.00000000000E+00 -0.14671472344E+03  0.14671472344E+03  0.00000000000E+00 0. -1.
         25    2    1    2    0    0 -0.20491797047E+02 -0.49906685393E+01  0.42647497684E+02  0.13374885197E+03  0.12500050331E+03 0.  0.
          2    1    1    2  501    0 -0.70902395005E+01  0.19303491348E+02 -0.93412989447E+02  0.95649792848E+02  0.00000000000E+00 0. -1.
          1    1    1    2  502    0  0.27582036547E+02 -0.14312822809E+02  0.29763992052E+02  0.43029302339E+02  0.00000000000E+00 0. -1.
         22    1    3    3    0    0  0.25648621749E+02  0.20442291444E+02 -0.29702199428E+02  0.44248838719E+02  0.00000000000E+00 0.  1.
         22    1    3    3    0    0 -0.46140418796E+02 -0.25432959984E+02  0.72349697113E+02  0.89500013254E+02  0.00000000000E+00 0.  1.
</event>
<event>
 7    1  0.6089676E-006  0.5906891E+02  0.7818608E-02  0.1435979E+00
          2   -1    0    0  502    0  0.00000000000E+00  0.00000000000E+00  0.12335882410E+04  0.12335882410E+04  0.00000000000E+00 0. -1.
          1   -1    0    0  501    0 -0.00000000000E+00 -0.00000000000E+00 -0.76834544591E+03  0.76834544591E+03  0.00000000000E+00 0. -1.
         25    2    1    2    0    0 -0.97926495875E+01  0.47172716230E+02 -0.46608598102E+03  0.48495863270E+03  0.12501028990E+03 0.  0.
          2    1    1    2  501    0  0.54602211891E+02 -0.39950897749E+02 -0.28848738373E+03  0.29631477578E+03  0.00000000000E+00 0. -1.
          1    1    1    2  502    0 -0.44809562304E+02 -0.72218184815E+01  0.12198161598E+04  0.12206602784E+04  0.00000000000E+00 0. -1.
         22    1    3    3    0    0 -0.58075337359E+02  0.37561466786E+00 -0.13258671722E+03  0.14474848351E+03  0.00000000000E+00 0. -1.
         22    1    3    3    0    0  0.48282687772E+02  0.46797101562E+02 -0.33349926380E+03  0.34021014919E+03  0.00000000000E+00 0. -1.
</event>
<event>
 7    1  0.6089676E-006  0.6814306E+02  0.7818608E-02  0.1405295E+00
          2   -1    0    0  502    0  0.00000000000E+00  0.00000000000E+00  0.15793642414E+03  0.15793642414E+03  0.00000000000E+00 0. -1.
          1   -1    0    0  501    0 -0.00000000000E+00 -0.00000000000E+00 -0.98064889337E+03  0.98064889337E+03  0.00000000000E+00 0. -1.
         25    2    1    2    0    0 -0.17056573240E+02  0.28790527314E+02 -0.18003277707E+03  0.22171379836E+03  0.12500154563E+03 0.  0.
          2    1    1    2  501    0  0.66749716502E+02 -0.25451436971E+02 -0.77355143749E+03  0.77684305155E+03  0.00000000000E+00 0. -1.
          1    1    1    2  502    0 -0.49693143261E+02 -0.33390903428E+01  0.13087174534E+03  0.14002846760E+03  0.00000000000E+00 0. -1.
         22    1    3    3    0    0  0.28235857268E+02 -0.31622202645E+02 -0.11320281864E+03  0.12088054221E+03  0.00000000000E+00 0.  1.
         22    1    3    3    0    0 -0.45292430508E+02  0.60412729959E+02 -0.66829958429E+02  0.10083325615E+03  0.00000000000E+00 0.  1.
</event>
<event>
 7    1  0.6089676E-006  0.2818981E+03  0.7818608E-02  0.1192330E+00
          2   -1    0    0  502    0  0.00000000000E+00  0.00000000000E+00  0.40190029321E+03  0.40190029321E+03  0.00000000000E+00 0. -1.
          1   -1    0    0  501    0 -0.00000000000E+00 -0.00000000000E+00 -0.26330435555E+04  0.26330435555E+04  0.00000000000E+00 0. -1.
         25    2    1    2    0    0  0.87940382815E+02  0.28858577768E+03 -0.16017175255E+04  0.16346678758E+04  0.12499908337E+03 0.  0.
          2    1    1    2  501    0 -0.35249861831E+01 -0.26655374085E+03 -0.99208214515E+03  0.10272732378E+04  0.00000000000E+00 0. -1.
          1    1    1    2  502    0 -0.84415396631E+02 -0.22032036831E+02  0.36265640838E+03  0.37300273508E+03  0.00000000000E+00 0. -1.
         22    1    3    3    0    0  0.87955455403E+02  0.27692884703E+03 -0.12728131249E+04  0.13055569690E+04  0.00000000000E+00 0. -1.
         22    1    3    3    0    0 -0.15072587999E-01  0.11656930650E+02 -0.32890440058E+03  0.32911090680E+03  0.00000000000E+00 0. -1.
</event>
<event>
 7    1  0.6089676E-006  0.6301872E+02  0.7818608E-02  0.1395499E+00
          2   -1    0    0  502    0  0.00000000000E+00  0.00000000000E+00  0.10635711205E+03  0.10635711205E+03  0.00000000000E+00 0. -1.
          1   -1    0    0  501    0 -0.00000000000E+00 -0.00000000000E+00 -0.15051436676E+04  0.15051436676E+04  0.00000000000E+00 0. -1.
         25    2    1    2    0    0 -0.10080002204E+02  0.25740055133E+02 -0.17420682616E+02  0.12919905699E+03  0.12499903704E+03 0.  0.
          2    1    1    2  501    0 -0.44715262760E+02 -0.45342032796E+02 -0.14140987807E+04  0.14155319553E+04  0.00000000000E+00 0. -1.
          1    1    1    2  502    0  0.54795264964E+02  0.19601977663E+02  0.32732907786E+02  0.66769767431E+02  0.00000000000E+00 0. -1.
         22    1    3    3    0    0 -0.32114315166E+02 -0.43836292313E+02 -0.79312720201E+00  0.54346838115E+02  0.00000000000E+00 0.  1.
         22    1    3    3    0    0  0.22034312962E+02  0.69576347445E+02 -0.16627555414E+02  0.74852218875E+02  0.00000000000E+00 0.  1.
</event>
<event>
 7    1  0.6089676E-006  0.8309392E+02  0.7818608E-02  0.1409518E+00
          2   -1    0    0  502    0  0.00000000000E+00  0.00000000000E+00  0.33466394581E+04  0.33466394581E+04  0.00000000000E+00 0. -1.
          1   -1    0    0  501    0 -0.00000000000E+00 -0.00000000000E+00 -0.19611778960E+02  0.19611778960E+02  0.00000000000E+00 0. -1.
         25    2    1    2    0    0  0.68589585406E+02 -0.51498280729E+02  0.29632816420E+04  0.29671567141E+04  0.12499708710E+03 0.  0.
          2    1    1    2  501    0 -0.32128405027E+02 -0.23004400171E+02  0.17791995949E+02  0.43335804558E+02  0.00000000000E+00 0. -1.
          1    1    1    2  502    0 -0.36461180378E+02  0.74502680900E+02  0.34595404115E+03  0.35575871841E+03  0.00000000000E+00 0. -1.
         22    1    3    3    0    0 -0.89346066025E+01  0.33830702556E+02  0.86918396868E+03  0.86988798994E+03  0.00000000000E+00 0.  1.
         22    1    3    3    0    0  0.77524192008E+02 -0.85328983285E+02  0.20940976734E+04  0.20972687242E+04  0.00000000000E+00 0.  1.
</event>
<event>
 7    1  0.6089676E-006  0.7082380E+02  0.7818608E-02  0.1485265E+00
          2   -1    0    0  502    0  0.00000000000E+00  0.00000000000E+00  0.14147660209E+04  0.14147660209E+04  0.00000000000E+00 0. -1.
          1   -1    0    0  501    0 -0.00000000000E+00 -0.00000000000E+00 -0.99063385653E+02  0.99063385653E+02  0.00000000000E+00 0. -1.
         25    2    1    2    0    0  0.56828027094E+02 -0.20287977108E+02 -0.30963910090E+02  0.14221221708E+03  0.12499809711E+03 0.  0.
          2    1    1    2  501    0  0.14122613292E+02  0.22385964806E+02  0.36416142051E+01  0.26717802689E+02  0.00000000000E+00 0. -1.
          1    1    1    2  502    0 -0.70950640386E+02 -0.20979876985E+01  0.13430249311E+04  0.13448993867E+04  0.00000000000E+00 0. -1.
         22    1    3    3    0    0  0.51708432206E+02  0.33343619127E+02  0.23257435480E+02  0.65775886180E+02  0.00000000000E+00 0. -1.
         22    1    3    3    0    0  0.51195948881E+01 -0.53631596235E+02 -0.54221345570E+02  0.76436330903E+02  0.00000000000E+00 0. -1.
</event>
<event>
 7    1  0.6089676E-006  0.6583708E+02  0.7818608E-02  0.1439686E+00
          2   -1    0    0  502    0  0.00000000000E+00  0.00000000000E+00  0.40083334114E+04  0.40083334114E+04  0.00000000000E+00 0. -1.
          1   -1    0    0  501    0 -0.00000000000E+00 -0.00000000000E+00 -0.64546323899E+03  0.64546323899E+03  0.00000000000E+00 0. -1.
         25    2    1    2    0    0  0.31168547198E+02 -0.68999597860E+01  0.11762409468E+04  0.11832947720E+04  0.12499865937E+03 0.  0.
          2    1    1    2  501    0  0.32242535081E+02 -0.23000850139E+02 -0.64089051513E+03  0.64211313066E+03  0.00000000000E+00 0. -1.
          1    1    1    2  502    0 -0.63411082278E+02  0.29900809925E+02  0.28275197407E+04  0.28283887477E+04  0.00000000000E+00 0. -1.
         22    1    3    3    0    0  0.47064439054E+02 -0.39928692618E+01  0.11578498732E+04  0.11588128983E+04  0.00000000000E+00 0. -1.
         22    1    3    3    0    0 -0.15895891856E+02 -0.29070905242E+01  0.18391073589E+02  0.24481873723E+02  0.00000000000E+00 0. -1.
</event>
<event>
 7    1  0.6089676E-006  0.1145677E+03  0.7818608E-02  0.1427801E+00
          2   -1    0    0  502    0  0.00000000000E+00  0.00000000000E+00  0.85268299474E+03  0.85268299474E+03  0.00000000000E+00 0. -1.
          1   -1    0    0  501    0 -0.00000000000E+00 -0.00000000000E+00 -0.28907111759E+03  0.28907111759E+03  0.00000000000E+00 0. -1.
         25    2    1    2    0    0 -0.99089470953E+02 -0.66237389605E+02  0.58108698731E+02  0.18223221005E+03  0.12500336986E+03 0.  0.
          2    1    1    2  501    0  0.10614959681E+03  0.42366059908E+02 -0.21239439190E+03  0.24119286400E+03  0.00000000000E+00 0. -1.
          1    1    1    2  502    0 -0.70601258586E+01  0.23871329697E+02  0.71789757032E+03  0.71832903827E+03  0.00000000000E+00 0. -1.
         22    1    3    3    0    0 -0.58063973653E+02 -0.20701990111E+02 -0.34905109211E+02  0.70840412760E+02  0.00000000000E+00 0. -1.
         22    1    3    3    0    0 -0.41025497300E+02 -0.45535399494E+02  0.93013807942E+02  0.11139179729E+03  0.00000000000E+00 0. -1.
</event>
<event>
 7    1  0.6089676E-006  0.1004691E+03  0.7818608E-02  0.1318541E+00
          2   -1    0    0  502    0  0.00000000000E+00  0.00000000000E+00  0.28335594338E+04  0.28335594338E+04  0.00000000000E+00 0. -1.
          1   -1    0    0  501    0 -0.00000000000E+00 -0.00000000000E+00 -0.87488523460E+03  0.87488523460E+03  0.00000000000E+00 0. -1.
         25    2    1    2    0    0 -0.16324496349E+03 -0.34924406777E+02  0.29510945742E+03  0.36136833067E+03  0.12501538410E+03 0.  0.
          2    1    1    2  501    0  0.99725490326E+02  0.56657398425E+01 -0.83830222504E+03  0.84423213308E+03  0.00000000000E+00 0. -1.
          1    1    1    2  502    0  0.63519473161E+02  0.29258666934E+02  0.25018669668E+04  0.25028442046E+04  0.00000000000E+00 0. -1.
         22    1    3    3    0    0 -0.59504634652E+02  0.46885076378E+02  0.93698922161E+02  0.12049273815E+03  0.00000000000E+00 0.  1.
         22    1    3    3    0    0 -0.10374032884E+03 -0.81809483155E+02  0.20141053526E+03  0.24087559252E+03  0.00000000000E+00 0.  1.
</event>
<event>
 7    1  0.6089676E-006  0.1772298E+03  0.7818608E-02  0.1334026E+00
          2   -1    0    0  502    0  0.00000000000E+00  0.00000000000E+00  0.84428043064E+03  0.84428043064E+03  0.00000000000E+00 0. -1.
          1   -1    0    0  501    0 -0.00000000000E+00 -0.00000000000E+00 -0.56812267414E+03  0.56812267414E+03  0.00000000000E+00 0. -1.
         25    2    1    2    0    0  0.11163085390E+02  0.20587484206E+03  0.15440194798E+03  0.28631141305E+03  0.12500079454E+03 0.  0.
          2    1    1    2  501    0  0.30695257111E+01 -0.34432083893E+02 -0.48968853585E+03  0.49090717303E+03  0.00000000000E+00 0. -1.
          1    1    1    2  502    0 -0.14232611101E+02 -0.17144275816E+03  0.61144434437E+03  0.63518451871E+03  0.00000000000E+00 0. -1.
         22    1    3    3    0    0  0.38308719716E+02  0.16197134439E+03  0.56736611953E+02  0.17584458350E+03  0.00000000000E+00 0. -1.
         22    1    3    3    0    0 -0.27145634326E+02  0.43903497668E+02  0.97665336026E+02  0.11046682955E+03  0.00000000000E+00 0. -1.
</event>
<event>
 7    1  0.6089676E-006  0.1131272E+03  0.7818608E-02  0.1325706E+00
          2   -1    0    0  502    0  0.00000000000E+00  0.00000000000E+00  0.33974339498E+03  0.33974339498E+03  0.00000000000E+00 0. -1.
          1   -1    0    0  501    0 -0.00000000000E+00 -0.00000000000E+00 -0.12370756046E+04  0.12370756046E+04  0.00000000000E+00 0. -1.
         25    2    1    2    0    0  0.62282746077E+02  0.15704062831E+02 -0.22144565217E+03  0.26227755696E+03  0.12500232787E+03 0.  0.
          2    1    1    2  501    0  0.34693101443E+02  0.46816385456E+02 -0.98390102655E+03  0.98562498714E+03  0.00000000000E+00 0. -1.
          1    1    1    2  502    0 -0.96975847520E+02 -0.62520448287E+02  0.30801446914E+03  0.32891645544E+03  0.00000000000E+00 0. -1.
         22    1    3    3    0    0 -0.19504531359E+02 -0.34375174925E+01 -0.15201493668E+03  0.15329965507E+03  0.00000000000E+00 0. -1.
         22    1    3    3    0    0  0.81787277437E+02  0.19141580323E+02 -0.69430715487E+02  0.10897790189E+03  0.00000000000E+00 0. -1.
</event>
<event>
 7    1  0.6089676E-006  0.1589858E+03  0.7818608E-02  0.1385502E+00
          2   -1    0    0  502    0  0.00000000000E+00  0.00000000000E+00  0.19846908805E+04  0.19846908805E+04  0.00000000000E+00 0. -1.
          1   -1    0    0  501    0 -0.00000000000E+00 -0.00000000000E+00 -0.99865356691E+02  0.99865356691E+02  0.00000000000E+00 0. -1.
         25    2    1    2    0    0 -0.11599231178E+03 -0.98224465984E+02  0.15868213585E+04  0.15989770589E+04  0.12499339473E+03 0.  0.
          2    1    1    2  501    0  0.10442026743E+03  0.12038012346E+03 -0.25262190624E+02  0.16134789943E+03  0.00000000000E+00 0. -1.
          1    1    1    2  502    0  0.11572044351E+02 -0.22155657479E+02  0.32326635592E+03  0.32423127893E+03  0.00000000000E+00 0. -1.
         22    1    3    3    0    0 -0.97238026601E+02 -0.12748124229E+03  0.13761606744E+04  0.13854691995E+04  0.00000000000E+00 0. -1.
         22    1    3    3    0    0 -0.18754285177E+02  0.29256776305E+02  0.21066068415E+03  0.21350785939E+03  0.00000000000E+00 0. -1.
</event>
<event>
 7    1  0.6089676E-006  0.1179374E+03  0.7818608E-02  0.1286941E+00
          2   -1    0    0  502    0  0.00000000000E+00  0.00000000000E+00  0.41397740597E+04  0.41397740597E+04  0.00000000000E+00 0. -1.
          1   -1    0    0  501    0 -0.00000000000E+00 -0.00000000000E+00 -0.68959897539E+02  0.68959897539E+02  0.00000000000E+00 0. -1.
         25    2    1    2    0    0  0.38569970429E+02  0.18989237939E+02  0.20270181527E+03  0.24199343053E+03  0.12499824291E+03 0.  0.
          2    1    1    2  501    0  0.78230474791E+02  0.14833797802E+02 -0.15588926348E+02  0.81136079323E+02  0.00000000000E+00 0. -1.
          1    1    1    2  502    0 -0.11680044522E+03 -0.33823035741E+02  0.38837012732E+04  0.38856044473E+04  0.00000000000E+00 0. -1.
         22    1    3    3    0    0 -0.26549421234E+02  0.51736479450E+02  0.10593302791E+03  0.12084428607E+03  0.00000000000E+00 0.  1.
         22    1    3    3    0    0  0.65119391663E+02 -0.32747241511E+02  0.96768787362E+02  0.12114914447E+03  0.00000000000E+00 0.  1.
</event>
<event>
 7    1  0.6089676E-006  0.4658023E+02  0.7818608E-02  0.1542486E+00
          2   -1    0    0  502    0  0.00000000000E+00  0.00000000000E+00  0.42725816991E+03  0.42725816991E+03  0.00000000000E+00 0. -1.
          1   -1    0    0  501    0 -0.00000000000E+00 -0.00000000000E+00 -0.11157805842E+04  0.11157805842E+04  0.00000000000E+00 0. -1.
         25    2    1    2    0    0  0.13193636645E+02  0.15830931606E+02 -0.14452875656E+02  0.12750695490E+03  0.12499778994E+03 0.  0.
          2    1    1    2  501    0 -0.20057718868E+02 -0.42314282938E+02 -0.10437702686E+04  0.10448201684E+04  0.00000000000E+00 0. -1.
          1    1    1    2  502    0  0.68640822231E+01  0.26483351332E+02  0.36970072996E+03  0.37071163086E+03  0.00000000000E+00 0. -1.
         22    1    3    3    0    0  0.61950609326E+02  0.76877037965E+01  0.21890107508E+02  0.66152517656E+02  0.00000000000E+00 0. -1.
         22    1    3    3    0    0 -0.48756972681E+02  0.81432278094E+01 -0.36342983164E+02  0.61354437243E+02  0.00000000000E+00 0. -1.
</event>
<event>
 7    1  0.6089676E-006  0.4935811E+02  0.7818608E-02  0.1453831E+00
          2   -1    0    0  502    0  0.00000000000E+00  0.00000000000E+00  0.20422782992E+04  0.20422782992E+04  0.00000000000E+00 0. -1.
          1   -1    0    0  501    0 -0.00000000000E+00 -0.00000000000E+00 -0.43313638005E+02  0.43313638005E+02  0.00000000000E+00 0. -1.
         25    2    1    2    0    0  0.11274945707E+02 -0.62963915619E+01  0.12080972782E+03  0.17431742898E+03  0.12499922705E+03 0.  0.
          2    1    1    2  501    0 -0.60298547977E+02  0.12033085163E+02  0.42014966909E+02  0.74471252648E+02  0.00000000000E+00 0. -1.
          1    1    1    2  502    0  0.49023602270E+02 -0.57366936016E+01  0.18361399664E+04  0.18368032555E+04  0.00000000000E+00 0. -1.
         22    1    3    3    0    0  0.27968891112E+02 -0.91419138266E+01  0.14322939404E+03  0.14622069886E+03  0.00000000000E+00 0.  1.
         22    1    3    3    0    0 -0.16693945405E+02  0.28455222648E+01 -0.22419666219E+02  0.28096730122E+02  0.00000000000E+00 0.  1.
</event>
<event>
 7    1  0.6089676E-006  0.6011565E+02  0.7818608E-02  0.1475164E+00
          2   -1    0    0  502    0  0.00000000000E+00  0.00000000000E+00  0.47773504100E+03  0.47773504100E+03  0.00000000000E+00 0. -1.
          1   -1    0    0  501    0 -0.00000000000E+00 -0.00000000000E+00 -0.33573358404E+03  0.33573358404E+03  0.00000000000E+00 0. -1.
         25    2    1    2    0    0  0.12064938599E+02  0.35806433519E+02  0.27261376523E+03  0.30227637093E+03  0.12500030403E+03 0.  0.
          2    1    1    2  501    0  0.11893598355E+02 -0.59204465672E+02 -0.31655224184E+03  0.32226068369E+03  0.00000000000E+00 0. -1.
          1    1    1    2  502    0 -0.23958536954E+02  0.23398032153E+02  0.18593993357E+03  0.18893157041E+03  0.00000000000E+00 0. -1.
         22    1    3    3    0    0  0.62162103846E+01 -0.21368806552E+02  0.22912584015E+03  0.23020407857E+03  0.00000000000E+00 0.  1.
         22    1    3    3    0    0  0.58487282148E+01  0.57175240071E+02  0.43487925076E+02  0.72072292362E+02  0.00000000000E+00 0.  1.
</event>
<event>
 7    1  0.6089676E-006  0.8859705E+02  0.7818608E-02  0.1330321E+00
          2   -1    0    0  502    0  0.00000000000E+00  0.00000000000E+00  0.14735826106E+04  0.14735826106E+04  0.00000000000E+00 0. -1.
          1   -1    0    0  501    0 -0.00000000000E+00 -0.00000000000E+00 -0.45410654931E+03  0.45410654931E+03  0.00000000000E+00 0. -1.
         25    2    1    2    0    0 -0.64285783995E+01  0.25321208366E+02  0.16412355022E+03  0.20795164519E+03  0.12499942715E+03 0.  0.
          2    1    1    2  501    0  0.71048949043E+02 -0.55769378559E+02 -0.42646808422E+03  0.43592797984E+03  0.00000000000E+00 0. -1.
          1    1    1    2  502    0 -0.64620370643E+02  0.30448170194E+02  0.12818205953E+04  0.12838095349E+04  0.00000000000E+00 0. -1.
         22    1    3    3    0    0 -0.41656806711E+02  0.72559549052E+01  0.16294712155E+03  0.16834400152E+03  0.00000000000E+00 0. -1.
         22    1    3    3    0    0  0.35228228312E+02  0.18065253461E+02  0.11764286721E+01  0.39607643669E+02  0.00000000000E+00 0. -1.
</event>
<event>
 7    1  0.6089676E-006  0.8274970E+02  0.7818608E-02  0.1358659E+00
          2   -1    0    0  502    0  0.00000000000E+00  0.00000000000E+00  0.51776878857E+03  0.51776878857E+03  0.00000000000E+00 0. -1.
          1   -1    0    0  501    0 -0.00000000000E+00 -0.00000000000E+00 -0.20453736874E+03  0.20453736874E+03  0.00000000000E+00 0. -1.
         25    2    1    2    0    0 -0.49354833021E+02 -0.10086895110E+03  0.78875001258E+01  0.16822001657E+03  0.12500126591E+03 0.  0.
          2    1    1    2  501    0  0.56787438490E+02  0.19162819898E+02 -0.11292648309E+03  0.12784528705E+03  0.00000000000E+00 0. -1.
          1    1    1    2  502    0 -0.74326054696E+01  0.81706131202E+02  0.41827040280E+03  0.42624085369E+03  0.00000000000E+00 0. -1.
         22    1    3    3    0    0 -0.29966405174E+02 -0.12972036021E+03  0.34921014746E+01  0.13318240148E+03  0.00000000000E+00 0.  1.
         22    1    3    3    0    0 -0.19388427847E+02  0.28851409109E+02  0.43953986512E+01  0.35037615091E+02  0.00000000000E+00 0.  1.
</event>
<event>
 7    1  0.6089676E-006  0.1179069E+03  0.7818608E-02  0.1329800E+00
          2   -1    0    0  502    0  0.00000000000E+00  0.00000000000E+00  0.28642588531E+04  0.28642588531E+04  0.00000000000E+00 0. -1.
          1   -1    0    0  501    0 -0.00000000000E+00 -0.00000000000E+00 -0.98321268147E+03  0.98321268147E+03  0.00000000000E+00 0. -1.
         25    2    1    2    0    0  0.11938986030E+03  0.14109341724E+02  0.87602192141E+02  0.19429920677E+03  0.12500010167E+03 0.  0.
          2    1    1    2  501    0 -0.79517964317E+01 -0.53334165830E+02 -0.92779969864E+03  0.92936539913E+03  0.00000000000E+00 0. -1.
          1    1    1    2  502    0 -0.11143806387E+03  0.39224824106E+02  0.27212436781E+04  0.27238069286E+04  0.00000000000E+00 0. -1.
         22    1    3    3    0    0  0.90792933111E+02  0.63994546059E+02  0.35255928296E+02  0.11654028963E+03  0.00000000000E+00 0.  1.
         22    1    3    3    0    0  0.28596927192E+02 -0.49885204334E+02  0.52346263844E+02  0.77758917140E+02  0.00000000000E+00 0.  1.
</event>
<event>
 7    1  0.6089676E-006  0.1114575E+03  0.7818608E-02  0.1404469E+00
          2   -1    0    0  502    0  0.00000000000E+00  0.00000000000E+00  0.21587570680E+03  0.21587570680E+03  0.00000000000E+00 0. -1.
          1   -1    0    0  501    0 -0.00000000000E+00 -0.00000000000E+00 -0.24051802167E+03  0.24051802167E+03  0.00000000000E+00 0. -1.
         25    2    1    2    0    0  0.63587382539E+02 -0.80732976791E+02 -0.26620153855E+02  0.16399738552E+03  0.12500136442E+03 0.  0.
          2    1    1    2  501    0  0.27981798904E+02  0.12504054303E+02 -0.12085595977E+03  0.12468157625E+03  0.00000000000E+00 0. -1.
          1    1    1    2  502    0 -0.91569181443E+02  0.68228922488E+02  0.12283379875E+03  0.16771476670E+03  0.00000000000E+00 0. -1.
         22    1    3    3    0    0  0.73290131657E+02 -0.61005063141E+02  0.32641223500E+02  0.10078943694E+03  0.00000000000E+00 0. -1.
         22    1    3    3    0    0 -0.97027491179E+01 -0.19727913651E+02 -0.59261377355E+02  0.63207948578E+02  0.00000000000E+00 0. -1.
</event>
<event>
 7    1  0.6089676E-006  0.7228932E+02  0.7818608E-02  0.1430024E+00
          2   -1    0    0  502    0  0.00000000000E+00  0.00000000000E+00  0.30878277049E+03  0.30878277049E+03  0.00000000000E+00 0. -1.
          1   -1    0    0  501    0 -0.00000000000E+00 -0.00000000000E+00 -0.73227017220E+03  0.73227017220E+03  0.00000000000E+00 0. -1.
         25    2    1    2    0    0 -0.57846594307E+02  0.18911801828E+02  0.78509866367E+02  0.15966956888E+03  0.12500674937E+03 0.  0.
          2    1    1    2  501    0  0.46302867438E+02 -0.55946364862E+02 -0.68777518560E+03  0.69159862435E+03  0.00000000000E+00 0. -1.
          1    1    1    2  502    0  0.11543726870E+02  0.37034563034E+02  0.18577791752E+03  0.18978474946E+03  0.00000000000E+00 0. -1.
         22    1    3    3    0    0  0.39800144885E+02  0.95114241182E+01  0.24195146940E+02  0.47538656450E+02  0.00000000000E+00 0.  1.
         22    1    3    3    0    0 -0.97646739193E+02  0.94003777094E+01  0.54314719427E+02  0.11213091243E+03  0.00000000000E+00 0.  1.
</event>
<event>
 7    1  0.6089676E-006  0.8139696E+02  0.7818608E-02  0.1432357E+00
          2   -1    0    0  502    0  0.00000000000E+00  0.00000000000E+00  0.97437765432E+03  0.97437765432E+03  0.00000000000E+00 0. -1.
          1   -1    0    0  501    0 -0.00000000000E+00 -0.00000000000E+00 -0.15229843544E+03  0.15229843544E+03  0.00000000000E+00 0. -1.
         25    2    1    2    0    0 -0.35093063824E+02  0.99502351561E+02 -0.38699581777E+02  0.16808971741E+03  0.12499701746E+03 0.  0.
          2    1    1    2  501    0 -0.10163373335E+02 -0.32286886659E+02 -0.41004076865E+02  0.53170212782E+02  0.00000000000E+00 0. -1.
          1    1    1    2  502    0  0.45256437159E+02 -0.67215464902E+02  0.90178287752E+03  0.90541615958E+03  0.00000000000E+00 0. -1.
         22    1    3    3    0    0  0.23288054136E+02  0.58651148721E+02  0.29317757368E+02  0.69583199185E+02  0.00000000000E+00 0. -1.
         22    1    3    3    0    0 -0.58381117961E+02  0.40851202840E+02 -0.68017339145E+02  0.98506518222E+02  0.00000000000E+00 0. -1.
</event>
<event>
 7    1  0.6089676E-006  0.4183053E+02  0.7818608E-02  0.1520380E+00
          2   -1    0    0  502    0  0.00000000000E+00  0.00000000000E+00  0.29824226868E+02  0.29824226868E+02  0.00000000000E+00 0. -1.
          1   -1    0    0  501    0 -0.00000000000E+00 -0.00000000000E+00 -0.19837443320E+04  0.19837443320E+04  0.00000000000E+00 0. -1.
         25    2    1    2    0    0  0.12229860710E+02  0.70527094187E+02 -0.89323782241E+03  0.90477719758E+03  0.12499731743E+03 0.  0.
          2    1    1    2  501    0 -0.18880511342E+02 -0.29753407487E+02 -0.10664905327E+04  0.10670725352E+04  0.00000000000E+00 0. -1.
          1    1    1    2  502    0  0.66506506315E+01 -0.40773686700E+02  0.58082500262E+01  0.41718826078E+02  0.00000000000E+00 0. -1.
         22    1    3    3    0    0  0.49731736444E+02 -0.33868250038E+01 -0.18118590590E+03  0.18791766466E+03  0.00000000000E+00 0.  1.
         22    1    3    3    0    0 -0.37501875733E+02  0.73913919190E+02 -0.71205191651E+03  0.71685953292E+03  0.00000000000E+00 0.  1.
</event>
<event>
 7    1  0.6089676E-006  0.1374537E+03  0.7818608E-02  0.1412723E+00
          2   -1    0    0  502    0  0.00000000000E+00  0.00000000000E+00  0.17521582800E+03  0.17521582800E+03  0.00000000000E+00 0. -1.
          1   -1    0    0  501    0 -0.00000000000E+00 -0.00000000000E+00 -0.26865444228E+03  0.26865444228E+03  0.00000000000E+00 0. -1.
         25    2    1    2    0    0  0.16596888290E+02  0.12670404287E+03  0.14088843356E+02  0.17931220138E+03  0.12499999551E+03 0.  0.
          2    1    1    2  501    0  0.22321580418E+01 -0.14042622385E+03 -0.15652912034E+03  0.21029948262E+03  0.00000000000E+00 0. -1.
          1    1    1    2  502    0 -0.18829046332E+02  0.13722180979E+02  0.49001662711E+02  0.54258586279E+02  0.00000000000E+00 0. -1.
         22    1    3    3    0    0  0.57003096135E+02  0.12284319428E+03  0.23987142671E+02  0.13753249203E+03  0.00000000000E+00 0. -1.
         22    1    3    3    0    0 -0.40406207845E+02  0.38608485887E+01 -0.98982993150E+01  0.41779709352E+02  0.00000000000E+00 0. -1.
</event>
<event>
 7    1  0.6089676E-006  0.3122535E+02  0.7818608E-02  0.1594696E+00
          2   -1    0    0  502    0  0.00000000000E+00  0.00000000000E+00  0.29100745534E+03  0.29100745534E+03  0.00000000000E+00 0. -1.
          1   -1    0    0  501    0 -0.00000000000E+00 -0.00000000000E+00 -0.24753141254E+03  0.24753141254E+03  0.00000000000E+00 0. -1.
         25    2    1    2    0    0 -0.12719673747E+02  0.10714185661E+02  0.16644673350E+03  0.20882199016E+03  0.12500209841E+03 0.  0.
          2    1    1    2  501    0  0.27791887385E+02  0.14551624258E+02 -0.22313085003E+03  0.22532535367E+03  0.00000000000E+00 0. -1.
          1    1    1    2  502    0 -0.15072213638E+02 -0.25265809919E+02  0.10016015934E+03  0.10439152405E+03  0.00000000000E+00 0. -1.
         22    1    3    3    0    0 -0.52456169091E+01  0.58394799599E+02  0.14422983263E+03  0.15569108432E+03  0.00000000000E+00 0. -1.
         22    1    3    3    0    0 -0.74740568375E+01 -0.47680613938E+02  0.22216900872E+02  0.53130905840E+02  0.00000000000E+00 0. -1.
</event>
<event>
 7    1  0.6089676E-006  0.4200942E+02  0.7818608E-02  0.1527971E+00
          2   -1    0    0  502    0  0.00000000000E+00  0.00000000000E+00  0.29647234208E+03  0.29647234208E+03  0.00000000000E+00 0. -1.
          1   -1    0    0  501    0 -0.00000000000E+00 -0.00000000000E+00 -0.90824262562E+02  0.90824262562E+02  0.00000000000E+00 0. -1.
         25    2    1    2    0    0 -0.29850429649E+01 -0.45804527042E+02  0.13224274061E+03  0.18767376316E+03  0.12500533491E+03 0.  0.
          2    1    1    2  501    0 -0.27507651526E+02  0.32270657288E+02 -0.53579495741E+02  0.68328826846E+02  0.00000000000E+00 0. -1.
          1    1    1    2  502    0  0.30492694491E+02  0.13533869753E+02  0.12698483464E+03  0.13129401463E+03  0.00000000000E+00 0. -1.
         22    1    3    3    0    0  0.19332104561E+02  0.91513470156E+01  0.12625946398E+03  0.12805830572E+03  0.00000000000E+00 0. -1.
         22    1    3    3    0    0 -0.22317147526E+02 -0.54955874057E+02  0.59832766318E+01  0.59615457445E+02  0.00000000000E+00 0. -1.
</event>
<event>
 7    1  0.6089676E-006  0.6234345E+02  0.7818608E-02  0.1390621E+00
          2   -1    0    0  502    0  0.00000000000E+00  0.00000000000E+00  0.13025899724E+04  0.13025899724E+04  0.00000000000E+00 0. -1.
          1   -1    0    0  501    0 -0.00000000000E+00 -0.00000000000E+00 -0.23511771148E+02  0.23511771148E+02  0.00000000000E+00 0. -1.
         25    2    1    2    0    0  0.64327263245E+01 -0.28791656491E+02  0.38431412691E+03  0.40520768610E+03  0.12500232512E+03 0.  0.
          2    1    1    2  501    0  0.50705632733E+02  0.53729843991E+02  0.10341456896E+03  0.12709260561E+03  0.00000000000E+00 0. -1.
          1    1    1    2  502    0 -0.57138359057E+02 -0.24938187500E+02  0.79134950543E+03  0.79380145188E+03  0.00000000000E+00 0. -1.
         22    1    3    3    0    0  0.24722870369E+02 -0.53755871797E+02  0.36261582842E+03  0.36741142210E+03  0.00000000000E+00 0. -1.
         22    1    3    3    0    0 -0.18290144044E+02  0.24964215306E+02  0.21698298486E+02  0.37796263998E+02  0.00000000000E+00 0. -1.
</event>
<event>
 7    1  0.6089676E-006  0.6073369E+02  0.7818608E-02  0.1425492E+00
          2   -1    0    0  502    0  0.00000000000E+00  0.00000000000E+00  0.99311145577E+03  0.99311145577E+03  0.00000000000E+00 0. -1.
          1   -1    0    0  501    0 -0.00000000000E+00 -0.00000000000E+00 -0.93712444716E+03  0.93712444716E+03  0.00000000000E+00 0. -1.
         25    2    1    2    0    0  0.14847788313E+02 -0.13864664170E+02  0.15633789195E+03  0.20120123824E+03  0.12501086385E+03 0.  0.
          2    1    1    2  501    0 -0.60977687327E+02  0.13699936201E+01 -0.91297313283E+03  0.91500824942E+03  0.00000000000E+00 0. -1.
          1    1    1    2  502    0  0.46129899014E+02  0.12494670549E+02  0.81262224950E+03  0.81402641527E+03  0.00000000000E+00 0. -1.
         22    1    3    3    0    0 -0.49935857524E+02 -0.29540742641E+02  0.90592585478E+02  0.10757909595E+03  0.00000000000E+00 0. -1.
         22    1    3    3    0    0  0.64783645836E+02  0.15676078471E+02  0.65745306468E+02  0.93622142288E+02  0.00000000000E+00 0. -1.
</event>
<event>
 7    1  0.6089676E-006  0.1310181E+03  0.7818608E-02  0.1349237E+00
          2   -1    0    0  502    0  0.00000000000E+00  0.00000000000E+00  0.91178348634E+03  0.91178348634E+03  0.00000000000E+00 0. -1.
          1   -1    0    0  501    0 -0.00000000000E+00 -0.00000000000E+00 -0.68683383127E+03  0.68683383127E+03  0.00000000000E+00 0. -1.
         25    2    1    2    0    0 -0.83186456836E+02  0.75231630493E+02 -0.16442627708E+03  0.23503389190E+03  0.12500057968E+03 0.  0.
          2    1    1    2  501    0  0.74173481035E+02 -0.11523088791E+03 -0.47697074781E+03  0.49626702196E+03  0.00000000000E+00 0. -1.
          1    1    1    2  502    0  0.90129758007E+01  0.39999257422E+02  0.86634667996E+03  0.86731640374E+03  0.00000000000E+00 0. -1.
         22    1    3    3    0    0 -0.11281906001E+03  0.38611588061E+02 -0.13176994181E+03  0.17771413168E+03  0.00000000000E+00 0.  1.
         22    1    3    3    0    0  0.29632603173E+02  0.36620042432E+02 -0.32656335267E+02  0.57319760220E+02  0.00000000000E+00 0.  1.
</event>
<event>
 7    1  0.6089676E-006  0.5437886E+02  0.7818608E-02  0.1441790E+00
          2   -1    0    0  502    0  0.00000000000E+00  0.00000000000E+00  0.96135090099E+03  0.96135090099E+03  0.00000000000E+00 0. -1.
          1   -1    0    0  501    0 -0.00000000000E+00 -0.00000000000E+00 -0.11129030918E+03  0.11129030918E+03  0.00000000000E+00 0. -1.
         25    2    1    2    0    0  0.35833063194E+02 -0.45119867657E+02  0.18754280996E+03  0.23263106958E+03  0.12500039236E+03 0.  0.
          2    1    1    2  501    0 -0.55008683210E+02  0.19864271606E+01 -0.79388046860E+02  0.96604156772E+02  0.00000000000E+00 0. -1.
          1    1    1    2  502    0  0.19175620016E+02  0.43133440497E+02  0.74190582872E+03  0.74340598382E+03  0.00000000000E+00 0. -1.
         22    1    3    3    0    0 -0.14668697526E+02  0.16321230972E+02  0.13622083419E+03  0.13797705945E+03  0.00000000000E+00 0.  1.
         22    1    3    3    0    0  0.50501760720E+02 -0.61441098629E+02  0.51321975771E+02  0.94654010130E+02  0.00000000000E+00 0.  1.
</event>
<event>
 7    1  0.6089676E-006  0.8876559E+02  0.7818608E-02  0.1407925E+00
          2   -1    0    0  502    0  0.00000000000E+00  0.00000000000E+00  0.74394439104E+03  0.74394439104E+03  0.00000000000E+00 0. -1.
          1   -1    0    0  501    0 -0.00000000000E+00 -0.00000000000E+00 -0.62295612745E+03  0.62295612745E+03  0.00000000000E+00 0. -1.
         25    2    1    2    0    0 -0.27268008996E+02 -0.12060854497E+03  0.58992886445E+03  0.61557368876E+03  0.12499974300E+03 0.  0.
          2    1    1    2  501    0  0.30216887299E+02  0.83270929718E+02 -0.60436299121E+03  0.61082054088E+03  0.00000000000E+00 0. -1.
          1    1    1    2  502    0 -0.29488783033E+01  0.37337615249E+02  0.13542239036E+03  0.14050628885E+03  0.00000000000E+00 0. -1.
         22    1    3    3    0    0 -0.52009642005E+02 -0.68284720845E+02  0.50836540648E+03  0.51556104630E+03  0.00000000000E+00 0. -1.
         22    1    3    3    0    0  0.24741633009E+02 -0.52323824122E+02  0.81563457968E+02  0.10001264245E+03  0.00000000000E+00 0. -1.
</event>
<event>
 7    1  0.6089676E-006  0.6180581E+02  0.7818608E-02  0.1412994E+00
          2   -1    0    0  502    0  0.00000000000E+00  0.00000000000E+00  0.15662371108E+03  0.15662371108E+03  0.00000000000E+00 0. -1.
          1   -1    0    0  501    0 -0.00000000000E+00 -0.00000000000E+00 -0.34991496878E+03  0.34991496878E+03  0.00000000000E+00 0. -1.
         25    2    1    2    0    0 -0.80594589444E+02 -0.83201973523E+01 -0.79833554962E+02  0.16902584913E+03  0.12502650777E+03 0.  0.
          2    1    1    2  501    0  0.43117518845E+02  0.43943788302E+02 -0.21495840460E+03  0.22360074389E+03  0.00000000000E+00 0. -1.
          1    1    1    2  502    0  0.37477070599E+02 -0.35623590950E+02  0.10150070185E+03  0.11391208684E+03  0.00000000000E+00 0. -1.
         22    1    3    3    0    0 -0.40097535021E+02 -0.23529107123E+02  0.27002597351E+02  0.53764035009E+02  0.00000000000E+00 0.  1.
         22    1    3    3    0    0 -0.40497054423E+02  0.15208909771E+02 -0.10683615231E+03  0.11526181412E+03  0.00000000000E+00 0.  1.
</event>
<event>
 7    1  0.6089676E-006  0.9162164E+02  0.7818608E-02  0.1432077E+00
          2   -1    0    0  502    0  0.00000000000E+00  0.00000000000E+00  0.21630882242E+03  0.21630882242E+03  0.00000000000E+00 0. -1.
          1   -1    0    0  501    0 -0.00000000000E+00 -0.00000000000E+00 -0.71870378979E+03  0.71870378979E+03  0.00000000000E+00 0. -1.
         25    2    1    2    0    0  0.10112607069E+03  0.36538916487E+02 -0.12260327159E+03  0.20547100121E+03  0.12500078217E+03 0.  0.
          2    1    1    2  501    0 -0.74708481659E+02 -0.51038061064E+02 -0.54964181343E+03  0.55703892502E+03  0.00000000000E+00 0. -1.
          1    1    1    2  502    0 -0.26417589032E+02  0.14499144576E+02  0.16985011765E+03  0.17250268598E+03  0.00000000000E+00 0. -1.
         22    1    3    3    0    0  0.97000489583E+02  0.29484674033E+02 -0.14766059465E+03  0.17911474589E+03  0.00000000000E+00 0. -1.
         22    1    3    3    0    0  0.41255811082E+01  0.70542424548E+01  0.25057323057E+02  0.26356255328E+02  0.00000000000E+00 0. -1.
</event>
<event>
 7    1  0.6089676E-006  0.7941327E+02  0.7818608E-02  0.1359882E+00
          2   -1    0    0  502    0  0.00000000000E+00  0.00000000000E+00  0.25428058718E+04  0.25428058718E+04  0.00000000000E+00 0. -1.
          1   -1    0    0  501    0 -0.00000000000E+00 -0.00000000000E+00 -0.10574624440E+03  0.10574624440E+03  0.00000000000E+00 0. -1.
         25    2    1    2    0    0 -0.26103117861E+02  0.99285775798E+02  0.40570561755E+03  0.43676161195E+03  0.12499847810E+03 0.  0.
          2    1    1    2  501    0 -0.30011372998E+02 -0.73364475655E+02 -0.72265587195E+02  0.10726296607E+03  0.00000000000E+00 0. -1.
          1    1    1    2  502    0  0.56114490859E+02 -0.25921300143E+02  0.21036195971E+04  0.21045275382E+04  0.00000000000E+00 0. -1.
         22    1    3    3    0    0 -0.74619708922E+02  0.40000981330E+02  0.22972486830E+03  0.24482992992E+03  0.00000000000E+00 0. -1.
         22    1    3    3    0    0  0.48516591061E+02  0.59284794468E+02  0.17598074925E+03  0.19193168204E+03  0.00000000000E+00 0. -1.
</event>
<event>
 7    1  0.6089676E-006  0.5917127E+02  0.7818608E-02  0.1421341E+00
          2   -1    0    0  502    0  0.00000000000E+00  0.00000000000E+00  0.36372158454E+03  0.36372158454E+03  0.00000000000E+00 0. -1.
          1   -1    0    0  501    0 -0.00000000000E+00 -0.00000000000E+00 -0.15744937623E+04  0.15744937623E+04  0.00000000000E+00 0. -1.
         25    2    1    2    0    0 -0.45922766952E+02 -0.96995446774E+02 -0.19570335589E+03  0.25581645225E+03  0.12500094606E+03 0.  0.
          2    1    1    2  501    0  0.16455077386E+02  0.55815458331E+02 -0.13461804942E+04  0.13474375897E+04  0.00000000000E+00 0. -1.
          1    1    1    2  502    0  0.29467689565E+02  0.41179988443E+02  0.33111167240E+03  0.33496130490E+03  0.00000000000E+00 0. -1.
         22    1    3    3    0    0  0.17178881354E+02 -0.75765199528E+02 -0.16525820436E+03  0.18260819678E+03  0.00000000000E+00 0.  1.
         22    1    3    3    0    0 -0.63101648305E+02 -0.21230247247E+02 -0.30445151528E+02  0.73208255467E+02  0.00000000000E+00 0.  1.
</event>
<event>
 7    1  0.6089676E-006  0.9726971E+02  0.7818608E-02  0.1303711E+00
          2   -1    0    0  502    0  0.00000000000E+00  0.00000000000E+00  0.32014749608E+04  0.32014749608E+04  0.00000000000E+00 0. -1.
          1   -1    0    0  501    0 -0.00000000000E+00 -0.00000000000E+00 -0.51249200508E+03  0.51249200508E+03  0.00000000000E+00 0. -1.
         25    2    1    2    0    0 -0.68126151315E+01  0.11574040399E+03  0.62149265838E+03  0.64445279088E+03  0.12499608958E+03 0.  0.
          2    1    1    2  501    0  0.72243071906E+02 -0.65293579422E+02 -0.49560843852E+03  0.50508418832E+03  0.00000000000E+00 0. -1.
          1    1    1    2  502    0 -0.65430456775E+02 -0.50446824568E+02  0.25630987359E+04  0.25644299867E+04  0.00000000000E+00 0. -1.
         22    1    3    3    0    0 -0.36895312980E+02  0.10305482141E+03  0.58637206731E+03  0.59650126710E+03  0.00000000000E+00 0. -1.
         22    1    3    3    0    0  0.30082697848E+02  0.12685582584E+02  0.35120591074E+02  0.47951523779E+02  0.00000000000E+00 0. -1.
</event>
<event>
 7    1  0.6089676E-006  0.3266960E+02  0.7818608E-02  0.1603063E+00
          2   -1    0    0  502    0  0.00000000000E+00  0.00000000000E+00  0.93428743102E+02  0.93428743102E+02  0.00000000000E+00 0. -1.
          1   -1    0    0  501    0 -0.00000000000E+00 -0.00000000000E+00 -0.33853339735E+03  0.33853339735E+03  0.00000000000E+00 0. -1.
         25    2    1    2    0    0 -0.12903892683E+02 -0.56639095897E+02 -0.14870643700E+03  0.20276382123E+03  0.12500026066E+03 0.  0.
          2    1    1    2  501    0  0.12765430316E+01  0.26706342083E+02 -0.15772389730E+03  0.15997401680E+03  0.00000000000E+00 0. -1.
          1    1    1    2  502    0  0.11627349651E+02  0.29932753814E+02  0.61325680057E+02  0.69224302418E+02  0.00000000000E+00 0. -1.
         22    1    3    3    0    0 -0.42166473643E+02 -0.75983566590E+02 -0.55338102861E+02  0.10302339307E+03  0.00000000000E+00 0. -1.
         22    1    3    3    0    0  0.29262580960E+02  0.19344470692E+02 -0.93368334139E+02  0.99740428166E+02  0.00000000000E+00 0. -1.
</event>
<event>
 7    1  0.6089676E-006  0.1414986E+03  0.7818608E-02  0.1341785E+00
          2   -1    0    0  502    0  0.00000000000E+00  0.00000000000E+00  0.81679701056E+02  0.81679701056E+02  0.00000000000E+00 0. -1.
          1   -1    0    0  501    0 -0.00000000000E+00 -0.00000000000E+00 -0.86367424078E+03  0.86367424078E+03  0.00000000000E+00 0. -1.
         25    2    1    2    0    0  0.86777111017E+02 -0.68506581812E+02 -0.80702938798E+02  0.18536798165E+03  0.12499962218E+03 0.  0.
          2    1    1    2  501    0 -0.99576777901E+02  0.10690421418E+03 -0.70440092511E+03  0.71939190223E+03  0.00000000000E+00 0. -1.
          1    1    1    2  502    0  0.12799666885E+02 -0.38397632365E+02  0.31093241849E+01  0.40594057946E+02  0.00000000000E+00 0. -1.
         22    1    3    3    0    0  0.11603915524E+03 -0.61172546276E+02 -0.45121956997E+02  0.13871970650E+03  0.00000000000E+00 0. -1.
         22    1    3    3    0    0 -0.29262044224E+02 -0.73340355355E+01 -0.35580981801E+02  0.46648275159E+02  0.00000000000E+00 0. -1.
</event>
<event>
 7    1  0.6089676E-006  0.1398779E+03  0.7818608E-02  0.1231464E+00
          2   -1    0    0  502    0  0.00000000000E+00  0.00000000000E+00  0.29853786975E+03  0.29853786975E+03  0.00000000000E+00 0. -1.
          1   -1    0    0  501    0 -0.00000000000E+00 -0.00000000000E+00 -0.33569122802E+03  0.33569122802E+03  0.00000000000E+00 0. -1.
         25    2    1    2    0    0  0.42880578104E+02  0.14357554965E+03 -0.79618601772E+02  0.21075534016E+03  0.12500403681E+03 0.  0.
          2    1    1    2  501    0 -0.11458407703E+03 -0.17529343175E+02 -0.14552639016E+03  0.18605031259E+03  0.00000000000E+00 0. -1.
          1    1    1    2  502    0  0.71703498921E+02 -0.12604620648E+03  0.18799163366E+03  0.23742344503E+03  0.00000000000E+00 0. -1.
         22    1    3    3    0    0  0.56611479326E+02  0.15952683131E+03 -0.84435567088E+02  0.18916404122E+03  0.00000000000E+00 0.  1.
         22    1    3    3    0    0 -0.13730901222E+02 -0.15951281660E+02  0.48169653160E+01  0.21591298938E+02  0.00000000000E+00 0.  1.
</event>
<event>
 7    1  0.6089676E-006  0.1152166E+03  0.7818608E-02  0.1342617E+00
          2   -1    0    0  502    0  0.00000000000E+00  0.00000000000E+00  0.30180098828E+04  0.30180098828E+04  0.00000000000E+00 0. -1.
          1   -1    0    0  501    0 -0.00000000000E+00 -0.00000000000E+00 -0.14490538653E+03  0.14490538653E+03  0.00000000000E+00 0. -1.
         25    2    1    2    0    0 -0.13130161634E+03 -0.33681451466E+02  0.13256084612E+04  0.13383711255E+04  0.12499969112E+03 0.  0.
          2    1    1    2  501    0  0.39722754471E+02 -0.29286039699E+02 -0.13223310762E+03  0.14114235401E+03  0.00000000000E+00 0. -1.
          1    1    1    2  502    0  0.91578861869E+02  0.62967491165E+02  0.16797291427E+04  0.16834017897E+04  0.00000000000E+00 0. -1.
         22    1    3    3    0    0 -0.12178194349E+03  0.10929276659E+02  0.66202119665E+03  0.67321791097E+03  0.00000000000E+00 0. -1.
         22    1    3    3    0    0 -0.95196728537E+01 -0.44610728125E+02  0.66358726451E+03  0.66515321457E+03  0.00000000000E+00 0. -1.
</event>
<event>
 7    1  0.6089676E-006  0.6131129E+02  0.7818608E-02  0.1503803E+00
          2   -1    0    0  502    0  0.00000000000E+00  0.00000000000E+00  0.15967930732E+04  0.15967930732E+04  0.00000000000E+00 0. -1.
          1   -1    0    0  501    0 -0.00000000000E+00 -0.00000000000E+00 -0.71255629803E+03  0.71255629803E+03  0.00000000000E+00 0. -1.
         25    2    1    2    0    0 -0.37852312984E+02 -0.52922787620E+02  0.60839915764E+03  0.62450610569E+03  0.12499888792E+03 0.  0.
          2    1    1    2  501    0  0.11946833381E+02  0.60140519165E+02 -0.70298366426E+03  0.70565263486E+03  0.00000000000E+00 0. -1.
          1    1    1    2  502    0  0.25905479602E+02 -0.72177315446E+01  0.97882128181E+03  0.97919063069E+03  0.00000000000E+00 0. -1.
         22    1    3    3    0    0 -0.62378115556E+02 -0.81051745646E+02  0.40520880754E+03  0.41791696840E+03  0.00000000000E+00 0.  1.
         22    1    3    3    0    0  0.24525802572E+02  0.28128958026E+02  0.20319035010E+03  0.20658913729E+03  0.00000000000E+00 0.  1.
</event>
<event>
 7    1  0.9889454E-006  0.7609608E+02  0.7818608E-02  0.1413400E+00
          2   -1    0    0  502    0  0.00000000000E+00  0.00000000000E+00  0.22162586068E+04  0.22162586068E+04  0.00000000000E+00 0. -1.
          1   -1    0    0  501    0 -0.00000000000E+00 -0.00000000000E+00 -0.57241956781E+03  0.57241956781E+03  0.00000000000E+00 0. -1.
         25    2    1    2    0    0  0.44255595862E+02  0.38155479594E+02 -0.11648271038E+03  0.18057370597E+03  0.12499697229E+03 0.  0.
          2    1    1    2  501    0 -0.22939094490E+02  0.35020175276E+02 -0.42219088078E+03  0.42426142242E+03  0.00000000000E+00 0. -1.
          1    1    1    2  502    0 -0.21316501372E+02 -0.73175654870E+02  0.21825126302E+04  0.21838430462E+04  0.00000000000E+00 0. -1.
         22    1    3    3    0    0  0.72943077224E+01  0.78050594934E+02 -0.92180710766E+02  0.12100572603E+03  0.00000000000E+00 0.  1.
         22    1    3    3    0    0  0.36961288140E+02 -0.39895115341E+02 -0.24301999618E+02  0.59567979942E+02  0.00000000000E+00 0.  1.
</event>
<event>
 7    1  0.6089676E-006  0.6713162E+02  0.7818608E-02  0.1405614E+00
          2   -1    0    0  502    0  0.00000000000E+00  0.00000000000E+00  0.40753106844E+02  0.40753106844E+02  0.00000000000E+00 0. -1.
          1   -1    0    0  501    0 -0.00000000000E+00 -0.00000000000E+00 -0.13265143925E+04  0.13265143925E+04  0.00000000000E+00 0. -1.
         25    2    1    2    0    0  0.10244328643E+03 -0.43864981420E+02 -0.62985253493E+03  0.65173476113E+03  0.12500087831E+03 0.  0.
          2    1    1    2  501    0 -0.50103404842E+02  0.57239501488E+01 -0.64837519557E+03  0.65033338297E+03  0.00000000000E+00 0. -1.
          1    1    1    2  502    0 -0.52339881583E+02  0.38141031271E+02 -0.75335551583E+01  0.65199355242E+02  0.00000000000E+00 0. -1.
         22    1    3    3    0    0  0.91218284604E+02  0.22110485369E+02 -0.45349418363E+03  0.46310541305E+03  0.00000000000E+00 0.  1.
         22    1    3    3    0    0  0.11225001821E+02 -0.65975466789E+02 -0.17635835130E+03  0.18862934808E+03  0.00000000000E+00 0.  1.
</event>
<event>
 7    1  0.6089676E-006  0.3726778E+02  0.7818608E-02  0.1562689E+00
          2   -1    0    0  502    0  0.00000000000E+00  0.00000000000E+00  0.23514120673E+03  0.23514120673E+03  0.00000000000E+00 0. -1.
          1   -1    0    0  501    0 -0.00000000000E+00 -0.00000000000E+00 -0.22027718266E+03  0.22027718266E+03  0.00000000000E+00 0. -1.
         25    2    1    2    0    0 -0.63994851369E+02 -0.12067642424E+01  0.69145926772E+01  0.14060141945E+03  0.12499660107E+03 0.  0.
          2    1    1    2  501    0  0.28817338024E+02 -0.85064521576E+01 -0.14986019022E+03  0.15284264886E+03  0.00000000000E+00 0. -1.
          1    1    1    2  502    0  0.35177513344E+02  0.97132164001E+01  0.15780962161E+03  0.16197432108E+03  0.00000000000E+00 0. -1.
         22    1    3    3    0    0 -0.79316777246E+02 -0.43251779648E+02 -0.13622041637E+02  0.91364257857E+02  0.00000000000E+00 0.  1.
         22    1    3    3    0    0  0.15321925878E+02  0.42045015406E+02  0.20536634314E+02  0.49237161596E+02  0.00000000000E+00 0.  1.
</event>
<event>
 7    1  0.6089676E-006  0.3103173E+03  0.7818608E-02  0.1284096E+00
          2   -1    0    0  502    0  0.00000000000E+00  0.00000000000E+00  0.16770234018E+04  0.16770234018E+04  0.00000000000E+00 0. -1.
          1   -1    0    0  501    0 -0.00000000000E+00 -0.00000000000E+00 -0.38536297389E+03  0.38536297389E+03  0.00000000000E+00 0. -1.
         25    2    1    2    0    0 -0.26214942717E+03 -0.11174837712E+03  0.32780259804E+03  0.45198349477E+03  0.12499805724E+03 0.  0.
          2    1    1    2  501    0  0.28724450909E+03  0.13009213971E+03 -0.24612947146E+03  0.40001636159E+03  0.00000000000E+00 0. -1.
          1    1    1    2  502    0 -0.25095081922E+02 -0.18343762587E+02  0.12099873013E+04  0.12103865193E+04  0.00000000000E+00 0. -1.
         22    1    3    3    0    0 -0.10268065001E+03  0.55672607109E+01  0.60355248623E+02  0.11923534004E+03  0.00000000000E+00 0.  1.
         22    1    3    3    0    0 -0.15946877715E+03 -0.11731563783E+03  0.26744734941E+03  0.33274815473E+03  0.00000000000E+00 0.  1.
</event>
<event>
 7    1  0.6089676E-006  0.5410302E+02  0.7818608E-02  0.1531316E+00
          2   -1    0    0  502    0  0.00000000000E+00  0.00000000000E+00  0.10468692150E+03  0.10468692150E+03  0.00000000000E+00 0. -1.
          1   -1    0    0  501    0 -0.00000000000E+00 -0.00000000000E+00 -0.26066062551E+03  0.26066062551E+03  0.00000000000E+00 0. -1.
         25    2    1    2    0    0 -0.28939452878E+02 -0.37518456414E+02 -0.14093499850E+03  0.19424396233E+03  0.12499166610E+03 0.  0.
          2    1    1    2  501    0  0.12041081030E+02  0.56399049899E+02 -0.81577480330E+02  0.99903582313E+02  0.00000000000E+00 0. -1.
          1    1    1    2  502    0  0.16898371848E+02 -0.18880593485E+02  0.66538774822E+02  0.71200002362E+02  0.00000000000E+00 0. -1.
         22    1    3    3    0    0 -0.27102595203E+02 -0.50600069422E+02 -0.49451220273E+01  0.57613990697E+02  0.00000000000E+00 0.  1.
         22    1    3    3    0    0 -0.18368576749E+01  0.13081613007E+02 -0.13598987647E+03  0.13662997163E+03  0.00000000000E+00 0.  1.
</event>
<event>
 7    1  0.6089676E-006  0.6193633E+02  0.7818608E-02  0.1492943E+00
          2   -1    0    0  502    0  0.00000000000E+00  0.00000000000E+00  0.63120438936E+03  0.63120438936E+03  0.00000000000E+00 0. -1.
          1   -1    0    0  501    0 -0.00000000000E+00 -0.00000000000E+00 -0.34685252380E+03  0.34685252380E+03  0.00000000000E+00 0. -1.
         25    2    1    2    0    0  0.85878880416E+01  0.48617463394E+02 -0.15985102849E+03  0.20884247483E+03  0.12500167364E+03 0.  0.
          2    1    1    2  501    0 -0.26573180933E+02  0.10811170633E+02 -0.15963517351E+03  0.16219249051E+03  0.00000000000E+00 0. -1.
          1    1    1    2  502    0  0.17985292891E+02 -0.59428634027E+02  0.60383806757E+03  0.60702194783E+03  0.00000000000E+00 0. -1.
         22    1    3    3    0    0 -0.19344693592E+02 -0.13927173551E+01 -0.14935206806E+03  0.15060609903E+03  0.00000000000E+00 0. -1.
         22    1    3    3    0    0  0.27932581634E+02  0.50010180749E+02 -0.10498960432E+02  0.58236375793E+02  0.00000000000E+00 0. -1.
</event>
<event>
 7    1  0.6089676E-006  0.9609080E+02  0.7818608E-02  0.1377582E+00
          2   -1    0    0  502    0  0.00000000000E+00  0.00000000000E+00  0.35499238825E+03  0.35499238825E+03  0.00000000000E+00 0. -1.
          1   -1    0    0  501    0 -0.00000000000E+00 -0.00000000000E+00 -0.71450433627E+03  0.71450433627E+03  0.00000000000E+00 0. -1.
         25    2    1    2    0    0 -0.77558584979E+02  0.60227086743E+02 -0.80115947999E+02  0.17801361814E+03  0.12501058771E+03 0.  0.
          2    1    1    2  501    0  0.94677577550E+02 -0.19575589718E+02 -0.57982669749E+03  0.58783164812E+03  0.00000000000E+00 0. -1.
          1    1    1    2  502    0 -0.17118992570E+02 -0.40651497025E+02  0.30043069747E+03  0.30365145825E+03  0.00000000000E+00 0. -1.
         22    1    3    3    0    0 -0.67097562673E+02 -0.78517221628E+01 -0.85451121683E+02  0.10892945724E+03  0.00000000000E+00 0.  1.
         22    1    3    3    0    0 -0.10461022306E+02  0.68078808906E+02  0.53351736834E+01  0.69084160905E+02  0.00000000000E+00 0.  1.
</event>
<event>
 7    1  0.6089676E-006  0.3050893E+02  0.7818608E-02  0.1633247E+00
          2   -1    0    0  502    0  0.00000000000E+00  0.00000000000E+00  0.42891623225E+03  0.42891623225E+03  0.00000000000E+00 0. -1.
          1   -1    0    0  501    0 -0.00000000000E+00 -0.00000000000E+00 -0.14848542331E+03  0.14848542331E+03  0.00000000000E+00 0. -1.
         25    2    1    2    0    0 -0.49416976035E+02 -0.43472333369E+00 -0.92125222092E+02  0.16295356630E+03  0.12499832687E+03 0.  0.
          2    1    1    2  501    0  0.25785256949E+02  0.44802097454E+01 -0.12249484773E+02  0.28896394801E+02  0.00000000000E+00 0. -1.
          1    1    1    2  502    0  0.23631719086E+02 -0.40454864117E+01  0.38480551580E+03  0.38555169446E+03  0.00000000000E+00 0. -1.
         22    1    3    3    0    0 -0.32008032257E+02  0.30810495666E+02 -0.11308357240E+03  0.12149771651E+03  0.00000000000E+00 0. -1.
         22    1    3    3    0    0 -0.17408943777E+02 -0.31245218999E+02  0.20958350306E+02  0.41455849784E+02  0.00000000000E+00 0. -1.
</event>
<event>
 7    1  0.6089676E-006  0.1817611E+03  0.7818608E-02  0.1306068E+00
          2   -1    0    0  502    0  0.00000000000E+00  0.00000000000E+00  0.72449816807E+03  0.72449816807E+03  0.00000000000E+00 0. -1.
          1   -1    0    0  501    0 -0.00000000000E+00 -0.00000000000E+00 -0.95974087619E+03  0.95974087619E+03  0.00000000000E+00 0. -1.
         25    2    1    2    0    0 -0.48700502181E+02  0.20055165828E+03 -0.55404638825E+02  0.24756612961E+03  0.12500643174E+03 0.  0.
          2    1    1    2  501    0  0.72314021282E+02 -0.16429178022E+03 -0.79752300688E+03  0.81747419117E+03  0.00000000000E+00 0. -1.
          1    1    1    2  502    0 -0.23613519101E+02 -0.36259878061E+02  0.61768493759E+03  0.61919872348E+03  0.00000000000E+00 0. -1.
         22    1    3    3    0    0 -0.33613803423E+02  0.18733741286E+03 -0.87690175449E+02  0.20955849043E+03  0.00000000000E+00 0.  1.
         22    1    3    3    0    0 -0.15086698758E+02  0.13214245413E+02  0.32285536624E+02  0.38007639184E+02  0.00000000000E+00 0.  1.
</event>
<event>
 7    1  0.6089676E-006  0.7326073E+02  0.7818608E-02  0.1358438E+00
          2   -1    0    0  502    0  0.00000000000E+00  0.00000000000E+00  0.10819184142E+03  0.10819184142E+03  0.00000000000E+00 0. -1.
          1   -1    0    0  501    0 -0.00000000000E+00 -0.00000000000E+00 -0.49135971667E+03  0.49135971667E+03  0.00000000000E+00 0. -1.
         25    2    1    2    0    0 -0.60903002457E+01 -0.28747745646E+02 -0.22401860056E+03  0.25821193619E+03  0.12500218381E+03 0.  0.
          2    1    1    2  501    0  0.75549534894E+02  0.52040427551E+02 -0.22490597568E+03  0.24289634872E+03  0.00000000000E+00 0. -1.
          1    1    1    2  502    0 -0.69459234648E+02 -0.23292681904E+02  0.65756700994E+02  0.98443273177E+02  0.00000000000E+00 0. -1.
         22    1    3    3    0    0  0.44232697831E+02  0.16619968010E+02 -0.15268479365E+03  0.15982928738E+03  0.00000000000E+00 0. -1.
         22    1    3    3    0    0 -0.50322998077E+02 -0.45367713656E+02 -0.71333806919E+02  0.98382648813E+02  0.00000000000E+00 0. -1.
</event>
<event>
 7    1  0.6089676E-006  0.3558632E+02  0.7818608E-02  0.1564165E+00
          2   -1    0    0  502    0  0.00000000000E+00  0.00000000000E+00  0.95478882960E+03  0.95478882960E+03  0.00000000000E+00 0. -1.
          1   -1    0    0  501    0 -0.00000000000E+00 -0.00000000000E+00 -0.17495820335E+03  0.17495820335E+03  0.00000000000E+00 0. -1.
         25    2    1    2    0    0  0.15925044363E+02 -0.44571985993E+02  0.95815107184E+02  0.16445508441E+03  0.12499868419E+03 0.  0.
          2    1    1    2  501    0 -0.31077612348E+02  0.17327622008E+02 -0.13808747395E+03  0.14259808883E+03  0.00000000000E+00 0. -1.
          1    1    1    2  502    0  0.15152567985E+02  0.27244363985E+02  0.82210299302E+03  0.82269385972E+03  0.00000000000E+00 0. -1.
         22    1    3    3    0    0 -0.33600691971E+02 -0.96219136698E+01  0.97747442220E+02  0.10380823755E+03  0.00000000000E+00 0. -1.
         22    1    3    3    0    0  0.49525736334E+02 -0.34950072323E+02 -0.19323350363E+01  0.60646846856E+02  0.00000000000E+00 0. -1.
</event>
<event>
 7    1  0.6089676E-006  0.6664694E+02  0.7818608E-02  0.1448173E+00
          2   -1    0    0  502    0  0.00000000000E+00  0.00000000000E+00  0.40823924263E+03  0.40823924263E+03  0.00000000000E+00 0. -1.
          1   -1    0    0  501    0 -0.00000000000E+00 -0.00000000000E+00 -0.33938005293E+03  0.33938005293E+03  0.00000000000E+00 0. -1.
         25    2    1    2    0    0  0.99657275615E+02  0.24458840414E+02  0.21805505684E+03  0.27148613630E+03  0.12500762750E+03 0.  0.
          2    1    1    2  501    0 -0.63320810884E+02 -0.19075033086E+02 -0.30703489725E+03  0.31407612152E+03  0.00000000000E+00 0. -1.
          1    1    1    2  502    0 -0.36336464732E+02 -0.53838073281E+01  0.15783903012E+03  0.16205703774E+03  0.00000000000E+00 0. -1.
         22    1    3    3    0    0  0.73771711210E+02  0.13644808078E+00  0.22367326127E+03  0.23552497065E+03  0.00000000000E+00 0. -1.
         22    1    3    3    0    0  0.25885564406E+02  0.24322392333E+02 -0.56182044361E+01  0.35961165645E+02  0.00000000000E+00 0. -1.
</event>
<event>
 7    1  0.6089676E-006  0.1373553E+03  0.7818608E-02  0.1265160E+00
          2   -1    0    0  502    0  0.00000000000E+00  0.00000000000E+00  0.75618349580E+03  0.75618349580E+03  0.00000000000E+00 0. -1.
          1   -1    0    0  501    0 -0.00000000000E+00 -0.00000000000E+00 -0.73345669821E+03  0.73345669821E+03  0.00000000000E+00 0. -1.
         25    2    1    2    0    0 -0.16448141295E+02  0.20747383618E+03 -0.18805693605E+03  0.30710040455E+03  0.12501725170E+03 0.  0.
          2    1    1    2  501    0 -0.92857873551E+01 -0.12727694502E+03 -0.47487706767E+03  0.49172540709E+03  0.00000000000E+00 0. -1.
          1    1    1    2  502    0  0.25733928650E+02 -0.80196891163E+02  0.68566080131E+03  0.69081438237E+03  0.00000000000E+00 0. -1.
         22    1    3    3    0    0 -0.35199862712E+02  0.16168565795E+01 -0.36884660618E+02  0.51011006156E+02  0.00000000000E+00 0.  1.
         22    1    3    3    0    0  0.18751721417E+02  0.20585697960E+03 -0.15117227544E+03  0.25608939839E+03  0.00000000000E+00 0.  1.
</event>
<event>
 7    1  0.6089676E-006  0.8989127E+02  0.7818608E-02  0.1464510E+00
          2   -1    0    0  502    0  0.00000000000E+00  0.00000000000E+00  0.45254976972E+03  0.45254976972E+03  0.00000000000E+00 0. -1.
          1   -1    0    0  501    0 -0.00000000000E+00 -0.00000000000E+00 -0.57099600094E+02  0.57099600094E+02  0.00000000000E+00 0. -1.
         25    2    1    2    0    0 -0.81394161043E+02 -0.10613098406E+02  0.16356201343E+03  0.22162724395E+03  0.12501382209E+03 0.  0.
          2    1    1    2  501    0  0.87530979640E+02  0.33993353516E+02  0.53637040025E+02  0.10813950500E+03  0.00000000000E+00 0. -1.
          1    1    1    2  502    0 -0.61368185964E+01 -0.23380255110E+02  0.17825111617E+03  0.17988262086E+03  0.00000000000E+00 0. -1.
         22    1    3    3    0    0 -0.29160831849E+02 -0.66211308246E+02  0.91903480120E+02  0.11696384532E+03  0.00000000000E+00 0.  1.
         22    1    3    3    0    0 -0.52233329194E+02  0.55598209841E+02  0.71658533310E+02  0.10466339863E+03  0.00000000000E+00 0.  1.
</event>
<event>
 7    1  0.6089676E-006  0.6611576E+02  0.7818608E-02  0.1390182E+00
          2   -1    0    0  502    0  0.00000000000E+00  0.00000000000E+00  0.13642731177E+04  0.13642731177E+04  0.00000000000E+00 0. -1.
          1   -1    0    0  501    0 -0.00000000000E+00 -0.00000000000E+00 -0.14236101377E+04  0.14236101377E+04  0.00000000000E+00 0. -1.
         25    2    1    2    0    0 -0.23835197675E+02 -0.37354546779E+02 -0.30830364815E+02  0.13615713319E+03  0.12499909884E+03 0.  0.
          2    1    1    2  501    0  0.66778744503E+02 -0.14533348276E+01 -0.13386447200E+04  0.13403101131E+04  0.00000000000E+00 0. -1.
          1    1    1    2  502    0 -0.42943546828E+02  0.38807881607E+02  0.13101380648E+04  0.13114160091E+04  0.00000000000E+00 0. -1.
         22    1    3    3    0    0  0.35591186003E+01 -0.64252580947E+02 -0.59966920056E+02  0.87960746840E+02  0.00000000000E+00 0. -1.
         22    1    3    3    0    0 -0.27394316275E+02  0.26898034168E+02  0.29136555242E+02  0.48196386355E+02  0.00000000000E+00 0. -1.
</event>
<event>
 7    1  0.6089676E-006  0.5186816E+02  0.7818608E-02  0.1491040E+00
          2   -1    0    0  502    0  0.00000000000E+00  0.00000000000E+00  0.31005657929E+04  0.31005657929E+04  0.00000000000E+00 0. -1.
          1   -1    0    0  501    0 -0.00000000000E+00 -0.00000000000E+00 -0.98504018453E+03  0.98504018453E+03  0.00000000000E+00 0. -1.
         25    2    1    2    0    0  0.82172948243E+02  0.27133245480E+02  0.91382364803E+03  0.92638412420E+03  0.12500111775E+03 0.  0.
          2    1    1    2  501    0 -0.49494204209E+02 -0.15425554528E+02 -0.97793516357E+03  0.97930833149E+03  0.00000000000E+00 0. -1.
          1    1    1    2  502    0 -0.32678744033E+02 -0.11707690952E+02  0.21796371239E+04  0.21799135217E+04  0.00000000000E+00 0. -1.
         22    1    3    3    0    0  0.52667370378E+02  0.31394513794E+02  0.15094029345E+03  0.16291850596E+03  0.00000000000E+00 0.  1.
         22    1    3    3    0    0  0.29505577864E+02 -0.42612683136E+01  0.76288335458E+03  0.76346561823E+03  0.00000000000E+00 0.  1.
</event>
<event>
 7    1  0.6089676E-006  0.5056242E+02  0.7818608E-02  0.1498099E+00
          2   -1    0    0  502    0  0.00000000000E+00  0.00000000000E+00  0.28350075616E+04  0.28350075616E+04  0.00000000000E+00 0. -1.
          1   -1    0    0  501    0 -0.00000000000E+00 -0.00000000000E+00 -0.93698340168E+02  0.93698340168E+02  0.00000000000E+00 0. -1.
         25    2    1    2    0    0 -0.22406260665E+02  0.80004960409E+02  0.63465345363E+03  0.65215990752E+03  0.12499881828E+03 0.  0.
          2    1    1    2  501    0  0.54464865544E+01 -0.33470649905E+02 -0.81269261682E+02  0.88060442397E+02  0.00000000000E+00 0. -1.
          1    1    1    2  502    0  0.16959774111E+02 -0.46534310504E+02  0.21879250295E+04  0.21884855518E+04  0.00000000000E+00 0. -1.
         22    1    3    3    0    0 -0.38926165653E+02 -0.15782763946E+02  0.32246562896E+03  0.32518982744E+03  0.00000000000E+00 0.  1.
         22    1    3    3    0    0  0.16519904987E+02  0.95787724355E+02  0.31218782467E+03  0.32697008008E+03  0.00000000000E+00 0.  1.
</event>
<event>
 7    1  0.6089676E-006  0.4227212E+02  0.7818608E-02  0.1563633E+00
          2   -1    0    0  502    0  0.00000000000E+00  0.00000000000E+00  0.82127903173E+03  0.82127903173E+03  0.00000000000E+00 0. -1.
          1   -1    0    0  501    0 -0.00000000000E+00 -0.00000000000E+00 -0.50835119403E+03  0.50835119403E+03  0.00000000000E+00 0. -1.
         25    2    1    2    0    0 -0.53365596431E+02 -0.17752809000E+02  0.23540206980E+03  0.27240027388E+03  0.12499890253E+03 0.  0.
          2    1    1    2  501    0  0.23572621173E+02 -0.11735334447E+02 -0.48872292078E+03  0.48943179284E+03  0.00000000000E+00 0. -1.
          1    1    1    2  502    0  0.29792975258E+02  0.29488143448E+02  0.56624868868E+03  0.56779815904E+03  0.00000000000E+00 0. -1.
         22    1    3    3    0    0 -0.90241299697E+02  0.94249278671E+01  0.16740715499E+03  0.19041396214E+03  0.00000000000E+00 0. -1.
         22    1    3    3    0    0  0.36875703266E+02 -0.27177736867E+02  0.67994914808E+02  0.81986311738E+02  0.00000000000E+00 0. -1.
</event>
<event>
 7    1  0.6089676E-006  0.5083235E+02  0.7818608E-02  0.1497236E+00
          2   -1    0    0  502    0  0.00000000000E+00  0.00000000000E+00  0.16852296527E+03  0.16852296527E+03  0.00000000000E+00 0. -1.
          1   -1    0    0  501    0 -0.00000000000E+00 -0.00000000000E+00 -0.12905323150E+04  0.12905323150E+04  0.00000000000E+00 0. -1.
         25    2    1    2    0    0 -0.85922083528E+01  0.19263189757E+02 -0.22441457953E+03  0.25774930906E+03  0.12501162462E+03 0.  0.
          2    1    1    2  501    0 -0.12327175386E+00 -0.52056885564E+02 -0.10469000019E+04  0.10481934690E+04  0.00000000000E+00 0. -1.
          1    1    1    2  502    0  0.87154801067E+01  0.32793695807E+02  0.14930523176E+03  0.15311250213E+03  0.00000000000E+00 0. -1.
         22    1    3    3    0    0  0.19148887155E+02 -0.47896912063E+02 -0.11919154209E+03  0.12987462328E+03  0.00000000000E+00 0.  1.
         22    1    3    3    0    0 -0.27741095508E+02  0.67160101820E+02 -0.10522303743E+03  0.12787468578E+03  0.00000000000E+00 0.  1.
</event>
<event>
 7    1  0.6089676E-006  0.4657195E+02  0.7818608E-02  0.1476495E+00
          2   -1    0    0  502    0  0.00000000000E+00  0.00000000000E+00  0.17411048994E+03  0.17411048994E+03  0.00000000000E+00 0. -1.
          1   -1    0    0  501    0 -0.00000000000E+00 -0.00000000000E+00 -0.17448189543E+03  0.17448189543E+03  0.00000000000E+00 0. -1.
         25    2    1    2    0    0 -0.84303637143E+02 -0.24348736669E+02 -0.61565905924E+02  0.16466596000E+03  0.12499821358E+03 0.  0.
          2    1    1    2  501    0  0.40765211901E+02  0.13107144573E+02 -0.48902695500E+02  0.65000564362E+02  0.00000000000E+00 0. -1.
          1    1    1    2  502    0  0.43538425243E+02  0.11241592096E+02  0.11009719594E+03  0.11892586102E+03  0.00000000000E+00 0. -1.
         22    1    3    3    0    0 -0.31351464318E+02  0.30288803399E+02  0.24325480988E+02  0.49920486291E+02  0.00000000000E+00 0. -1.
         22    1    3    3    0    0 -0.52952172825E+02 -0.54637540068E+02 -0.85891386912E+02  0.11474547371E+03  0.00000000000E+00 0. -1.
</event>
<event>
 7    1  0.6089676E-006  0.1448749E+03  0.7818608E-02  0.1257929E+00
          2   -1    0    0  502    0  0.00000000000E+00  0.00000000000E+00  0.23867684643E+04  0.23867684643E+04  0.00000000000E+00 0. -1.
          1   -1    0    0  501    0 -0.00000000000E+00 -0.00000000000E+00 -0.14469911263E+03  0.14469911263E+03  0.00000000000E+00 0. -1.
         25    2    1    2    0    0 -0.68444804742E+02 -0.17211080592E+03  0.68559532941E+03  0.72109152057E+03  0.12500081805E+03 0.  0.
          2    1    1    2  501    0 -0.36031618292E+02  0.77778047542E+02 -0.10916635661E+03  0.13879839917E+03  0.00000000000E+00 0. -1.
          1    1    1    2  502    0  0.10447642303E+03  0.94332758380E+02  0.16656403788E+04  0.16715776572E+04  0.00000000000E+00 0. -1.
         22    1    3    3    0    0 -0.35993502201E+02  0.10788752420E+02  0.12455426626E+03  0.13009878794E+03  0.00000000000E+00 0. -1.
         22    1    3    3    0    0 -0.32451302541E+02 -0.18289955834E+03  0.56104106315E+03  0.59099273263E+03  0.00000000000E+00 0. -1.
</event>
<event>
 7    1  0.8172369E-006  0.1159917E+03  0.7818608E-02  0.1378996E+00
          2   -1    0    0  502    0  0.00000000000E+00  0.00000000000E+00  0.22737798257E+04  0.22737798257E+04  0.00000000000E+00 0. -1.
          1   -1    0    0  501    0 -0.00000000000E+00 -0.00000000000E+00 -0.68354615476E+03  0.68354615476E+03  0.00000000000E+00 0. -1.
         25    2    1    2    0    0 -0.10763161345E+03  0.71719532546E+02 -0.39218815016E+03  0.43146895161E+03  0.12500262203E+03 0.  0.
          2    1    1    2  501    0 -0.26974900210E+01 -0.36020521131E+02 -0.26901834714E+03  0.27143254317E+03  0.00000000000E+00 0. -1.
          1    1    1    2  502    0  0.11032910347E+03 -0.35699011415E+02  0.22514401683E+04  0.22544244857E+04  0.00000000000E+00 0. -1.
         22    1    3    3    0    0 -0.16421670274E+02 -0.32338000271E+01 -0.23134734591E+03  0.23195198463E+03  0.00000000000E+00 0.  1.
         22    1    3    3    0    0 -0.91209943180E+02  0.74953332573E+02 -0.16084080425E+03  0.19951696697E+03  0.00000000000E+00 0.  1.
</event>
<event>
 7    1  0.6089676E-006  0.2167638E+03  0.7818608E-02  0.1322361E+00
          2   -1    0    0  502    0  0.00000000000E+00  0.00000000000E+00  0.16556761817E+04  0.16556761817E+04  0.00000000000E+00 0. -1.
          1   -1    0    0  501    0 -0.00000000000E+00 -0.00000000000E+00 -0.79485219886E+02  0.79485219886E+02  0.00000000000E+00 0. -1.
         25    2    1    2    0    0 -0.11621520562E+03 -0.16172766110E+03  0.57056151015E+03  0.61711152392E+03  0.12499754279E+03 0.  0.
          2    1    1    2  501    0 -0.15808384509E+01 -0.31287395920E+02 -0.38546168639E+02  0.49670990633E+02  0.00000000000E+00 0. -1.
          1    1    1    2  502    0  0.11779604407E+03  0.19301505702E+03  0.10441756203E+04  0.10683788871E+04  0.00000000000E+00 0. -1.
         22    1    3    3    0    0 -0.10122846654E+03 -0.12699894480E+03  0.55118347252E+03  0.57461217773E+03  0.00000000000E+00 0. -1.
         22    1    3    3    0    0 -0.14986739075E+02 -0.34728716297E+02  0.19378037634E+02  0.42499346186E+02  0.00000000000E+00 0. -1.
</event>
<event>
 7    1  0.6089676E-006  0.3925321E+02  0.7818608E-02  0.1620197E+00
          2   -1    0    0  502    0  0.00000000000E+00  0.00000000000E+00  0.43406179475E+03  0.43406179475E+03  0.00000000000E+00 0. -1.
          1   -1    0    0  501    0 -0.00000000000E+00 -0.00000000000E+00 -0.20623283278E+03  0.20623283278E+03  0.00000000000E+00 0. -1.
         25    2    1    2    0    0  0.12726892747E+02 -0.54566410259E+02  0.23873035489E+03  0.27523996192E+03  0.12500154944E+03 0.  0.
          2    1    1    2  501    0 -0.10518056817E+02  0.17132548314E+02 -0.18544340311E+03  0.18652991580E+03  0.00000000000E+00 0. -1.
          1    1    1    2  502    0 -0.22088359297E+01  0.37433861945E+02  0.17454201018E+03  0.17852474981E+03  0.00000000000E+00 0. -1.
         22    1    3    3    0    0  0.30843012808E+02  0.31805832574E+02  0.49433795038E+02  0.66382245493E+02  0.00000000000E+00 0. -1.
         22    1    3    3    0    0 -0.18116120061E+02 -0.86372242834E+02  0.18929655985E+03  0.20885771642E+03  0.00000000000E+00 0. -1.
</event>
<event>
 7    1  0.6089676E-006  0.7825784E+02  0.7818608E-02  0.1393284E+00
          2   -1    0    0  502    0  0.00000000000E+00  0.00000000000E+00  0.90425361674E+03  0.90425361674E+03  0.00000000000E+00 0. -1.
          1   -1    0    0  501    0 -0.00000000000E+00 -0.00000000000E+00 -0.47186227381E+03  0.47186227381E+03  0.00000000000E+00 0. -1.
         25    2    1    2    0    0 -0.73002435441E+02  0.15777381502E+02  0.13397564425E+02  0.14622938380E+03  0.12500102642E+03 0.  0.
          2    1    1    2  501    0  0.20605302230E+02  0.43019579059E+02 -0.40215282190E+03  0.40497179510E+03  0.00000000000E+00 0. -1.
          1    1    1    2  502    0  0.52397133211E+02 -0.58796960561E+02  0.82114660040E+03  0.82491471165E+03  0.00000000000E+00 0. -1.
         22    1    3    3    0    0  0.31898197548E+02  0.22762235426E+02  0.12364789291E+02  0.41091390614E+02  0.00000000000E+00 0.  1.
         22    1    3    3    0    0 -0.10490063299E+03 -0.69848539235E+01  0.10327751339E+01  0.10513799318E+03  0.00000000000E+00 0.  1.
</event>
<event>
 7    1  0.6089676E-006  0.8147008E+02  0.7818608E-02  0.1495399E+00
          2   -1    0    0  502    0  0.00000000000E+00  0.00000000000E+00  0.29072330124E+03  0.29072330124E+03  0.00000000000E+00 0. -1.
          1   -1    0    0  501    0 -0.00000000000E+00 -0.00000000000E+00 -0.58127609856E+03  0.58127609856E+03  0.00000000000E+00 0. -1.
         25    2    1    2    0    0 -0.85596226818E+02  0.54050099941E+02 -0.10826479779E+03  0.19389219383E+03  0.12499915615E+03 0.  0.
          2    1    1    2  501    0  0.20386760198E+02 -0.66432112852E+01 -0.42336461473E+03  0.42390724133E+03  0.00000000000E+00 0. -1.
          1    1    1    2  502    0  0.65209466620E+02 -0.47406888656E+02  0.24107661520E+03  0.25419996464E+03  0.00000000000E+00 0. -1.
         22    1    3    3    0    0 -0.37165338250E+02  0.88948927059E+02 -0.43340765841E+02  0.10569577085E+03  0.00000000000E+00 0.  1.
         22    1    3    3    0    0 -0.48430888568E+02 -0.34898827119E+02 -0.64924031949E+02  0.88196422979E+02  0.00000000000E+00 0.  1.
</event>
<event>
 7    1  0.6089676E-006  0.1592596E+03  0.7818608E-02  0.1224455E+00
          2   -1    0    0  502    0  0.00000000000E+00  0.00000000000E+00  0.21078039808E+04  0.21078039808E+04  0.00000000000E+00 0. -1.
          1   -1    0    0  501    0 -0.00000000000E+00 -0.00000000000E+00 -0.15159052213E+04  0.15159052213E+04  0.00000000000E+00 0. -1.
         25    2    1    2    0    0 -0.13140800734E+03  0.15554256559E+02  0.30191458733E+03  0.35254497384E+03  0.12500216499E+03 0.  0.
          2    1    1    2  501    0  0.10412206131E+03 -0.12157720849E+03 -0.14846009229E+04  0.14932053849E+04  0.00000000000E+00 0. -1.
          1    1    1    2  502    0  0.27285946036E+02  0.10602295193E+03  0.17745850951E+04  0.17779588434E+04  0.00000000000E+00 0. -1.
         22    1    3    3    0    0 -0.11966297722E+03 -0.29586034028E+02  0.15289444760E+03  0.19639570676E+03  0.00000000000E+00 0.  1.
         22    1    3    3    0    0 -0.11745030123E+02  0.45140290587E+02  0.14902013973E+03  0.15614926709E+03  0.00000000000E+00 0.  1.
</event>
<event>
 7    1  0.6089676E-006  0.8334049E+02  0.7818608E-02  0.1418771E+00
          2   -1    0    0  502    0  0.00000000000E+00  0.00000000000E+00  0.14096774503E+04  0.14096774503E+04  0.00000000000E+00 0. -1.
          1   -1    0    0  501    0 -0.00000000000E+00 -0.00000000000E+00 -0.10500616868E+03  0.10500616868E+03  0.00000000000E+00 0. -1.
         25    2    1    2    0    0 -0.38984207359E+02  0.83920809938E+02  0.80643702782E+02  0.17518434730E+03  0.12499471179E+03 0.  0.
          2    1    1    2  501    0  0.36663583001E+02 -0.66611324169E+00 -0.50413696973E+02  0.62339416647E+02  0.00000000000E+00 0. -1.
          1    1    1    2  502    0  0.23206243576E+01 -0.83254696697E+02  0.12744412758E+04  0.12771598551E+04  0.00000000000E+00 0. -1.
         22    1    3    3    0    0 -0.80602280668E+02  0.47544341845E+02  0.25242712920E+02  0.96924644162E+02  0.00000000000E+00 0.  1.
         22    1    3    3    0    0  0.41618073309E+02  0.36376468093E+02  0.55400989861E+02  0.78259703133E+02  0.00000000000E+00 0.  1.
</event>
<event>
 7    1  0.6089676E-006  0.6220438E+02  0.7818608E-02  0.1482871E+00
          2   -1    0    0  502    0  0.00000000000E+00  0.00000000000E+00  0.28313216914E+03  0.28313216914E+03  0.00000000000E+00 0. -1.
          1   -1    0    0  501    0 -0.00000000000E+00 -0.00000000000E+00 -0.94080941018E+03  0.94080941018E+03  0.00000000000E+00 0. -1.
         25    2    1    2    0    0  0.75145302364E+02  0.51963556993E+02 -0.74177279432E+02  0.17168000589E+03  0.12499891165E+03 0.  0.
          2    1    1    2  501    0 -0.53635887488E+02 -0.30132827228E+02 -0.81571564838E+03  0.81803228219E+03  0.00000000000E+00 0. -1.
          1    1    1    2  502    0 -0.21509414876E+02 -0.21830729764E+02  0.23221568678E+03  0.23422929124E+03  0.00000000000E+00 0. -1.
         22    1    3    3    0    0 -0.38395822909E+01 -0.29837697744E+02  0.82996226104E+01  0.31207600586E+02  0.00000000000E+00 0.  1.
         22    1    3    3    0    0  0.78984884655E+02  0.81801254737E+02 -0.82476902042E+02  0.14047240530E+03  0.00000000000E+00 0.  1.
</event>
<event>
 7    1  0.6089676E-006  0.1126055E+03  0.7818608E-02  0.1292323E+00
          2   -1    0    0  502    0  0.00000000000E+00  0.00000000000E+00  0.28266348608E+03  0.28266348608E+03  0.00000000000E+00 0. -1.
          1   -1    0    0  501    0 -0.00000000000E+00 -0.00000000000E+00 -0.21796923418E+03  0.21796923418E+03  0.00000000000E+00 0. -1.
         25    2    1    2    0    0 -0.38972391693E+02  0.60980646388E+02  0.76255418338E+02  0.16332898533E+03  0.12499592823E+03 0.  0.
          2    1    1    2  501    0 -0.55106740015E+01  0.79101698367E+02 -0.12747190229E+03  0.15012172423E+03  0.00000000000E+00 0. -1.
          1    1    1    2  502    0  0.44483065694E+02 -0.14008234476E+03  0.11591073585E+03  0.18718201070E+03  0.00000000000E+00 0. -1.
         22    1    3    3    0    0  0.45488660283E+02  0.19897663149E+02  0.18029903217E+02  0.52822463244E+02  0.00000000000E+00 0.  1.
         22    1    3    3    0    0 -0.84461051976E+02  0.41082983238E+02  0.58225515121E+02  0.11050652209E+03  0.00000000000E+00 0.  1.
</event>
<event>
 7    1  0.6089676E-006  0.1070110E+03  0.7818608E-02  0.1270182E+00
          2   -1    0    0  502    0  0.00000000000E+00  0.00000000000E+00  0.12549530340E+04  0.12549530340E+04  0.00000000000E+00 0. -1.
          1   -1    0    0  501    0 -0.00000000000E+00 -0.00000000000E+00 -0.15543794221E+03  0.15543794221E+03  0.00000000000E+00 0. -1.
         25    2    1    2    0    0  0.42821125936E+02 -0.98943348981E+01  0.41526075579E+03  0.43588752724E+03  0.12499957768E+03 0.  0.
          2    1    1    2  501    0 -0.18863268737E+02  0.11003304078E+03 -0.11987541019E+03  0.16380844587E+03  0.00000000000E+00 0. -1.
          1    1    1    2  502    0 -0.23957857200E+02 -0.10013870588E+03  0.80412974621E+03  0.81069500312E+03  0.00000000000E+00 0. -1.
         22    1    3    3    0    0 -0.13008223342E+02 -0.52194586189E+02  0.10689150733E+03  0.11966320671E+03  0.00000000000E+00 0.  1.
         22    1    3    3    0    0  0.55829349278E+02  0.42300251291E+02  0.30836924846E+03  0.31622432053E+03  0.00000000000E+00 0.  1.
</event>
<event>
 7    1  0.6089676E-006  0.2949215E+02  0.7818608E-02  0.1607921E+00
          2   -1    0    0  502    0  0.00000000000E+00  0.00000000000E+00  0.41384913665E+03  0.41384913665E+03  0.00000000000E+00 0. -1.
          1   -1    0    0  501    0 -0.00000000000E+00 -0.00000000000E+00 -0.19493722464E+04  0.19493722464E+04  0.00000000000E+00 0. -1.
         25    2    1    2    0    0  0.53496736489E+02 -0.32628952055E+01 -0.22002082697E+03  0.25866822283E+03  0.12501015119E+03 0.  0.
          2    1    1    2  501    0 -0.26383112989E+02  0.12884750637E+02 -0.17093769722E+04  0.17096291173E+04  0.00000000000E+00 0. -1.
          1    1    1    2  502    0 -0.27113623500E+02 -0.96218554314E+01  0.39387468946E+03  0.39492404293E+03  0.00000000000E+00 0. -1.
         22    1    3    3    0    0  0.41515579602E+02  0.42314182138E+02 -0.19794033696E+03  0.20662625766E+03  0.00000000000E+00 0. -1.
         22    1    3    3    0    0  0.11981156886E+02 -0.45577077343E+02 -0.22080490011E+02  0.52041965168E+02  0.00000000000E+00 0. -1.
</event>
<event>
 7    1  0.6089676E-006  0.1364394E+03  0.7818608E-02  0.1250057E+00
          2   -1    0    0  502    0  0.00000000000E+00  0.00000000000E+00  0.10123760301E+04  0.10123760301E+04  0.00000000000E+00 0. -1.
          1   -1    0    0  501    0 -0.00000000000E+00 -0.00000000000E+00 -0.70162688201E+03  0.70162688201E+03  0.00000000000E+00 0. -1.
         25    2    1    2    0    0  0.15622468889E+03 -0.15574932115E+03 -0.71752774401E+02  0.26350962818E+03  0.12499943620E+03 0.  0.
          2    1    1    2  501    0 -0.11017840720E+03  0.68771050515E+02 -0.52339359357E+03  0.53926764467E+03  0.00000000000E+00 0. -1.
          1    1    1    2  502    0 -0.46046281691E+02  0.86978270631E+02  0.90589551610E+03  0.91122563929E+03  0.00000000000E+00 0. -1.
         22    1    3    3    0    0  0.36938202045E+01 -0.47286174864E+02  0.24130567947E+02  0.53215702104E+02  0.00000000000E+00 0.  1.
         22    1    3    3    0    0  0.15253086869E+03 -0.10846314628E+03 -0.95883342348E+02  0.21029392607E+03  0.00000000000E+00 0.  1.
</event>
<event>
 7    1  0.6089676E-006  0.1364537E+03  0.7818608E-02  0.1304736E+00
          2   -1    0    0  502    0  0.00000000000E+00  0.00000000000E+00  0.91066081757E+03  0.91066081757E+03  0.00000000000E+00 0. -1.
          1   -1    0    0  501    0 -0.00000000000E+00 -0.00000000000E+00 -0.29788749016E+03  0.29788749016E+03  0.00000000000E+00 0. -1.
         25    2    1    2    0    0 -0.90353188817E+02  0.14710769041E+03  0.39496566425E+03  0.44880637688E+03  0.12499966674E+03 0.  0.
          2    1    1    2  501    0  0.10119549067E+03 -0.89779103509E+02 -0.25216537385E+03  0.28616112687E+03  0.00000000000E+00 0. -1.
          1    1    1    2  502    0 -0.10842301851E+02 -0.57328586906E+02  0.46997303701E+03  0.47358080398E+03  0.00000000000E+00 0. -1.
         22    1    3    3    0    0  0.25314580355E+02  0.40184618577E+02  0.15201044359E+03  0.15925704540E+03  0.00000000000E+00 0.  1.
         22    1    3    3    0    0 -0.11566776917E+03  0.10692307184E+03  0.24295522067E+03  0.28954933149E+03  0.00000000000E+00 0.  1.
</event>
<event>
 7    1  0.6089676E-006  0.5181831E+03  0.7818608E-02  0.1192067E+00
          2   -1    0    0  502    0  0.00000000000E+00  0.00000000000E+00  0.20781144860E+04  0.20781144860E+04  0.00000000000E+00 0. -1.
          1   -1    0    0  501    0 -0.00000000000E+00 -0.00000000000E+00 -0.52052820480E+03  0.52052820480E+03  0.00000000000E+00 0. -1.
         25    2    1    2    0    0  0.30107744560E+03  0.41337168867E+03  0.69870102301E+03  0.87483327156E+03  0.12500540877E+03 0.  0.
          2    1    1    2  501    0 -0.34294524834E+03 -0.39072723241E+03 -0.27553801649E+03  0.58838797747E+03  0.00000000000E+00 0. -1.
          1    1    1    2  502    0  0.41867802737E+02 -0.22644456266E+02  0.11344232746E+04  0.11354214417E+04  0.00000000000E+00 0. -1.
         22    1    3    3    0    0  0.21474057001E+03  0.20505123216E+03  0.34285005356E+03  0.45354787999E+03  0.00000000000E+00 0. -1.
         22    1    3    3    0    0  0.86336875592E+02  0.20832045651E+03  0.35585096945E+03  0.42128539157E+03  0.00000000000E+00 0. -1.
</event>
<event>
 7    1  0.6089676E-006  0.1615751E+03  0.7818608E-02  0.1284487E+00
          2   -1    0    0  502    0  0.00000000000E+00  0.00000000000E+00  0.23698333674E+04  0.23698333674E+04  0.00000000000E+00 0. -1.
          1   -1    0    0  501    0 -0.00000000000E+00 -0.00000000000E+00 -0.10258667953E+03  0.10258667953E+03  0.00000000000E+00 0. -1.
         25    2    1    2    0    0  0.16376081089E+03 -0.10138386791E+03  0.14771659019E+04  0.14949046504E+04  0.12499808071E+03 0.  0.
          2    1    1    2  501    0 -0.10710494358E+03  0.11949533644E+03 -0.23133412248E+02  0.16212883498E+03  0.00000000000E+00 0. -1.
          1    1    1    2  502    0 -0.56655867314E+02 -0.18111468524E+02  0.81321419824E+03  0.81538656158E+03  0.00000000000E+00 0. -1.
         22    1    3    3    0    0  0.60666366323E+02 -0.25190927779E+02  0.95410231127E+03  0.95636092100E+03  0.00000000000E+00 0.  1.
         22    1    3    3    0    0  0.10309444457E+03 -0.76192940136E+02  0.52306359058E+03  0.53854372935E+03  0.00000000000E+00 0.  1.
</event>
<event>
 7    1  0.6089676E-006  0.7364245E+02  0.7818608E-02  0.1405786E+00
          2   -1    0    0  502    0  0.00000000000E+00  0.00000000000E+00  0.17387342780E+04  0.17387342780E+04  0.00000000000E+00 0. -1.
          1   -1    0    0  501    0 -0.00000000000E+00 -0.00000000000E+00 -0.57615536174E+02  0.57615536174E+02  0.00000000000E+00 0. -1.
         25    2    1    2    0    0  0.53292075722E+02  0.16273709133E+02  0.30356403976E+03  0.33298616991E+03  0.12499513658E+03 0.  0.
          2    1    1    2  501    0 -0.45741902036E+02 -0.61557229843E+02 -0.79463027449E+01  0.77102255967E+02  0.00000000000E+00 0. -1.
          1    1    1    2  502    0 -0.75501736856E+01  0.45283520710E+02  0.13855010048E+04  0.13862613883E+04  0.00000000000E+00 0. -1.
         22    1    3    3    0    0  0.43798388684E+02  0.49641258711E+02  0.68079187782E+02  0.94959618927E+02  0.00000000000E+00 0.  1.
         22    1    3    3    0    0  0.94936870381E+01 -0.33367549578E+02  0.23548485198E+03  0.23802655098E+03  0.00000000000E+00 0.  1.
</event>
<event>
 7    1  0.6089676E-006  0.2493100E+03  0.7818608E-02  0.1330742E+00
          2   -1    0    0  502    0  0.00000000000E+00  0.00000000000E+00  0.56607808434E+03  0.56607808434E+03  0.00000000000E+00 0. -1.
          1   -1    0    0  501    0 -0.00000000000E+00 -0.00000000000E+00 -0.11276846388E+04  0.11276846388E+04  0.00000000000E+00 0. -1.
         25    2    1    2    0    0 -0.26238266947E+03  0.60739878814E+02 -0.36184337351E+02  0.29911428818E+03  0.12500421197E+03 0.  0.
          2    1    1    2  501    0  0.25240841111E+02  0.16044764725E+01 -0.92526452123E+03  0.92561012778E+03  0.00000000000E+00 0. -1.
          1    1    1    2  502    0  0.23714182836E+03 -0.62344355286E+02  0.39984230414E+03  0.46903830715E+03  0.00000000000E+00 0. -1.
         22    1    3    3    0    0 -0.22853379516E+03  0.86681604956E+02 -0.19522646817E+01  0.24442832795E+03  0.00000000000E+00 0.  1.
         22    1    3    3    0    0 -0.33848874306E+02 -0.25941726142E+02 -0.34232072669E+02  0.54685960230E+02  0.00000000000E+00 0.  1.
</event>
<event>
 7    1  0.6089676E-006  0.4019049E+02  0.7818608E-02  0.1550779E+00
          2   -1    0    0  502    0  0.00000000000E+00  0.00000000000E+00  0.13531808510E+03  0.13531808510E+03  0.00000000000E+00 0. -1.
          1   -1    0    0  501    0 -0.00000000000E+00 -0.00000000000E+00 -0.45761002575E+03  0.45761002575E+03  0.00000000000E+00 0. -1.
         25    2    1    2    0    0  0.51982620889E+02 -0.40667059891E+02 -0.27326889989E+03  0.30766617030E+03  0.12500631211E+03 0.  0.
          2    1    1    2  501    0 -0.24951761423E+02  0.27525508116E+02 -0.16310729537E+03  0.16728488813E+03  0.00000000000E+00 0. -1.
          1    1    1    2  502    0 -0.27030859466E+02  0.13141551775E+02  0.11408425461E+03  0.11797705242E+03  0.00000000000E+00 0. -1.
         22    1    3    3    0    0  0.51034461034E+02 -0.30295943714E+02 -0.28549910582E+03  0.29160264033E+03  0.00000000000E+00 0.  1.
         22    1    3    3    0    0  0.94815985482E+00 -0.10371116177E+02  0.12230205939E+02  0.16063529972E+02  0.00000000000E+00 0.  1.
</event>
<event>
 7    1  0.6089676E-006  0.3240486E+02  0.7818608E-02  0.1606186E+00
          2   -1    0    0  502    0  0.00000000000E+00  0.00000000000E+00  0.65872587429E+03  0.65872587429E+03  0.00000000000E+00 0. -1.
          1   -1    0    0  501    0 -0.00000000000E+00 -0.00000000000E+00 -0.87103714181E+02  0.87103714181E+02  0.00000000000E+00 0. -1.
         25    2    1    2    0    0  0.38658098319E+02  0.20258277449E+02  0.30722213574E+03  0.33454120465E+03  0.12501012177E+03 0.  0.
          2    1    1    2  501    0 -0.68595865893E+01 -0.25551803359E+02 -0.70261710872E+02  0.75077670434E+02  0.00000000000E+00 0. -1.
          1    1    1    2  502    0 -0.31798511729E+02  0.52935259093E+01  0.33466173524E+03  0.33621071339E+03  0.00000000000E+00 0. -1.
         22    1    3    3    0    0  0.28059639933E+02  0.43643163088E+02  0.30431060221E+03  0.30870214073E+03  0.00000000000E+00 0. -1.
         22    1    3    3    0    0  0.10598458386E+02 -0.23384885639E+02  0.29115335371E+01  0.25839063916E+02  0.00000000000E+00 0. -1.
</event>
<event>
 7    1  0.6089676E-006  0.8996911E+02  0.7818608E-02  0.1340479E+00
          2   -1    0    0  502    0  0.00000000000E+00  0.00000000000E+00  0.25424586508E+04  0.25424586508E+04  0.00000000000E+00 0. -1.
          1   -1    0    0  501    0 -0.00000000000E+00 -0.00000000000E+00 -0.15707908124E+03  0.15707908124E+03  0.00000000000E+00 0. -1.
         25    2    1    2    0    0  0.66994238840E+02  0.13707837138E+03  0.54287187824E+03  0.57759423718E+03  0.12500607464E+03 0.  0.
          2    1    1    2  501    0 -0.35224618373E+02 -0.81083459962E+02 -0.12515447064E+03  0.15322840057E+03  0.00000000000E+00 0. -1.
          1    1    1    2  502    0 -0.31769620467E+02 -0.55994911422E+02  0.19676621619E+04  0.19687150942E+04  0.00000000000E+00 0. -1.
         22    1    3    3    0    0  0.27200086533E+02  0.14583195727E+03  0.48225435446E+03  0.50455531596E+03  0.00000000000E+00 0.  1.
         22    1    3    3    0    0  0.39794152306E+02 -0.87535858812E+01  0.60617523787E+02  0.73038921225E+02  0.00000000000E+00 0.  1.
</event>
<event>
 7    1  0.6089676E-006  0.1491884E+03  0.7818608E-02  0.1252109E+00
          2   -1    0    0  502    0  0.00000000000E+00  0.00000000000E+00  0.28325260947E+04  0.28325260947E+04  0.00000000000E+00 0. -1.
          1   -1    0    0  501    0 -0.00000000000E+00 -0.00000000000E+00 -0.18421817707E+03  0.18421817707E+03  0.00000000000E+00 0. -1.
         25    2    1    2    0    0 -0.84132751341E+02 -0.75136138153E+00  0.59138701149E+03  0.61028074088E+03  0.12500040379E+03 0.  0.
          2    1    1    2  501    0  0.13502285098E+03  0.72766016053E+02 -0.14006301445E+03  0.20771064344E+03  0.00000000000E+00 0. -1.
          1    1    1    2  502    0 -0.50890099640E+02 -0.72014654672E+02  0.21969839206E+04  0.21987528875E+04  0.00000000000E+00 0. -1.
         22    1    3    3    0    0 -0.42396190246E+02  0.46845799345E+02  0.46131885670E+03  0.46562544326E+03  0.00000000000E+00 0. -1.
         22    1    3    3    0    0 -0.41736561096E+02 -0.47597160727E+02  0.13006815479E+03  0.14465529763E+03  0.00000000000E+00 0. -1.
</event>
<event>
 7    1  0.6089676E-006  0.4587659E+02  0.7818608E-02  0.1471190E+00
          2   -1    0    0  502    0  0.00000000000E+00  0.00000000000E+00  0.14720582947E+04  0.14720582947E+04  0.00000000000E+00 0. -1.
          1   -1    0    0  501    0 -0.00000000000E+00 -0.00000000000E+00 -0.83369276214E+02  0.83369276214E+02  0.00000000000E+00 0. -1.
         25    2    1    2    0    0 -0.24048197485E+01  0.59107252234E+01  0.37041705034E+03  0.39098993415E+03  0.12499447026E+03 0.  0.
          2    1    1    2  501    0 -0.45122868875E+02  0.13791387348E+01 -0.65527102923E+02  0.79572460919E+02  0.00000000000E+00 0. -1.
          1    1    1    2  502    0  0.47527688624E+02 -0.72898639582E+01  0.10837990710E+04  0.10848651758E+04  0.00000000000E+00 0. -1.
         22    1    3    3    0    0 -0.80642677188E+01  0.65093460773E+02  0.20259564562E+03  0.21294878885E+03  0.00000000000E+00 0. -1.
         22    1    3    3    0    0  0.56594479703E+01 -0.59182735549E+02  0.16782140472E+03  0.17804114530E+03  0.00000000000E+00 0. -1.
</event>
<event>
 7    1  0.6089676E-006  0.2429392E+03  0.7818608E-02  0.1269099E+00
          2   -1    0    0  502    0  0.00000000000E+00  0.00000000000E+00  0.15064807809E+04  0.15064807809E+04  0.00000000000E+00 0. -1.
          1   -1    0    0  501    0 -0.00000000000E+00 -0.00000000000E+00 -0.69976547249E+03  0.69976547249E+03  0.00000000000E+00 0. -1.
         25    2    1    2    0    0 -0.20543357000E+03  0.33572469824E+02  0.24367418356E+03  0.34399393112E+03  0.12499861801E+03 0.  0.
          2    1    1    2  501    0 -0.45276936679E+02 -0.71116060750E+01 -0.63566888949E+03  0.63731900411E+03  0.00000000000E+00 0. -1.
          1    1    1    2  502    0  0.25071050668E+03 -0.26460863749E+02  0.11987100144E+04  0.12249333182E+04  0.00000000000E+00 0. -1.
         22    1    3    3    0    0 -0.21608888299E+03  0.49253866517E+02  0.23537456379E+03  0.32329790287E+03  0.00000000000E+00 0.  1.
         22    1    3    3    0    0  0.10655312993E+02 -0.15681396692E+02  0.82996197611E+01  0.20696028251E+02  0.00000000000E+00 0.  1.
</event>
<event>
 7    1  0.6089676E-006  0.3428905E+02  0.7818608E-02  0.1584674E+00
          2   -1    0    0  502    0  0.00000000000E+00  0.00000000000E+00  0.55322859945E+03  0.55322859945E+03  0.00000000000E+00 0. -1.
          1   -1    0    0  501    0 -0.00000000000E+00 -0.00000000000E+00 -0.20344200114E+03  0.20344200114E+03  0.00000000000E+00 0. -1.
         25    2    1    2    0    0 -0.24625737207E+02  0.42483462317E+02 -0.44254970105E+02  0.14140290375E+03  0.12500002923E+03 0.  0.
          2    1    1    2  501    0  0.30601256880E+02 -0.14637958679E+02 -0.10759889722E+03  0.11281945506E+03  0.00000000000E+00 0. -1.
          1    1    1    2  502    0 -0.59755196724E+01 -0.27845503638E+02  0.50164046563E+03  0.50244824178E+03  0.00000000000E+00 0. -1.
         22    1    3    3    0    0  0.13088411887E+02 -0.10098263564E+02  0.35225833588E+02  0.38911962231E+02  0.00000000000E+00 0. -1.
         22    1    3    3    0    0 -0.37714149094E+02  0.52581725881E+02 -0.79480803693E+02  0.10249094152E+03  0.00000000000E+00 0. -1.
</event>
<event>
 7    1  0.6089676E-006  0.1482064E+03  0.7818608E-02  0.1341805E+00
          2   -1    0    0  502    0  0.00000000000E+00  0.00000000000E+00  0.31073140692E+03  0.31073140692E+03  0.00000000000E+00 0. -1.
          1   -1    0    0  501    0 -0.00000000000E+00 -0.00000000000E+00 -0.16172204727E+04  0.16172204727E+04  0.00000000000E+00 0. -1.
         25    2    1    2    0    0  0.10600185751E+03 -0.57845691132E+02 -0.56645314563E+02  0.18280093786E+03  0.12499989377E+03 0.  0.
          2    1    1    2  501    0 -0.11586988640E+03  0.95200387641E+02 -0.14922089702E+04  0.14997254933E+04  0.00000000000E+00 0. -1.
          1    1    1    2  502    0  0.98680288969E+01 -0.37354696508E+02  0.24236521903E+03  0.24542544844E+03  0.00000000000E+00 0. -1.
         22    1    3    3    0    0 -0.31640607469E+01  0.25764300430E+02  0.12588369418E+02  0.28849220122E+02  0.00000000000E+00 0. -1.
         22    1    3    3    0    0  0.10916591825E+03 -0.83609991562E+02 -0.69233683980E+02  0.15395171774E+03  0.00000000000E+00 0. -1.
</event>
<event>
 7    1  0.6089676E-006  0.4726937E+02  0.7818608E-02  0.1478711E+00
          2   -1    0    0  502    0  0.00000000000E+00  0.00000000000E+00  0.13762221359E+04  0.13762221359E+04  0.00000000000E+00 0. -1.
          1   -1    0    0  501    0 -0.00000000000E+00 -0.00000000000E+00 -0.55507157273E+02  0.55507157273E+02  0.00000000000E+00 0. -1.
         25    2    1    2    0    0  0.38758719044E+02  0.35985109890E+02  0.21020508875E+03  0.25021830308E+03  0.12500341366E+03 0.  0.
          2    1    1    2  501    0  0.98352517665E+00 -0.48043693003E+02 -0.18680569798E+02  0.51557031016E+02  0.00000000000E+00 0. -1.
          1    1    1    2  502    0 -0.39742244221E+02  0.12058583114E+02  0.11291904597E+04  0.11299539591E+04  0.00000000000E+00 0. -1.
         22    1    3    3    0    0  0.10899025367E+02  0.55155547366E+02  0.24276975845E+02  0.61239649863E+02  0.00000000000E+00 0. -1.
         22    1    3    3    0    0  0.27859693677E+02 -0.19170437477E+02  0.18592811290E+03  0.18897865322E+03  0.00000000000E+00 0. -1.
</event>
<event>
 7    1  0.6089676E-006  0.7829253E+02  0.7818608E-02  0.1423883E+00
          2   -1    0    0  502    0  0.00000000000E+00  0.00000000000E+00  0.24259051062E+04  0.24259051062E+04  0.00000000000E+00 0. -1.
          1   -1    0    0  501    0 -0.00000000000E+00 -0.00000000000E+00 -0.10156571865E+03  0.10156571865E+03  0.00000000000E+00 0. -1.
         25    2    1    2    0    0 -0.11965419043E+02  0.50315865340E+02  0.52527686600E+03  0.54241340617E+03  0.12498663802E+03 0.  0.
          2    1    1    2  501    0 -0.33354614975E+02  0.17208030239E+02 -0.88299064709E+02  0.95944627120E+02  0.00000000000E+00 0. -1.
          1    1    1    2  502    0  0.45320034018E+02 -0.67523895578E+02  0.18873615862E+04  0.18891127915E+04  0.00000000000E+00 0. -1.
         22    1    3    3    0    0 -0.41489214949E+02  0.76417413787E+02  0.25828812335E+03  0.27253207289E+03  0.00000000000E+00 0. -1.
         22    1    3    3    0    0  0.29523795906E+02 -0.26101548447E+02  0.26698874265E+03  0.26988133329E+03  0.00000000000E+00 0. -1.
</event>
<event>
 7    1  0.6089676E-006  0.4368721E+02  0.7818608E-02  0.1531479E+00
          2   -1    0    0  502    0  0.00000000000E+00  0.00000000000E+00  0.11540977203E+04  0.11540977203E+04  0.00000000000E+00 0. -1.
          1   -1    0    0  501    0 -0.00000000000E+00 -0.00000000000E+00 -0.83460120855E+03  0.83460120855E+03  0.00000000000E+00 0. -1.
         25    2    1    2    0    0  0.67544851758E+02 -0.21475553651E+02 -0.10400362745E+02  0.14408398567E+03  0.12501408312E+03 0.  0.
          2    1    1    2  501    0 -0.43433931038E+02  0.14447492529E+01 -0.75650937551E+03  0.75775657628E+03  0.00000000000E+00 0. -1.
          1    1    1    2  502    0 -0.24110920719E+02  0.20030804398E+02  0.10864062500E+04  0.10868583669E+04  0.00000000000E+00 0. -1.
         22    1    3    3    0    0  0.45295005799E+02  0.37417467221E+02  0.33220221838E+02  0.67492870309E+02  0.00000000000E+00 0. -1.
         22    1    3    3    0    0  0.22249845959E+02 -0.58893020872E+02 -0.43620584583E+02  0.76591115359E+02  0.00000000000E+00 0. -1.
</event>
<event>
 7    1  0.6089676E-006  0.8088571E+02  0.7818608E-02  0.1403270E+00
          2   -1    0    0  502    0  0.00000000000E+00  0.00000000000E+00  0.33379738759E+03  0.33379738759E+03  0.00000000000E+00 0. -1.
          1   -1    0    0  501    0 -0.00000000000E+00 -0.00000000000E+00 -0.72569332695E+03  0.72569332695E+03  0.00000000000E+00 0. -1.
         25    2    1    2    0    0 -0.47074556203E+01 -0.98012421416E+02 -0.11179856955E+02  0.15930207406E+03  0.12499426671E+03 0.  0.
          2    1    1    2  501    0  0.37831715143E+02  0.71173231072E+02 -0.63614257495E+03  0.64122869801E+03  0.00000000000E+00 0. -1.
          1    1    1    2  502    0 -0.33124259523E+02  0.26839190344E+02  0.25542649254E+03  0.25895994246E+03  0.00000000000E+00 0. -1.
         22    1    3    3    0    0  0.45375981432E+02 -0.56602092067E+01  0.19712847482E+02  0.49795722859E+02  0.00000000000E+00 0. -1.
         22    1    3    3    0    0 -0.50083437052E+02 -0.92352212209E+02 -0.30892704437E+02  0.10950635121E+03  0.00000000000E+00 0. -1.
</event>
<event>
 7    1  0.6089676E-006  0.5274273E+02  0.7818608E-02  0.1441074E+00
          2   -1    0    0  502    0  0.00000000000E+00  0.00000000000E+00  0.17094129278E+03  0.17094129278E+03  0.00000000000E+00 0. -1.
          1   -1    0    0  501    0 -0.00000000000E+00 -0.00000000000E+00 -0.61638360069E+03  0.61638360069E+03  0.00000000000E+00 0. -1.
         25    2    1    2    0    0  0.12448319610E+02  0.45649102574E+01 -0.16283414631E+03  0.20570790693E+03  0.12499993881E+03 0.  0.
          2    1    1    2  501    0 -0.20081686961E+02 -0.52894556910E+02 -0.42618906430E+03  0.42992816474E+03  0.00000000000E+00 0. -1.
          1    1    1    2  502    0  0.76333673509E+01  0.48329646652E+02  0.14358090270E+03  0.15168882181E+03  0.00000000000E+00 0. -1.
         22    1    3    3    0    0 -0.18675940584E+02 -0.54367836540E+02 -0.91711296343E+02  0.10823869125E+03  0.00000000000E+00 0. -1.
         22    1    3    3    0    0  0.31124260195E+02  0.58932746798E+02 -0.71122849963E+02  0.97469215677E+02  0.00000000000E+00 0. -1.
</event>
<event>
 7    1  0.6089676E-006  0.1225253E+03  0.7818608E-02  0.1249804E+00
          2   -1    0    0  502    0  0.00000000000E+00  0.00000000000E+00  0.63799371668E+03  0.63799371668E+03  0.00000000000E+00 0. -1.
          1   -1    0    0  501    0 -0.00000000000E+00 -0.00000000000E+00 -0.12276163111E+03  0.12276163111E+03  0.00000000000E+00 0. -1.
         25    2    1    2    0    0  0.10576471130E+02 -0.52778543364E+02  0.12846505185E+03  0.18715077492E+03  0.12499882650E+03 0.  0.
          2    1    1    2  501    0 -0.95759643618E+02  0.12216651943E+03 -0.16070048547E+02  0.15605388260E+03  0.00000000000E+00 0. -1.
          1    1    1    2  502    0  0.85183172489E+02 -0.69387976067E+02  0.40283708226E+03  0.41755069027E+03  0.00000000000E+00 0. -1.
         22    1    3    3    0    0 -0.49567163674E+02 -0.49070445890E+02  0.96122818620E+02  0.11876198312E+03  0.00000000000E+00 0.  1.
         22    1    3    3    0    0  0.60143634804E+02 -0.37080974745E+01  0.32342233233E+02  0.68388791807E+02  0.00000000000E+00 0.  1.
</event>
<event>
 7    1  0.6089676E-006  0.7828272E+02  0.7818608E-02  0.1363462E+00
          2   -1    0    0  502    0  0.00000000000E+00  0.00000000000E+00  0.16507828323E+04  0.16507828323E+04  0.00000000000E+00 0. -1.
          1   -1    0    0  501    0 -0.00000000000E+00 -0.00000000000E+00 -0.20918402154E+03  0.20918402154E+03  0.00000000000E+00 0. -1.
         25    2    1    2    0    0  0.82011232506E+02  0.68981942750E+02 -0.34509198701E+02  0.16823198372E+03  0.12500705927E+03 0.  0.
          2    1    1    2  501    0 -0.74875789884E+02 -0.85508809817E+01 -0.93981929476E+02  0.12046619669E+03  0.00000000000E+00 0. -1.
          1    1    1    2  502    0 -0.71354426219E+01 -0.60431061769E+02  0.15700899390E+04  0.15712686735E+04  0.00000000000E+00 0. -1.
         22    1    3    3    0    0 -0.18748395514E+02  0.26694262602E+02 -0.48098282341E+02  0.58116527377E+02  0.00000000000E+00 0. -1.
         22    1    3    3    0    0  0.10075962802E+03  0.42287680149E+02  0.13589083640E+02  0.11011545634E+03  0.00000000000E+00 0. -1.
</event>
<event>
 7    1  0.6089676E-006  0.1376041E+03  0.7818608E-02  0.1273695E+00
          2   -1    0    0  502    0  0.00000000000E+00  0.00000000000E+00  0.77721149161E+03  0.77721149161E+03  0.00000000000E+00 0. -1.
          1   -1    0    0  501    0 -0.00000000000E+00 -0.00000000000E+00 -0.32825876264E+03  0.32825876264E+03  0.00000000000E+00 0. -1.
         25    2    1    2    0    0 -0.94549388764E+02  0.18136448603E+03  0.38657470095E+02  0.24280007131E+03  0.12499924369E+03 0.  0.
          2    1    1    2  501    0  0.70842464707E+02 -0.10767723509E+03 -0.20520231948E+03  0.24232423255E+03  0.00000000000E+00 0. -1.
          1    1    1    2  502    0  0.23706924057E+02 -0.73687250942E+02  0.61549757835E+03  0.62034595038E+03  0.00000000000E+00 0. -1.
         22    1    3    3    0    0  0.27770604211E+02  0.35700922042E+02 -0.10304261097E+02  0.46389008285E+02  0.00000000000E+00 0.  1.
         22    1    3    3    0    0 -0.12231999298E+03  0.14566356399E+03  0.48961731192E+02  0.19641106302E+03  0.00000000000E+00 0.  1.
</event>
<event>
 7    1  0.6089676E-006  0.5046445E+02  0.7818608E-02  0.1454827E+00
          2   -1    0    0  502    0  0.00000000000E+00  0.00000000000E+00  0.34686770497E+03  0.34686770497E+03  0.00000000000E+00 0. -1.
          1   -1    0    0  501    0 -0.00000000000E+00 -0.00000000000E+00 -0.27398670828E+03  0.27398670828E+03  0.00000000000E+00 0. -1.
         25    2    1    2    0    0  0.53790015163E+02  0.67740611422E+02  0.12699981660E+02  0.15253534204E+03  0.12499433935E+03 0.  0.
          2    1    1    2  501    0 -0.43935983388E+02 -0.22607394210E+02 -0.19900543641E+03  0.20504786912E+03  0.00000000000E+00 0. -1.
          1    1    1    2  502    0 -0.98540317748E+01 -0.45133217212E+02  0.25918645145E+03  0.26327120209E+03  0.00000000000E+00 0. -1.
         22    1    3    3    0    0  0.72886677687E+02  0.27034373922E+01 -0.22273231410E+02  0.76261872488E+02  0.00000000000E+00 0. -1.
         22    1    3    3    0    0 -0.19096662524E+02  0.65037174030E+02  0.34973213070E+02  0.76273469554E+02  0.00000000000E+00 0. -1.
</event>
<event>
 7    1  0.6089676E-006  0.6285700E+02  0.7818608E-02  0.1496749E+00
          2   -1    0    0  502    0  0.00000000000E+00  0.00000000000E+00  0.25258636106E+04  0.25258636106E+04  0.00000000000E+00 0. -1.
          1   -1    0    0  501    0 -0.00000000000E+00 -0.00000000000E+00 -0.14401115959E+03  0.14401115959E+03  0.00000000000E+00 0. -1.
         25    2    1    2    0    0 -0.36473100982E+02 -0.18392666388E+02 -0.41732200877E+01  0.13157113469E+03  0.12499988178E+03 0.  0.
          2    1    1    2  501    0 -0.25881234312E+02  0.93934918173E+01 -0.73233190585E+02  0.78237945917E+02  0.00000000000E+00 0. -1.
          1    1    1    2  502    0  0.62354335294E+02  0.89991745706E+01  0.24592588617E+04  0.24600656896E+04  0.00000000000E+00 0. -1.
         22    1    3    3    0    0 -0.78271390232E+02 -0.11766111726E+02  0.21568455614E+02  0.82036883117E+02  0.00000000000E+00 0.  1.
         22    1    3    3    0    0  0.41798289250E+02 -0.66265546617E+01 -0.25741675702E+02  0.49534251572E+02  0.00000000000E+00 0.  1.
</event>
<event>
 7    1  0.6089676E-006  0.9507274E+02  0.7818608E-02  0.1317398E+00
          2   -1    0    0  502    0  0.00000000000E+00  0.00000000000E+00  0.70867944844E+03  0.70867944844E+03  0.00000000000E+00 0. -1.
          1   -1    0    0  501    0 -0.00000000000E+00 -0.00000000000E+00 -0.48392548787E+02  0.48392548787E+02  0.00000000000E+00 0. -1.
         25    2    1    2    0    0 -0.34121148974E+02 -0.16378314773E+02  0.11493585537E+03  0.17397691279E+03  0.12500085333E+03 0.  0.
          2    1    1    2  501    0 -0.38141552910E+02 -0.64187196377E+02  0.10009540773E+03  0.12487539744E+03  0.00000000000E+00 0. -1.
          1    1    1    2  502    0  0.72262701884E+02  0.80565511151E+02  0.44525563654E+03  0.45821968699E+03  0.00000000000E+00 0. -1.
         22    1    3    3    0    0 -0.70387017588E+02  0.23779904065E+02  0.81907096730E+02  0.11058294885E+03  0.00000000000E+00 0.  1.
         22    1    3    3    0    0  0.36265868614E+02 -0.40158218838E+02  0.33028758645E+02  0.63393963941E+02  0.00000000000E+00 0.  1.
</event>
<event>
 7    1  0.6089676E-006  0.1074376E+03  0.7818608E-02  0.1283220E+00
          2   -1    0    0  502    0  0.00000000000E+00  0.00000000000E+00  0.14843825896E+04  0.14843825896E+04  0.00000000000E+00 0. -1.
          1   -1    0    0  501    0 -0.00000000000E+00 -0.00000000000E+00 -0.40202739363E+02  0.40202739363E+02  0.00000000000E+00 0. -1.
         25    2    1    2    0    0 -0.99049450737E+01  0.88878574825E+01  0.49152094468E+03  0.50734060068E+03  0.12499817635E+03 0.  0.
          2    1    1    2  501    0 -0.60399180143E+02 -0.90129320621E+02  0.72356085280E+02  0.13040996310E+03  0.00000000000E+00 0. -1.
          1    1    1    2  502    0  0.70304125217E+02  0.81241463139E+02  0.88030282024E+03  0.88683476515E+03  0.00000000000E+00 0. -1.
         22    1    3    3    0    0 -0.29115801938E+02  0.62068149957E+02  0.29383751285E+03  0.30172946346E+03  0.00000000000E+00 0.  1.
         22    1    3    3    0    0  0.19210856865E+02 -0.53180292474E+02  0.19768343182E+03  0.20561113721E+03  0.00000000000E+00 0.  1.
</event>
<event>
 7    1  0.6089676E-006  0.1768331E+03  0.7818608E-02  0.1278802E+00
          2   -1    0    0  502    0  0.00000000000E+00  0.00000000000E+00  0.27745609724E+03  0.27745609724E+03  0.00000000000E+00 0. -1.
          1   -1    0    0  501    0 -0.00000000000E+00 -0.00000000000E+00 -0.31664675205E+04  0.31664675205E+04  0.00000000000E+00 0. -1.
         25    2    1    2    0    0  0.22374910630E+02  0.14165755493E+03 -0.31027327590E+03  0.36395246529E+03  0.12499756700E+03 0.  0.
          2    1    1    2  501    0 -0.74889314965E+02 -0.16473365472E+03 -0.28231373146E+04  0.28289308729E+04  0.00000000000E+00 0. -1.
          1    1    1    2  502    0  0.52514404335E+02  0.23076099793E+02  0.24439916722E+03  0.25104027960E+03  0.00000000000E+00 0. -1.
         22    1    3    3    0    0 -0.18720409184E+02  0.14497152965E+03 -0.26555904080E+03  0.30313165832E+03  0.00000000000E+00 0. -1.
         22    1    3    3    0    0  0.41095319814E+02 -0.33139747203E+01 -0.44714235109E+02  0.60820806969E+02  0.00000000000E+00 0. -1.
</event>
<event>
 7    1  0.6089676E-006  0.1797546E+03  0.7818608E-02  0.1284497E+00
          2   -1    0    0  502    0  0.00000000000E+00  0.00000000000E+00  0.78678545818E+03  0.78678545818E+03  0.00000000000E+00 0. -1.
          1   -1    0    0  501    0 -0.00000000000E+00 -0.00000000000E+00 -0.74891568628E+03  0.74891568628E+03  0.00000000000E+00 0. -1.
         25    2    1    2    0    0 -0.10466438041E+03 -0.10805258787E+03  0.64038719058E+01  0.19569436639E+03  0.12500112476E+03 0.  0.
          2    1    1    2  501    0  0.15682801467E+03  0.96353636548E+02 -0.64024204458E+03  0.66617484575E+03  0.00000000000E+00 0. -1.
          1    1    1    2  502    0 -0.52163634266E+02  0.11698951326E+02  0.67170794458E+03  0.67383193232E+03  0.00000000000E+00 0. -1.
         22    1    3    3    0    0 -0.61717199905E+02 -0.13206186719E+03  0.11521830357E+02  0.14622620184E+03  0.00000000000E+00 0.  1.
         22    1    3    3    0    0 -0.42947180500E+02  0.24009279311E+02 -0.51179584514E+01  0.49468164557E+02  0.00000000000E+00 0.  1.
</event>
<event>
 7    1  0.6089676E-006  0.1072731E+03  0.7818608E-02  0.1298594E+00
          2   -1    0    0  502    0  0.00000000000E+00  0.00000000000E+00  0.70371155931E+03  0.70371155931E+03  0.00000000000E+00 0. -1.
          1   -1    0    0  501    0 -0.00000000000E+00 -0.00000000000E+00 -0.84373331554E+03  0.84373331554E+03  0.00000000000E+00 0. -1.
         25    2    1    2    0    0  0.17292407634E+03  0.40425373941E+02 -0.53586827788E+02  0.22368204034E+03  0.12500064008E+03 0.  0.
          2    1    1    2  501    0 -0.94479766656E+02 -0.44031028937E+02 -0.69872524419E+03  0.70645744718E+03  0.00000000000E+00 0. -1.
          1    1    1    2  502    0 -0.78444309685E+02  0.36056549964E+01  0.61229031575E+03  0.61730538733E+03  0.00000000000E+00 0. -1.
         22    1    3    3    0    0  0.14404037991E+03  0.82260294502E+02 -0.47103890306E+02  0.17243306985E+03  0.00000000000E+00 0.  1.
         22    1    3    3    0    0  0.28883696434E+02 -0.41834920561E+02 -0.64829374817E+01  0.51248970491E+02  0.00000000000E+00 0.  1.
</event>
<event>
 7    1  0.6089676E-006  0.8921523E+02  0.7818608E-02  0.1428021E+00
          2   -1    0    0  502    0  0.00000000000E+00  0.00000000000E+00  0.16144894442E+04  0.16144894442E+04  0.00000000000E+00 0. -1.
          1   -1    0    0  501    0 -0.00000000000E+00 -0.00000000000E+00 -0.45553162832E+02  0.45553162832E+02  0.00000000000E+00 0. -1.
         25    2    1    2    0    0 -0.55156974955E+02  0.98787444326E+02  0.24430036072E+03  0.29683172397E+03  0.12500062025E+03 0.  0.
          2    1    1    2  501    0  0.36411690635E+02 -0.72958675197E+02  0.68009943965E+02  0.10617971548E+03  0.00000000000E+00 0. -1.
          1    1    1    2  502    0  0.18745284320E+02 -0.25828769129E+02  0.12566259767E+04  0.12570311676E+04  0.00000000000E+00 0. -1.
         22    1    3    3    0    0 -0.54197485153E+02 -0.10444167774E+02  0.11504305539E+03  0.12759840371E+03  0.00000000000E+00 0.  1.
         22    1    3    3    0    0 -0.95948980218E+00  0.10923161210E+03  0.12925730533E+03  0.16923332025E+03  0.00000000000E+00 0.  1.
</event>
<event>
 7    1  0.6089676E-006  0.8844046E+02  0.7818608E-02  0.1451617E+00
          2   -1    0    0  502    0  0.00000000000E+00  0.00000000000E+00  0.89480580333E+03  0.89480580333E+03  0.00000000000E+00 0. -1.
          1   -1    0    0  501    0 -0.00000000000E+00 -0.00000000000E+00 -0.90766477761E+03  0.90766477761E+03  0.00000000000E+00 0. -1.
         25    2    1    2    0    0  0.11206325021E+02  0.68708468573E+02  0.85525527640E+02  0.16669048752E+03  0.12499866950E+03 0.  0.
          2    1    1    2  501    0  0.22860858001E+02  0.14342844382E+02 -0.86425025016E+03  0.86467151620E+03  0.00000000000E+00 0. -1.
          1    1    1    2  502    0 -0.34067183022E+02 -0.83051312955E+02  0.76586574824E+03  0.77110857723E+03  0.00000000000E+00 0. -1.
         22    1    3    3    0    0  0.54619483241E+02  0.43708000035E+01  0.67626433140E+02  0.87038648320E+02  0.00000000000E+00 0. -1.
         22    1    3    3    0    0 -0.43413158220E+02  0.64337668570E+02  0.17899094499E+02  0.79651839197E+02  0.00000000000E+00 0. -1.
</event>
<event>
 7    1  0.6089676E-006  0.1649013E+03  0.7818608E-02  0.1265422E+00
          2   -1    0    0  502    0  0.00000000000E+00  0.00000000000E+00  0.26103942918E+04  0.26103942918E+04  0.00000000000E+00 0. -1.
          1   -1    0    0  501    0 -0.00000000000E+00 -0.00000000000E+00 -0.35851167321E+02  0.35851167321E+02  0.00000000000E+00 0. -1.
         25    2    1    2    0    0  0.82876527075E+02  0.10161434866E+03  0.16286387368E+04  0.16386832543E+04  0.12499871306E+03 0.  0.
          2    1    1    2  501    0 -0.50716209461E+02 -0.16376297712E+03  0.22301445909E+03  0.28129325541E+03  0.00000000000E+00 0. -1.
          1    1    1    2  502    0 -0.32160317614E+02  0.62148628458E+02  0.72288992855E+03  0.72626894939E+03  0.00000000000E+00 0. -1.
         22    1    3    3    0    0  0.78865077695E+02  0.12675746360E+03  0.11935655045E+04  0.12028656486E+04  0.00000000000E+00 0. -1.
         22    1    3    3    0    0  0.40114493799E+01 -0.25143114946E+02  0.43507323231E+03  0.43581760568E+03  0.00000000000E+00 0. -1.
</event>
<event>
 7    1  0.6089676E-006  0.7613449E+02  0.7818608E-02  0.1437193E+00
          2   -1    0    0  502    0  0.00000000000E+00  0.00000000000E+00  0.22293188755E+03  0.22293188755E+03  0.00000000000E+00 0. -1.
          1   -1    0    0  501    0 -0.00000000000E+00 -0.00000000000E+00 -0.33027765108E+03  0.33027765108E+03  0.00000000000E+00 0. -1.
         25    2    1    2    0    0  0.98726936609E+02  0.33684137738E+02 -0.87909916005E+02  0.18502209512E+03  0.12499357265E+03 0.  0.
          2    1    1    2  501    0 -0.63834192491E+02 -0.34028202200E+02 -0.18518135431E+03  0.19880859302E+03  0.00000000000E+00 0. -1.
          1    1    1    2  502    0 -0.34892744118E+02  0.34406446199E+00  0.16574550678E+03  0.16937885048E+03  0.00000000000E+00 0. -1.
         22    1    3    3    0    0  0.12857660935E+03  0.21573916552E+02 -0.66613526782E+02  0.14640608013E+03  0.00000000000E+00 0.  1.
         22    1    3    3    0    0 -0.29849672744E+02  0.12110221186E+02 -0.21296389224E+02  0.38616014994E+02  0.00000000000E+00 0.  1.
</event>
<event>
 7    1  0.6089676E-006  0.1028251E+03  0.7818608E-02  0.1318942E+00
          2   -1    0    0  502    0  0.00000000000E+00  0.00000000000E+00  0.12040804236E+04  0.12040804236E+04  0.00000000000E+00 0. -1.
          1   -1    0    0  501    0 -0.00000000000E+00 -0.00000000000E+00 -0.20116746515E+04  0.20116746515E+04  0.00000000000E+00 0. -1.
         25    2    1    2    0    0  0.90009186020E+02 -0.11519603083E+03  0.10684708157E+03  0.22002925609E+03  0.12499918244E+03 0.  0.
          2    1    1    2  501    0 -0.23685018618E+02  0.99804494438E+02 -0.19526222117E+04  0.19553146598E+04  0.00000000000E+00 0. -1.
          1    1    1    2  502    0 -0.66324167402E+02  0.15391536391E+02  0.10381809022E+04  0.10404111592E+04  0.00000000000E+00 0. -1.
         22    1    3    3    0    0  0.68448550542E+02 -0.37098794992E+02  0.11470345835E+03  0.13863047291E+03  0.00000000000E+00 0. -1.
         22    1    3    3    0    0  0.21560635479E+02 -0.78097235837E+02 -0.78563767830E+01  0.81398783183E+02  0.00000000000E+00 0. -1.
</event>
<event>
 7    1  0.6231117E-006  0.6687599E+02  0.7818608E-02  0.1464347E+00
          2   -1    0    0  502    0  0.00000000000E+00  0.00000000000E+00  0.24132191339E+04  0.24132191339E+04  0.00000000000E+00 0. -1.
          1   -1    0    0  501    0 -0.00000000000E+00 -0.00000000000E+00 -0.65118820640E+03  0.65118820640E+03  0.00000000000E+00 0. -1.
         25    2    1    2    0    0  0.69430110313E+02 -0.48937668235E+02 -0.18483289892E+02  0.15225777503E+03  0.12500144984E+03 0.  0.
          2    1    1    2  501    0 -0.47607598361E+01  0.32178977600E+02 -0.56487412656E+03  0.56580997719E+03  0.00000000000E+00 0. -1.
          1    1    1    2  502    0 -0.64669350477E+02  0.16758690634E+02  0.23453883440E+04  0.23463395881E+04  0.00000000000E+00 0. -1.
         22    1    3    3    0    0 -0.21511662021E+02 -0.30618055572E+02 -0.42304982509E+02  0.56479451795E+02  0.00000000000E+00 0.  1.
         22    1    3    3    0    0  0.90941772334E+02 -0.18319612662E+02  0.23821692616E+02  0.95778323239E+02  0.00000000000E+00 0.  1.
</event>
<event>
 7    1  0.6089676E-006  0.1483012E+03  0.7818608E-02  0.1241792E+00
          2   -1    0    0  502    0  0.00000000000E+00  0.00000000000E+00  0.10561199277E+04  0.10561199277E+04  0.00000000000E+00 0. -1.
          1   -1    0    0  501    0 -0.00000000000E+00 -0.00000000000E+00 -0.52955825953E+03  0.52955825953E+03  0.00000000000E+00 0. -1.
         25    2    1    2    0    0  0.41206972710E+02 -0.54812551153E+02  0.10903925184E+03  0.17949163374E+03  0.12500103110E+03 0.  0.
          2    1    1    2  501    0  0.77546283828E+02 -0.60556566672E+02 -0.48180354967E+03  0.49174707358E+03  0.00000000000E+00 0. -1.
          1    1    1    2  502    0 -0.11875325654E+03  0.11536911783E+03  0.89932596601E+03  0.91443947991E+03  0.00000000000E+00 0. -1.
         22    1    3    3    0    0  0.71575774188E+02 -0.31680277265E+02  0.11673502055E+03  0.14054819971E+03  0.00000000000E+00 0. -1.
         22    1    3    3    0    0 -0.30368801478E+02 -0.23132273888E+02 -0.76957687079E+01  0.38943434035E+02  0.00000000000E+00 0. -1.
</event>
<event>
 7    1  0.6089676E-006  0.7545626E+02  0.7818608E-02  0.1453927E+00
          2   -1    0    0  502    0  0.00000000000E+00  0.00000000000E+00  0.48186248366E+03  0.48186248366E+03  0.00000000000E+00 0. -1.
          1   -1    0    0  501    0 -0.00000000000E+00 -0.00000000000E+00 -0.25612082785E+03  0.25612082785E+03  0.00000000000E+00 0. -1.
         25    2    1    2    0    0 -0.52428316924E+02  0.90963316355E+02 -0.81724409189E+01  0.16344819055E+03  0.12500187545E+03 0.  0.
          2    1    1    2  501    0  0.11801349381E+02 -0.28774067550E+02 -0.16543656998E+03  0.16833442161E+03  0.00000000000E+00 0. -1.
          1    1    1    2  502    0  0.40626967543E+02 -0.62189248805E+02  0.39935066670E+03  0.40620069935E+03  0.00000000000E+00 0. -1.
         22    1    3    3    0    0 -0.55038533896E+02  0.12081050374E+03 -0.15603863194E+01  0.13276615846E+03  0.00000000000E+00 0.  1.
         22    1    3    3    0    0  0.26102169717E+01 -0.29847187383E+02 -0.66120545994E+01  0.30682032093E+02  0.00000000000E+00 0.  1.
</event>
<event>
 7    1  0.6089676E-006  0.1055933E+03  0.7818608E-02  0.1327052E+00
          2   -1    0    0  502    0  0.00000000000E+00  0.00000000000E+00  0.13584427440E+04  0.13584427440E+04  0.00000000000E+00 0. -1.
          1   -1    0    0  501    0 -0.00000000000E+00 -0.00000000000E+00 -0.47577331933E+03  0.47577331933E+03  0.00000000000E+00 0. -1.
         25    2    1    2    0    0 -0.11175036094E+02 -0.74212057332E+02  0.35499403719E+03  0.38376716880E+03  0.12499665006E+03 0.  0.
          2    1    1    2  501    0  0.72775555492E+02  0.77508400533E+02 -0.45428105446E+03  0.46655665259E+03  0.00000000000E+00 0. -1.
          1    1    1    2  502    0 -0.61600519398E+02 -0.32963432014E+01  0.98195644195E+03  0.98389224194E+03  0.00000000000E+00 0. -1.
         22    1    3    3    0    0  0.32079248032E+02  0.46957168543E+01  0.21443007998E+03  0.21686721078E+03  0.00000000000E+00 0.  1.
         22    1    3    3    0    0 -0.43254284126E+02 -0.78907774186E+02  0.14056395721E+03  0.16689995803E+03  0.00000000000E+00 0.  1.
</event>
<event>
 7    1  0.6089676E-006  0.8127856E+02  0.7818608E-02  0.1399172E+00
          2   -1    0    0  502    0  0.00000000000E+00  0.00000000000E+00  0.26065600399E+04  0.26065600399E+04  0.00000000000E+00 0. -1.
          1   -1    0    0  501    0 -0.00000000000E+00 -0.00000000000E+00 -0.61121807759E+02  0.61121807759E+02  0.00000000000E+00 0. -1.
         25    2    1    2    0    0  0.11073716919E+02 -0.11108383679E+03  0.42082305663E+03  0.45296715595E+03  0.12499981350E+03 0.  0.
          2    1    1    2  501    0 -0.31912787545E+02  0.72531943542E+02 -0.98034647482E+01  0.79846206948E+02  0.00000000000E+00 0. -1.
          1    1    1    2  502    0  0.20839070626E+02  0.38551893250E+02  0.21344186403E+04  0.21348684848E+04  0.00000000000E+00 0. -1.
         22    1    3    3    0    0  0.58277370216E+02 -0.39584840697E+02  0.11060896371E+03  0.13113944618E+03  0.00000000000E+00 0. -1.
         22    1    3    3    0    0 -0.47203653296E+02 -0.71498996095E+02  0.31021409292E+03  0.32182770977E+03  0.00000000000E+00 0. -1.
</event>
<event>
 7    1  0.6089676E-006  0.6211902E+02  0.7818608E-02  0.1430277E+00
          2   -1    0    0  502    0  0.00000000000E+00  0.00000000000E+00  0.23915292204E+04  0.23915292204E+04  0.00000000000E+00 0. -1.
          1   -1    0    0  501    0 -0.00000000000E+00 -0.00000000000E+00 -0.11046907159E+02  0.11046907159E+02  0.00000000000E+00 0. -1.
         25    2    1    2    0    0  0.40892127069E+02  0.82086421843E+02  0.14262582162E+04  0.14346595942E+04  0.12500122110E+03 0.  0.
          2    1    1    2  501    0 -0.16986283207E+01 -0.59860841506E+02  0.13779820875E+03  0.15024830122E+03  0.00000000000E+00 0. -1.
          1    1    1    2  502    0 -0.39193498748E+02 -0.22225580337E+02  0.81642588833E+03  0.81766823218E+03  0.00000000000E+00 0. -1.
         22    1    3    3    0    0  0.27019389702E+02 -0.30964501629E+02  0.39269077738E+03  0.39483527504E+03  0.00000000000E+00 0. -1.
         22    1    3    3    0    0  0.13872737367E+02  0.11305092347E+03  0.10335674388E+04  0.10398243192E+04  0.00000000000E+00 0. -1.
</event>
<event>
 7    1  0.6089676E-006  0.6715917E+02  0.7818608E-02  0.1371200E+00
          2   -1    0    0  502    0  0.00000000000E+00  0.00000000000E+00  0.29498985828E+04  0.29498985828E+04  0.00000000000E+00 0. -1.
          1   -1    0    0  501    0 -0.00000000000E+00 -0.00000000000E+00 -0.52995056262E+02  0.52995056262E+02  0.00000000000E+00 0. -1.
         25    2    1    2    0    0 -0.63361627885E+02 -0.22124723089E+02  0.97656983673E+03  0.98682187981E+03  0.12499830876E+03 0.  0.
          2    1    1    2  501    0  0.48591045195E+02 -0.46360167175E+02 -0.23367513388E+02  0.71108336049E+02  0.00000000000E+00 0. -1.
          1    1    1    2  502    0  0.14770582689E+02  0.68484890264E+02  0.19437012032E+04  0.19449634232E+04  0.00000000000E+00 0. -1.
         22    1    3    3    0    0 -0.29330355659E+02 -0.35412418448E+02  0.90768336574E+03  0.90884729277E+03  0.00000000000E+00 0.  1.
         22    1    3    3    0    0 -0.34031272226E+02  0.13287695359E+02  0.68886470995E+02  0.77974587036E+02  0.00000000000E+00 0.  1.
</event>
<event>
 7    1  0.6089676E-006  0.1713507E+03  0.7818608E-02  0.1396027E+00
          2   -1    0    0  502    0  0.00000000000E+00  0.00000000000E+00  0.27221751194E+04  0.27221751194E+04  0.00000000000E+00 0. -1.
          1   -1    0    0  501    0 -0.00000000000E+00 -0.00000000000E+00 -0.33616602370E+02  0.33616602370E+02  0.00000000000E+00 0. -1.
         25    2    1    2    0    0 -0.62504507025E+02  0.14197644277E+03  0.15565885105E+04  0.15692855171E+04  0.12500047825E+03 0.  0.
          2    1    1    2  501    0  0.61077828657E+02 -0.16324199817E+03  0.25270274794E+03  0.30698066704E+03  0.00000000000E+00 0. -1.
          1    1    1    2  502    0  0.14266783687E+01  0.21265555396E+02  0.87926725858E+03  0.87952553759E+03  0.00000000000E+00 0. -1.
         22    1    3    3    0    0 -0.33152229969E+01 -0.19490777703E+02  0.68603548593E+02  0.71395574083E+02  0.00000000000E+00 0. -1.
         22    1    3    3    0    0 -0.59189284029E+02  0.16146722048E+03  0.14879849619E+04  0.14978899430E+04  0.00000000000E+00 0. -1.
</event>
<event>
 7    1  0.6089676E-006  0.9968735E+02  0.7818608E-02  0.1386025E+00
          2   -1    0    0  502    0  0.00000000000E+00  0.00000000000E+00  0.21971994633E+03  0.21971994633E+03  0.00000000000E+00 0. -1.
          1   -1    0    0  501    0 -0.00000000000E+00 -0.00000000000E+00 -0.16343128370E+04  0.16343128370E+04  0.00000000000E+00 0. -1.
         25    2    1    2    0    0  0.43675163219E+02  0.10106349861E+03  0.76970466349E+01  0.16677430461E+03  0.12503228990E+03 0.  0.
          2    1    1    2  501    0  0.25316767796E+02 -0.30574950939E+02 -0.15361243196E+04  0.15366371373E+04  0.00000000000E+00 0. -1.
          1    1    1    2  502    0 -0.68991931015E+02 -0.70488547674E+02  0.11383438231E+03  0.15062134143E+03  0.00000000000E+00 0. -1.
         22    1    3    3    0    0 -0.29932070854E+02  0.46225839938E+02  0.41502577958E+02  0.68958111348E+02  0.00000000000E+00 0. -1.
         22    1    3    3    0    0  0.73607234073E+02  0.54837658675E+02 -0.33805531323E+02  0.97816193265E+02  0.00000000000E+00 0. -1.
</event>
<event>
 7    1  0.6089676E-006  0.3696334E+02  0.7818608E-02  0.1549871E+00
          2   -1    0    0  502    0  0.00000000000E+00  0.00000000000E+00  0.48326058071E+03  0.48326058071E+03  0.00000000000E+00 0. -1.
          1   -1    0    0  501    0 -0.00000000000E+00 -0.00000000000E+00 -0.66857291948E+03  0.66857291948E+03  0.00000000000E+00 0. -1.
         25    2    1    2    0    0  0.46285637645E+02  0.40606678491E+02  0.13207537027E+03  0.19198919450E+03  0.12499873912E+03 0.  0.
          2    1    1    2  501    0 -0.11298534051E+02 -0.30868461708E+02 -0.63716450325E+03  0.63801185177E+03  0.00000000000E+00 0. -1.
          1    1    1    2  502    0 -0.34987103593E+02 -0.97382167836E+01  0.31977679420E+03  0.32183245391E+03  0.00000000000E+00 0. -1.
         22    1    3    3    0    0 -0.33862164427E+02 -0.15115217205E+00  0.20791523442E+01  0.33926271547E+02  0.00000000000E+00 0. -1.
         22    1    3    3    0    0  0.80147802071E+02  0.40757830663E+02  0.12999621793E+03  0.15806292296E+03  0.00000000000E+00 0. -1.
</event>
<event>
 7    1  0.6089676E-006  0.5743551E+02  0.7818608E-02  0.1471998E+00
          2   -1    0    0  502    0  0.00000000000E+00  0.00000000000E+00  0.34036024574E+04  0.34036024574E+04  0.00000000000E+00 0. -1.
          1   -1    0    0  501    0 -0.00000000000E+00 -0.00000000000E+00 -0.20513263345E+03  0.20513263345E+03  0.00000000000E+00 0. -1.
         25    2    1    2    0    0  0.37176114254E+02 -0.18117361604E+02  0.41437837813E+02  0.13801742575E+03  0.12498565176E+03 0.  0.
          2    1    1    2  501    0  0.19072286922E+02  0.30356951632E+02 -0.15454072442E+03  0.15864467261E+03  0.00000000000E+00 0. -1.
          1    1    1    2  502    0 -0.56248401176E+02 -0.12239590027E+02  0.33115727105E+04  0.33120729925E+04  0.00000000000E+00 0. -1.
         22    1    3    3    0    0  0.68824566454E+02 -0.54171619171E+01 -0.16323208063E+02  0.70940917053E+02  0.00000000000E+00 0. -1.
         22    1    3    3    0    0 -0.31648452200E+02 -0.12700199687E+02  0.57761045876E+02  0.67076508701E+02  0.00000000000E+00 0. -1.
</event>
<event>
 7    1  0.6089676E-006  0.4633899E+02  0.7818608E-02  0.1518341E+00
          2   -1    0    0  502    0  0.00000000000E+00  0.00000000000E+00  0.32748517687E+04  0.32748517687E+04  0.00000000000E+00 0. -1.
          1   -1    0    0  501    0 -0.00000000000E+00 -0.00000000000E+00 -0.58864245391E+02  0.58864245391E+02  0.00000000000E+00 0. -1.
         25    2    1    2    0    0  0.30653203723E+02 -0.34815773610E+01  0.11607823935E+03  0.17335145237E+03  0.12499931243E+03 0.  0.
          2    1    1    2  501    0 -0.90165571980E+00 -0.32234222629E+02 -0.21404835912E+02  0.38704329112E+02  0.00000000000E+00 0. -1.
          1    1    1    2  502    0 -0.29751548003E+02  0.35715799990E+02  0.31213141199E+04  0.31216602326E+04  0.00000000000E+00 0. -1.
         22    1    3    3    0    0  0.79392495431E+02 -0.43197639934E+01  0.64490980327E+02  0.10237634119E+03  0.00000000000E+00 0.  1.
         22    1    3    3    0    0 -0.48739291708E+02  0.83818663239E+00  0.51587259026E+02  0.70975111179E+02  0.00000000000E+00 0.  1.
</event>
<event>
 7    1  0.6089676E-006  0.1102668E+03  0.7818608E-02  0.1353709E+00
          2   -1    0    0  502    0  0.00000000000E+00  0.00000000000E+00  0.88395079191E+03  0.88395079191E+03  0.00000000000E+00 0. -1.
          1   -1    0    0  501    0 -0.00000000000E+00 -0.00000000000E+00 -0.56684324473E+03  0.56684324473E+03  0.00000000000E+00 0. -1.
         25    2    1    2    0    0 -0.14703656132E+03  0.52727218999E+02  0.28299044344E+03  0.34656676408E+03  0.12500008360E+03 0.  0.
          2    1    1    2  501    0  0.10195043539E+03 -0.39815899208E+02 -0.52847198849E+03  0.53968679780E+03  0.00000000000E+00 0. -1.
          1    1    1    2  502    0  0.45086125934E+02 -0.12911319791E+02  0.56258909223E+03  0.56454047475E+03  0.00000000000E+00 0. -1.
         22    1    3    3    0    0 -0.40266076347E+02  0.59711572963E+02  0.19552762502E+03  0.20836957790E+03  0.00000000000E+00 0. -1.
         22    1    3    3    0    0 -0.10677048498E+03 -0.69843539636E+01  0.87462818423E+02  0.13819718618E+03  0.00000000000E+00 0. -1.
</event>
<event>
 7    1  0.6089676E-006  0.2127002E+03  0.7818608E-02  0.1232691E+00
          2   -1    0    0  502    0  0.00000000000E+00  0.00000000000E+00  0.61213048883E+03  0.61213048883E+03  0.00000000000E+00 0. -1.
          1   -1    0    0  501    0 -0.00000000000E+00 -0.00000000000E+00 -0.19677131821E+03  0.19677131821E+03  0.00000000000E+00 0. -1.
         25    2    1    2    0    0  0.15984788916E+03 -0.21307986067E+03  0.21708720751E+03  0.36565932925E+03  0.12500205882E+03 0.  0.
          2    1    1    2  501    0 -0.45835792977E+02  0.59710089182E+02 -0.77296548641E+02  0.10789333204E+03  0.00000000000E+00 0. -1.
          1    1    1    2  502    0 -0.11401209619E+03  0.15336977149E+03  0.27556851175E+03  0.33534914574E+03  0.00000000000E+00 0. -1.
         22    1    3    3    0    0  0.34602883567E+02 -0.70210042152E+02  0.14853369361E+01  0.78288030988E+02  0.00000000000E+00 0.  1.
         22    1    3    3    0    0  0.12524500560E+03 -0.14286981852E+03  0.21560187057E+03  0.28737129826E+03  0.00000000000E+00 0.  1.
</event>
<event>
 7    1  0.6089676E-006  0.3674884E+02  0.7818608E-02  0.1568073E+00
          2   -1    0    0  502    0  0.00000000000E+00  0.00000000000E+00  0.19356795238E+04  0.19356795238E+04  0.00000000000E+00 0. -1.
          1   -1    0    0  501    0 -0.00000000000E+00 -0.00000000000E+00 -0.17636442865E+03  0.17636442865E+03  0.00000000000E+00 0. -1.
         25    2    1    2    0    0 -0.19913760113E+02 -0.50466012531E+02  0.98600013731E+03  0.99537167168E+03  0.12500047095E+03 0.  0.
          2    1    1    2  501    0 -0.58867424331E+01  0.36254381862E+02 -0.16948153689E+03  0.17341575847E+03  0.00000000000E+00 0. -1.
          1    1    1    2  502    0  0.25800502546E+02  0.14211630669E+02  0.94279649475E+03  0.94325652232E+03  0.00000000000E+00 0. -1.
         22    1    3    3    0    0  0.96748958874E+01 -0.50855062690E+02  0.93482380823E+03  0.93625605122E+03  0.00000000000E+00 0. -1.
         22    1    3    3    0    0 -0.29588656000E+02  0.38905015914E+00  0.51176329082E+02  0.59115620459E+02  0.00000000000E+00 0. -1.
</event>
<event>
 7    1  0.6089676E-006  0.1700074E+03  0.7818608E-02  0.1286440E+00
          2   -1    0    0  502    0  0.00000000000E+00  0.00000000000E+00  0.63201130011E+03  0.63201130011E+03  0.00000000000E+00 0. -1.
          1   -1    0    0  501    0 -0.00000000000E+00 -0.00000000000E+00 -0.76409071669E+03  0.76409071669E+03  0.00000000000E+00 0. -1.
         25    2    1    2    0    0  0.10837854665E+03 -0.84254407212E+02  0.19003313308E+02  0.18663073448E+03  0.12500076250E+03 0.  0.
          2    1    1    2  501    0 -0.66477856439E+00 -0.55494172884E+02 -0.66438057776E+03  0.66669453070E+03  0.00000000000E+00 0. -1.
          1    1    1    2  502    0 -0.10771376809E+03  0.13974858010E+03  0.51329784788E+03  0.54277675163E+03  0.00000000000E+00 0. -1.
         22    1    3    3    0    0  0.54326552141E+02 -0.10105982900E+03 -0.21882532243E+02  0.11680457406E+03  0.00000000000E+00 0.  1.
         22    1    3    3    0    0  0.54051994512E+02  0.16805421784E+02  0.40885845551E+02  0.69826160416E+02  0.00000000000E+00 0.  1.
</event>
<event>
 7    1  0.6089676E-006  0.3101150E+02  0.7818608E-02  0.1587633E+00
          2   -1    0    0  502    0  0.00000000000E+00  0.00000000000E+00  0.20638394859E+04  0.20638394859E+04  0.00000000000E+00 0. -1.
          1   -1    0    0  501    0 -0.00000000000E+00 -0.00000000000E+00 -0.50741354916E+02  0.50741354916E+02  0.00000000000E+00 0. -1.
         25    2    1    2    0    0 -0.20290843143E+00 -0.10989449589E+02  0.27005571105E+03  0.29778504339E+03  0.12500014328E+03 0.  0.
          2    1    1    2  501    0 -0.30638701970E+02  0.77477792969E+01 -0.29945172562E+02  0.43537013014E+02  0.00000000000E+00 0. -1.
          1    1    1    2  502    0  0.30841610401E+02  0.32416702924E+01  0.17729875925E+04  0.17732587845E+04  0.00000000000E+00 0. -1.
         22    1    3    3    0    0  0.74528432998E+01  0.52793250068E+02  0.72137607708E+02  0.89702321998E+02  0.00000000000E+00 0.  1.
         22    1    3    3    0    0 -0.76557517312E+01 -0.63782699657E+02  0.19791810334E+03  0.20808272139E+03  0.00000000000E+00 0.  1.
</event>
<event>
 7    1  0.6089676E-006  0.1157665E+03  0.7818608E-02  0.1302174E+00
          2   -1    0    0  502    0  0.00000000000E+00  0.00000000000E+00  0.36546586333E+03  0.36546586333E+03  0.00000000000E+00 0. -1.
          1   -1    0    0  501    0 -0.00000000000E+00 -0.00000000000E+00 -0.47990056967E+03  0.47990056967E+03  0.00000000000E+00 0. -1.
         25    2    1    2    0    0  0.11955250406E+03 -0.10052642101E+03  0.45357307161E+02  0.20514379002E+03  0.12501330617E+03 0.  0.
          2    1    1    2  501    0 -0.49184086585E+02  0.10279160341E+03 -0.38644023157E+03  0.40289110276E+03  0.00000000000E+00 0. -1.
          1    1    1    2  502    0 -0.70368417478E+02 -0.22651823979E+01  0.22664821807E+03  0.23733154022E+03  0.00000000000E+00 0. -1.
         22    1    3    3    0    0  0.12780259972E+03 -0.90631897358E+02 -0.13599639876E+01  0.15668278404E+03  0.00000000000E+00 0.  1.
         22    1    3    3    0    0 -0.82500956525E+01 -0.98945236527E+01  0.46717271149E+02  0.48461005976E+02  0.00000000000E+00 0.  1.
</event>
<event>
 7    1  0.6089676E-006  0.7743349E+02  0.7818608E-02  0.1404906E+00
          2   -1    0    0  502    0  0.00000000000E+00  0.00000000000E+00  0.27278357910E+02  0.27278357910E+02  0.00000000000E+00 0. -1.
          1   -1    0    0  501    0 -0.00000000000E+00 -0.00000000000E+00 -0.20756642787E+04  0.20756642787E+04  0.00000000000E+00 0. -1.
         25    2    1    2    0    0  0.70623383100E+02  0.81302450832E+01 -0.10448991665E+04  0.10547479202E+04  0.12500057581E+03 0.  0.
          2    1    1    2  501    0 -0.64414317184E+02 -0.51653528742E+02 -0.10007450292E+04  0.10041453603E+04  0.00000000000E+00 0. -1.
          1    1    1    2  502    0 -0.62090659155E+01  0.43523283659E+02 -0.27417252326E+01  0.44049356150E+02  0.00000000000E+00 0. -1.
         22    1    3    3    0    0  0.92640321048E+02 -0.29067178090E+01 -0.99284049170E+03  0.99715741989E+03  0.00000000000E+00 0.  1.
         22    1    3    3    0    0 -0.22016937949E+02  0.11036962892E+02 -0.52058674758E+02  0.57590500293E+02  0.00000000000E+00 0.  1.
</event>
<event>
 7    1  0.6089676E-006  0.6373728E+02  0.7818608E-02  0.1457133E+00
          2   -1    0    0  502    0  0.00000000000E+00  0.00000000000E+00  0.13123440185E+04  0.13123440185E+04  0.00000000000E+00 0. -1.
          1   -1    0    0  501    0 -0.00000000000E+00 -0.00000000000E+00 -0.10314252381E+03  0.10314252381E+03  0.00000000000E+00 0. -1.
         25    2    1    2    0    0  0.15146638082E+02  0.69588160873E+02  0.23064808239E+02  0.14570286355E+03  0.12500162514E+03 0.  0.
          2    1    1    2  501    0  0.27970207463E+02 -0.22609423614E+02 -0.33101166842E+02  0.48879502738E+02  0.00000000000E+00 0. -1.
          1    1    1    2  502    0 -0.43116845545E+02 -0.46978737259E+02  0.12192378533E+04  0.12209041761E+04  0.00000000000E+00 0. -1.
         22    1    3    3    0    0 -0.45243719750E+01 -0.15146169059E+02  0.51747755187E+02  0.54108285372E+02  0.00000000000E+00 0.  1.
         22    1    3    3    0    0  0.19671010057E+02  0.84734329932E+02 -0.28682946948E+02  0.91594578176E+02  0.00000000000E+00 0.  1.
</event>
<event>
 7    1  0.6089676E-006  0.4940874E+02  0.7818608E-02  0.1466790E+00
          2   -1    0    0  502    0  0.00000000000E+00  0.00000000000E+00  0.12605608965E+04  0.12605608965E+04  0.00000000000E+00 0. -1.
          1   -1    0    0  501    0 -0.00000000000E+00 -0.00000000000E+00 -0.35762793083E+02  0.35762793083E+02  0.00000000000E+00 0. -1.
         25    2    1    2    0    0 -0.86926988039E+02 -0.22367765361E+02  0.49081443830E+03  0.51437490435E+03  0.12500444470E+03 0.  0.
          2    1    1    2  501    0  0.47224364206E+02  0.51867717765E+01  0.82561010443E+00  0.47515521760E+02  0.00000000000E+00 0. -1.
          1    1    1    2  502    0  0.39702623833E+02  0.17180993584E+02  0.73315805500E+03  0.73443326347E+03  0.00000000000E+00 0. -1.
         22    1    3    3    0    0 -0.10379125539E+03 -0.53748420428E+02  0.40305024519E+03  0.41965583225E+03  0.00000000000E+00 0. -1.
         22    1    3    3    0    0  0.16864267350E+02  0.31380655067E+02  0.87764193114E+02  0.94719072095E+02  0.00000000000E+00 0. -1.
</event>
<event>
 7    1  0.6089676E-006  0.9779277E+02  0.7818608E-02  0.1311479E+00
          2   -1    0    0  502    0  0.00000000000E+00  0.00000000000E+00  0.40302611606E+04  0.40302611606E+04  0.00000000000E+00 0. -1.
          1   -1    0    0  501    0 -0.00000000000E+00 -0.00000000000E+00 -0.28202956800E+02  0.28202956800E+02  0.00000000000E+00 0. -1.
         25    2    1    2    0    0  0.73319400706E+02  0.63948383554E+02  0.27812456653E+04  0.27857525288E+04  0.12499828114E+03 0.  0.
          2    1    1    2  501    0  0.40205955866E+02 -0.65158359693E+02  0.39868472581E+02  0.86322800180E+02  0.00000000000E+00 0. -1.
          1    1    1    2  502    0 -0.11352535657E+03  0.12099761392E+01  0.11809440659E+04  0.11863887884E+04  0.00000000000E+00 0. -1.
         22    1    3    3    0    0  0.72431098398E+02  0.40281971738E+02  0.26961266361E+04  0.26974001815E+04  0.00000000000E+00 0. -1.
         22    1    3    3    0    0  0.88830230811E+00  0.23666411816E+02  0.85119029235E+02  0.88352347264E+02  0.00000000000E+00 0. -1.
</event>
<event>
 7    1  0.6089676E-006  0.5657618E+02  0.7818608E-02  0.1493606E+00
          2   -1    0    0  502    0  0.00000000000E+00  0.00000000000E+00  0.28317436687E+04  0.28317436687E+04  0.00000000000E+00 0. -1.
          1   -1    0    0  501    0 -0.00000000000E+00 -0.00000000000E+00 -0.17688204393E+03  0.17688204393E+03  0.00000000000E+00 0. -1.
         25    2    1    2    0    0  0.53825510721E+01 -0.28947532340E+02 -0.12040854593E+01  0.12842632844E+03  0.12499976212E+03 0.  0.
          2    1    1    2  501    0  0.24760826263E+02 -0.19084433799E+02 -0.10959031382E+03  0.11396205953E+03  0.00000000000E+00 0. -1.
          1    1    1    2  502    0 -0.30143377335E+02  0.48031966139E+02  0.27656560241E+04  0.27662373247E+04  0.00000000000E+00 0. -1.
         22    1    3    3    0    0 -0.48302013164E+02 -0.49768455819E+02 -0.10355470856E+02  0.70122888181E+02  0.00000000000E+00 0.  1.
         22    1    3    3    0    0  0.53684564236E+02  0.20820923479E+02  0.91513853970E+01  0.58303440262E+02  0.00000000000E+00 0.  1.
</event>
<event>
 7    1  0.6089676E-006  0.5111296E+02  0.7818608E-02  0.1506415E+00
          2   -1    0    0  502    0  0.00000000000E+00  0.00000000000E+00  0.23737817053E+03  0.23737817053E+03  0.00000000000E+00 0. -1.
          1   -1    0    0  501    0 -0.00000000000E+00 -0.00000000000E+00 -0.79706927530E+02  0.79706927530E+02  0.00000000000E+00 0. -1.
         25    2    1    2    0    0 -0.23130839194E+02 -0.36134780392E+02  0.13521478954E+03  0.18907625507E+03  0.12500413131E+03 0.  0.
          2    1    1    2  501    0  0.49278209546E+02  0.18233688305E+02 -0.34481295093E+02  0.62847187977E+02  0.00000000000E+00 0. -1.
          1    1    1    2  502    0 -0.26147370352E+02  0.17901092087E+02  0.56937748560E+02  0.65161655023E+02  0.00000000000E+00 0. -1.
         22    1    3    3    0    0 -0.47363070817E+02 -0.38797470027E+02  0.14898729013E+03  0.16107674189E+03  0.00000000000E+00 0. -1.
         22    1    3    3    0    0  0.24232231623E+02  0.26626896353E+01 -0.13772500592E+02  0.27999513175E+02  0.00000000000E+00 0. -1.
</event>
<event>
 7    1  0.6089676E-006  0.1063980E+03  0.7818608E-02  0.1311375E+00
          2   -1    0    0  502    0  0.00000000000E+00  0.00000000000E+00  0.13740764814E+04  0.13740764814E+04  0.00000000000E+00 0. -1.
          1   -1    0    0  501    0 -0.00000000000E+00 -0.00000000000E+00 -0.36532270844E+03  0.36532270844E+03  0.00000000000E+00 0. -1.
         25    2    1    2    0    0  0.15878704094E+02  0.55596040583E+02  0.28916828510E+03  0.32029015274E+03  0.12499772741E+03 0.  0.
          2    1    1    2  501    0  0.62825154468E+02  0.31852958993E+02 -0.34293525518E+03  0.35009455905E+03  0.00000000000E+00 0. -1.
          1    1    1    2  502    0 -0.78703858562E+02 -0.87448999576E+02  0.10625207431E+04  0.10690144781E+04  0.00000000000E+00 0. -1.
         22    1    3    3    0    0 -0.53085084777E+02  0.20491281302E+02  0.15876875584E+03  0.16865775009E+03  0.00000000000E+00 0. -1.
         22    1    3    3    0    0  0.68963788871E+02  0.35104759282E+02  0.13039952927E+03  0.15163240265E+03  0.00000000000E+00 0. -1.
</event>
<event>
 7    1  0.6089676E-006  0.1255710E+03  0.7818608E-02  0.1278798E+00
          2   -1    0    0  502    0  0.00000000000E+00  0.00000000000E+00  0.19412825483E+04  0.19412825483E+04  0.00000000000E+00 0. -1.
          1   -1    0    0  501    0 -0.00000000000E+00 -0.00000000000E+00 -0.15733508908E+04  0.15733508908E+04  0.00000000000E+00 0. -1.
         25    2    1    2    0    0 -0.54285949129E+02 -0.10736084860E+02  0.92257981157E+02  0.16492115393E+03  0.12500089654E+03 0.  0.
          2    1    1    2  501    0 -0.74357866522E+02  0.31566140187E+02 -0.15336126680E+04  0.15357386916E+04  0.00000000000E+00 0. -1.
          1    1    1    2  502    0  0.12864381565E+03 -0.20830055327E+02  0.18092863443E+04  0.18139735935E+04  0.00000000000E+00 0. -1.
         22    1    3    3    0    0 -0.12124155619E+02  0.51201455149E+02  0.98279253151E+01  0.53527304013E+02  0.00000000000E+00 0.  1.
         22    1    3    3    0    0 -0.42161793510E+02 -0.61937540009E+02  0.82430055841E+02  0.11139384992E+03  0.00000000000E+00 0.  1.
</event>
<event>
 7    1  0.6089676E-006  0.9018946E+02  0.7818608E-02  0.1400413E+00
          2   -1    0    0  502    0  0.00000000000E+00  0.00000000000E+00  0.22825856666E+03  0.22825856666E+03  0.00000000000E+00 0. -1.
          1   -1    0    0  501    0 -0.00000000000E+00 -0.00000000000E+00 -0.23630501582E+03  0.23630501582E+03  0.00000000000E+00 0. -1.
         25    2    1    2    0    0  0.53817302515E+02 -0.41054144085E+02 -0.77730703904E+02  0.16201881411E+03  0.12500515590E+03 0.  0.
          2    1    1    2  501    0 -0.68204029846E+02  0.77418984209E+02 -0.90752803494E+02  0.13741018938E+03  0.00000000000E+00 0. -1.
          1    1    1    2  502    0  0.14386727331E+02 -0.36364840123E+02  0.16043705824E+03  0.16513457899E+03  0.00000000000E+00 0. -1.
         22    1    3    3    0    0  0.16242356227E+02 -0.10480141014E+02 -0.10477197511E+03  0.10654020021E+03  0.00000000000E+00 0.  1.
         22    1    3    3    0    0  0.37574946288E+02 -0.30574003072E+02  0.27041271208E+02  0.55478613906E+02  0.00000000000E+00 0.  1.
</event>
<event>
 7    1  0.6089676E-006  0.1121000E+03  0.7818608E-02  0.1278238E+00
          2   -1    0    0  502    0  0.00000000000E+00  0.00000000000E+00  0.12346744104E+03  0.12346744104E+03  0.00000000000E+00 0. -1.
          1   -1    0    0  501    0 -0.00000000000E+00 -0.00000000000E+00 -0.52007979742E+03  0.52007979742E+03  0.00000000000E+00 0. -1.
         25    2    1    2    0    0 -0.13929201367E+03  0.95505706435E+02 -0.11383534142E+03  0.23897003959E+03  0.12499835931E+03 0.  0.
          2    1    1    2  501    0  0.48325475486E+02 -0.94516300992E+02 -0.29431756648E+03  0.31287619384E+03  0.00000000000E+00 0. -1.
          1    1    1    2  502    0  0.90966538187E+02 -0.98940544339E+00  0.11540551517E+02  0.91701005023E+02  0.00000000000E+00 0. -1.
         22    1    3    3    0    0 -0.51926581408E+02 -0.23018049634E+02 -0.58864912679E+02  0.81800234782E+02  0.00000000000E+00 0.  1.
         22    1    3    3    0    0 -0.87365432266E+02  0.11852375607E+03 -0.54970428741E+02  0.15716980481E+03  0.00000000000E+00 0.  1.
</event>
<event>
 7    1  0.6089676E-006  0.1450883E+03  0.7818608E-02  0.1372412E+00
          2   -1    0    0  502    0  0.00000000000E+00  0.00000000000E+00  0.21366016826E+04  0.21366016826E+04  0.00000000000E+00 0. -1.
          1   -1    0    0  501    0 -0.00000000000E+00 -0.00000000000E+00 -0.36862461860E+03  0.36862461860E+03  0.00000000000E+00 0. -1.
         25    2    1    2    0    0 -0.14671479289E+02 -0.13312288276E+03  0.19033331859E+02  0.18418512797E+03  0.12499975770E+03 0.  0.
          2    1    1    2  501    0 -0.30003292488E+02 -0.53737371310E+01 -0.28262660178E+03  0.28426549323E+03  0.00000000000E+00 0. -1.
          1    1    1    2  502    0  0.44674771777E+02  0.13849661989E+03  0.20315703340E+04  0.20367756800E+04  0.00000000000E+00 0. -1.
         22    1    3    3    0    0  0.54626410641E+02 -0.74374395481E+02  0.70483347668E+01  0.92548768040E+02  0.00000000000E+00 0.  1.
         22    1    3    3    0    0 -0.69297889931E+02 -0.58748487280E+02  0.11984997092E+02  0.91636359933E+02  0.00000000000E+00 0.  1.
</event>
<event>
 7    1  0.6089676E-006  0.1108816E+03  0.7818608E-02  0.1301053E+00
          2   -1    0    0  502    0  0.00000000000E+00  0.00000000000E+00  0.14326020253E+04  0.14326020253E+04  0.00000000000E+00 0. -1.
          1   -1    0    0  501    0 -0.00000000000E+00 -0.00000000000E+00 -0.16161197531E+04  0.16161197531E+04  0.00000000000E+00 0. -1.
         25    2    1    2    0    0 -0.54730786137E+02  0.16328152620E+03  0.10400574060E+03  0.23685120868E+03  0.12499994090E+03 0.  0.
          2    1    1    2  501    0  0.64228515629E+02 -0.89622973172E+02 -0.15466401304E+04  0.15505654686E+04  0.00000000000E+00 0. -1.
          1    1    1    2  502    0 -0.94977294916E+01 -0.73658553033E+02  0.12591166620E+04  0.12613051011E+04  0.00000000000E+00 0. -1.
         22    1    3    3    0    0 -0.49325598034E+02  0.52592855813E+02  0.10336456019E+03  0.12602878801E+03  0.00000000000E+00 0.  1.
         22    1    3    3    0    0 -0.54051881030E+01  0.11068867039E+03  0.64118041147E+00  0.11082242067E+03  0.00000000000E+00 0.  1.
</event>
<event>
 7    1  0.6089676E-006  0.1092877E+03  0.7818608E-02  0.1301377E+00
          2   -1    0    0  502    0  0.00000000000E+00  0.00000000000E+00  0.10851710204E+04  0.10851710204E+04  0.00000000000E+00 0. -1.
          1   -1    0    0  501    0 -0.00000000000E+00 -0.00000000000E+00 -0.10950860916E+03  0.10950860916E+03  0.00000000000E+00 0. -1.
         25    2    1    2    0    0  0.92442625997E+01 -0.10380783472E+03  0.23519060145E+03  0.28601201529E+03  0.12500692357E+03 0.  0.
          2    1    1    2  501    0 -0.74340680092E+02  0.10844310073E+02 -0.62493451795E+02  0.97721887490E+02  0.00000000000E+00 0. -1.
          1    1    1    2  502    0  0.65096417492E+02  0.92963524642E+02  0.80296526162E+03  0.81094572682E+03  0.00000000000E+00 0. -1.
         22    1    3    3    0    0 -0.57261476304E+02 -0.54962656253E+02  0.10061197708E+03  0.12815045916E+03  0.00000000000E+00 0. -1.
         22    1    3    3    0    0  0.66505738903E+02 -0.48845178462E+02  0.13457862437E+03  0.15786155613E+03  0.00000000000E+00 0. -1.
</event>
<event>
 7    1  0.6089676E-006  0.4673703E+02  0.7818608E-02  0.1546732E+00
          2   -1    0    0  502    0  0.00000000000E+00  0.00000000000E+00  0.23363890428E+04  0.23363890428E+04  0.00000000000E+00 0. -1.
          1   -1    0    0  501    0 -0.00000000000E+00 -0.00000000000E+00 -0.72745002307E+03  0.72745002307E+03  0.00000000000E+00 0. -1.
         25    2    1    2    0    0 -0.20708770556E+02  0.51819464252E+02 -0.48013310375E+03  0.49926606325E+03  0.12499877815E+03 0.  0.
          2    1    1    2  501    0 -0.15112925304E+02 -0.21802005166E+02 -0.23677496677E+03  0.23825640144E+03  0.00000000000E+00 0. -1.
          1    1    1    2  502    0  0.35821695860E+02 -0.30017459087E+02  0.23258470902E+04  0.23263166012E+04  0.00000000000E+00 0. -1.
         22    1    3    3    0    0 -0.42289009398E+02 -0.29157612475E+02 -0.22221945980E+03  0.22807896658E+03  0.00000000000E+00 0. -1.
         22    1    3    3    0    0  0.21580238842E+02  0.80977076727E+02 -0.25791364395E+03  0.27118709667E+03  0.00000000000E+00 0. -1.
</event>
<event>
 7    1  0.6089676E-006  0.8753400E+02  0.7818608E-02  0.1352045E+00
          2   -1    0    0  502    0  0.00000000000E+00  0.00000000000E+00  0.14028069714E+04  0.14028069714E+04  0.00000000000E+00 0. -1.
          1   -1    0    0  501    0 -0.00000000000E+00 -0.00000000000E+00 -0.42083706489E+03  0.42083706489E+03  0.00000000000E+00 0. -1.
         25    2    1    2    0    0 -0.28666515736E+02 -0.26974061824E+02 -0.24189672623E+03  0.27511711481E+03  0.12500412620E+03 0.  0.
          2    1    1    2  501    0  0.10583903844E+02 -0.58976795654E+02 -0.15535592670E+03  0.16651049639E+03  0.00000000000E+00 0. -1.
          1    1    1    2  502    0  0.18082611892E+02  0.85950857478E+02  0.13792225594E+04  0.13820164250E+04  0.00000000000E+00 0. -1.
         22    1    3    3    0    0 -0.64203093578E+02  0.22178378845E+02 -0.10096196141E+03  0.12168498414E+03  0.00000000000E+00 0.  1.
         22    1    3    3    0    0  0.35536577842E+02 -0.49152440669E+02 -0.14093476482E+03  0.15343213067E+03  0.00000000000E+00 0.  1.
</event>
<event>
 7    1  0.6089676E-006  0.3806099E+02  0.7818608E-02  0.1593830E+00
          2   -1    0    0  502    0  0.00000000000E+00  0.00000000000E+00  0.19999855620E+04  0.19999855620E+04  0.00000000000E+00 0. -1.
          1   -1    0    0  501    0 -0.00000000000E+00 -0.00000000000E+00 -0.39669343597E+03  0.39669343597E+03  0.00000000000E+00 0. -1.
         25    2    1    2    0    0 -0.33590307935E+02 -0.51440363480E+02  0.58182533419E+03  0.59826429692E+03  0.12500011872E+03 0.  0.
          2    1    1    2  501    0  0.11240226181E+02  0.21502496039E+02 -0.38784729919E+03  0.38860549084E+03  0.00000000000E+00 0. -1.
          1    1    1    2  502    0  0.22350081754E+02  0.29937867441E+02  0.14093140910E+04  0.14098092102E+04  0.00000000000E+00 0. -1.
         22    1    3    3    0    0 -0.67915599215E+02 -0.17310064229E+01  0.18938799536E+03  0.20120471612E+03  0.00000000000E+00 0.  1.
         22    1    3    3    0    0  0.34325291280E+02 -0.49709357057E+02  0.39243733883E+03  0.39705958081E+03  0.00000000000E+00 0.  1.
</event>
<event>
 7    1  0.6089676E-006  0.7780726E+02  0.7818608E-02  0.1420885E+00
          2   -1    0    0  502    0  0.00000000000E+00  0.00000000000E+00  0.75859267949E+03  0.75859267949E+03  0.00000000000E+00 0. -1.
          1   -1    0    0  501    0 -0.00000000000E+00 -0.00000000000E+00 -0.29822749986E+04  0.29822749986E+04  0.00000000000E+00 0. -1.
         25    2    1    2    0    0  0.49827477738E+02 -0.20470327726E+02 -0.46525703472E+03  0.48475887041E+03  0.12500096892E+03 0.  0.
          2    1    1    2  501    0  0.97342941344E+00 -0.38631661013E+02 -0.25050898956E+04  0.25053879415E+04  0.00000000000E+00 0. -1.
          1    1    1    2  502    0 -0.50800907151E+02  0.59101988739E+02  0.74666461118E+03  0.75072086612E+03  0.00000000000E+00 0. -1.
         22    1    3    3    0    0  0.56717544714E+02  0.34071015427E+02 -0.13949828536E+03  0.15439392990E+03  0.00000000000E+00 0.  1.
         22    1    3    3    0    0 -0.68900669766E+01 -0.54541343153E+02 -0.32575874936E+03  0.33036494051E+03  0.00000000000E+00 0.  1.
</event>
<event>
 7    1  0.6089676E-006  0.3837823E+02  0.7818608E-02  0.1599042E+00
          2   -1    0    0  502    0  0.00000000000E+00  0.00000000000E+00  0.84959938850E+02  0.84959938850E+02  0.00000000000E+00 0. -1.
          1   -1    0    0  501    0 -0.00000000000E+00 -0.00000000000E+00 -0.16565585044E+04  0.16565585044E+04  0.00000000000E+00 0. -1.
         25    2    1    2    0    0  0.45301979405E+02 -0.99944212196E+00 -0.77454836333E+03  0.78587736157E+03  0.12499916823E+03 0.  0.
          2    1    1    2  501    0 -0.32406717242E+02  0.20425435752E+02 -0.87420306741E+03  0.87504194004E+03  0.00000000000E+00 0. -1.
          1    1    1    2  502    0 -0.12895262162E+02 -0.19425993630E+02  0.77152865233E+02  0.80599141611E+02  0.00000000000E+00 0. -1.
         22    1    3    3    0    0  0.77796494884E+02 -0.13539550085E+02 -0.30560374892E+03  0.31564103882E+03  0.00000000000E+00 0. -1.
         22    1    3    3    0    0 -0.32494515479E+02  0.12540107963E+02 -0.46894461442E+03  0.47023632275E+03  0.00000000000E+00 0. -1.
</event>
<event>
 7    1  0.6089676E-006  0.8261843E+02  0.7818608E-02  0.1322697E+00
          2   -1    0    0  502    0  0.00000000000E+00  0.00000000000E+00  0.36473643622E+03  0.36473643622E+03  0.00000000000E+00 0. -1.
          1   -1    0    0  501    0 -0.00000000000E+00 -0.00000000000E+00 -0.75714116975E+03  0.75714116975E+03  0.00000000000E+00 0. -1.
         25    2    1    2    0    0  0.13987028405E+02 -0.34304434463E+02 -0.13058852169E+02  0.13102771932E+03  0.12500119368E+03 0.  0.
          2    1    1    2  501    0  0.73981148245E+02  0.36777629057E+02 -0.67619878337E+03  0.68122727406E+03  0.00000000000E+00 0. -1.
          1    1    1    2  502    0 -0.87968176650E+02 -0.24731945945E+01  0.29685290201E+03  0.30962261259E+03  0.00000000000E+00 0. -1.
         22    1    3    3    0    0 -0.43220777034E+02 -0.15526278315E+02  0.31871348624E+02  0.55900659646E+02  0.00000000000E+00 0.  1.
         22    1    3    3    0    0  0.57207805440E+02 -0.18778156148E+02 -0.44930200793E+02  0.75127059671E+02  0.00000000000E+00 0.  1.
</event>
<event>
 7    1  0.6089676E-006  0.7626718E+02  0.7818608E-02  0.1409924E+00
          2   -1    0    0  502    0  0.00000000000E+00  0.00000000000E+00  0.21230046882E+03  0.21230046882E+03  0.00000000000E+00 0. -1.
          1   -1    0    0  501    0 -0.00000000000E+00 -0.00000000000E+00 -0.85816365001E+03  0.85816365001E+03  0.00000000000E+00 0. -1.
         25    2    1    2    0    0  0.60879524059E+02  0.38045202889E+02 -0.48936116932E+03  0.51015028781E+03  0.12500083283E+03 0.  0.
          2    1    1    2  501    0 -0.36356280444E+02 -0.73264107502E+02 -0.35137648825E+03  0.36076979512E+03  0.00000000000E+00 0. -1.
          1    1    1    2  502    0 -0.24523243615E+02  0.35218904612E+02  0.19487447637E+03  0.19954403590E+03  0.00000000000E+00 0. -1.
         22    1    3    3    0    0  0.35786001783E+02  0.51461751513E+01 -0.25015360485E+02  0.43964636954E+02  0.00000000000E+00 0. -1.
         22    1    3    3    0    0  0.25093522276E+02  0.32899027738E+02 -0.46434580883E+03  0.46618565086E+03  0.00000000000E+00 0. -1.
</event>
<event>
 7    1  0.6089676E-006  0.6305986E+02  0.7818608E-02  0.1442579E+00
          2   -1    0    0  502    0  0.00000000000E+00  0.00000000000E+00  0.52543921939E+03  0.52543921939E+03  0.00000000000E+00 0. -1.
          1   -1    0    0  501    0 -0.00000000000E+00 -0.00000000000E+00 -0.48599849259E+03  0.48599849259E+03  0.00000000000E+00 0. -1.
         25    2    1    2    0    0  0.65077641358E+02  0.28566244206E+02  0.28424739534E+03  0.31854767709E+03  0.12499964444E+03 0.  0.
          2    1    1    2  501    0 -0.26648459784E+01 -0.40379320353E+02 -0.46344645846E+03  0.46520985671E+03  0.00000000000E+00 0. -1.
          1    1    1    2  502    0 -0.62412795380E+02  0.11813076147E+02  0.21863978992E+03  0.22768017817E+03  0.00000000000E+00 0. -1.
         22    1    3    3    0    0  0.82507632587E+02 -0.22931272585E+02  0.20766941157E+03  0.22463289429E+03  0.00000000000E+00 0. -1.
         22    1    3    3    0    0 -0.17429991229E+02  0.51497516791E+02  0.76577983772E+02  0.93914782800E+02  0.00000000000E+00 0. -1.
</event>
<event>
 7    1  0.6089676E-006  0.6280360E+02  0.7818608E-02  0.1477417E+00
          2   -1    0    0  502    0  0.00000000000E+00  0.00000000000E+00  0.37964761342E+03  0.37964761342E+03  0.00000000000E+00 0. -1.
          1   -1    0    0  501    0 -0.00000000000E+00 -0.00000000000E+00 -0.48430538044E+03  0.48430538044E+03  0.00000000000E+00 0. -1.
         25    2    1    2    0    0 -0.61041266813E+02  0.27746812472E+02  0.29815978038E+03  0.33018228347E+03  0.12500065531E+03 0.  0.
          2    1    1    2  501    0  0.62714788720E+02  0.37554052857E+01 -0.46224180332E+03  0.46649194262E+03  0.00000000000E+00 0. -1.
          1    1    1    2  502    0 -0.16735219062E+01 -0.31502217758E+02  0.59424255922E+02  0.67278767759E+02  0.00000000000E+00 0. -1.
         22    1    3    3    0    0 -0.81236335452E+02  0.45260014503E+02  0.28614218830E+03  0.30087399860E+03  0.00000000000E+00 0. -1.
         22    1    3    3    0    0  0.20195068639E+02 -0.17513202031E+02  0.12017592083E+02  0.29308284873E+02  0.00000000000E+00 0. -1.
</event>
<event>
 7    1  0.6089676E-006  0.7851334E+02  0.7818608E-02  0.1417608E+00
          2   -1    0    0  502    0  0.00000000000E+00  0.00000000000E+00  0.64103690640E+03  0.64103690640E+03  0.00000000000E+00 0. -1.
          1   -1    0    0  501    0 -0.00000000000E+00 -0.00000000000E+00 -0.75064867324E+02  0.75064867324E+02  0.00000000000E+00 0. -1.
         25    2    1    2    0    0  0.46478202271E+02  0.70390298838E+02  0.12957210837E+03  0.19882185878E+03  0.12500473113E+03 0.  0.
          2    1    1    2  501    0 -0.69069919884E+02 -0.38263310347E+02 -0.15635201884E+00  0.78960491370E+02  0.00000000000E+00 0. -1.
          1    1    1    2  502    0  0.22591717613E+02 -0.32126988491E+02  0.43655628272E+03  0.43831942356E+03  0.00000000000E+00 0. -1.
         22    1    3    3    0    0  0.84522750529E+02  0.18658584418E+02  0.76317729612E+02  0.11539772087E+03  0.00000000000E+00 0. -1.
         22    1    3    3    0    0 -0.38044548258E+02  0.51731714420E+02  0.53254378762E+02  0.83424137912E+02  0.00000000000E+00 0. -1.
</event>
<event>
 7    1  0.6089676E-006  0.3684987E+02  0.7818608E-02  0.1591858E+00
          2   -1    0    0  502    0  0.00000000000E+00  0.00000000000E+00  0.12132208308E+04  0.12132208308E+04  0.00000000000E+00 0. -1.
          1   -1    0    0  501    0 -0.00000000000E+00 -0.00000000000E+00 -0.58596184320E+02  0.58596184320E+02  0.00000000000E+00 0. -1.
         25    2    1    2    0    0  0.55187176778E+02 -0.20572508483E+02  0.77374110324E+03  0.78598097520E+03  0.12498778316E+03 0.  0.
          2    1    1    2  501    0 -0.25059717951E+02  0.39069292829E+01 -0.48682210010E+02  0.54892723850E+02  0.00000000000E+00 0. -1.
          1    1    1    2  502    0 -0.30127458826E+02  0.16665579200E+02  0.42956575323E+03  0.43094331605E+03  0.00000000000E+00 0. -1.
         22    1    3    3    0    0 -0.28825032592E+02  0.15757390886E+02  0.39389220963E+03  0.39525972560E+03  0.00000000000E+00 0.  1.
         22    1    3    3    0    0  0.84012209369E+02 -0.36329899369E+02  0.37984889361E+03  0.39072124960E+03  0.00000000000E+00 0.  1.
</event>
<event>
 7    1  0.6089676E-006  0.1387136E+03  0.7818608E-02  0.1338341E+00
          2   -1    0    0  502    0  0.00000000000E+00  0.00000000000E+00  0.38064722048E+03  0.38064722048E+03  0.00000000000E+00 0. -1.
          1   -1    0    0  501    0 -0.00000000000E+00 -0.00000000000E+00 -0.10883658556E+04  0.10883658556E+04  0.00000000000E+00 0. -1.
         25    2    1    2    0    0 -0.29354480992E+02 -0.13389471387E+03 -0.31679348475E+03  0.36710993561E+03  0.12498845103E+03 0.  0.
          2    1    1    2  501    0  0.70118718509E+02  0.12174081563E+03 -0.73849522498E+03  0.75173975430E+03  0.00000000000E+00 0. -1.
          1    1    1    2  502    0 -0.40764237516E+02  0.12153898234E+02  0.34757007457E+03  0.35016338620E+03  0.00000000000E+00 0. -1.
         22    1    3    3    0    0 -0.36637482434E+02 -0.80712680990E+01 -0.16787970425E+03  0.17202048014E+03  0.00000000000E+00 0.  1.
         22    1    3    3    0    0  0.72830014416E+01 -0.12582344577E+03 -0.14891378050E+03  0.19508945547E+03  0.00000000000E+00 0.  1.
</event>
<event>
 7    1  0.6089676E-006  0.7469676E+02  0.7818608E-02  0.1420778E+00
          2   -1    0    0  502    0  0.00000000000E+00  0.00000000000E+00  0.14828950612E+04  0.14828950612E+04  0.00000000000E+00 0. -1.
          1   -1    0    0  501    0 -0.00000000000E+00 -0.00000000000E+00 -0.28660639848E+02  0.28660639848E+02  0.00000000000E+00 0. -1.
         25    2    1    2    0    0 -0.29367435655E+02 -0.93970663490E+02  0.36723615009E+03  0.40022495052E+03  0.12499875683E+03 0.  0.
          2    1    1    2  501    0  0.41619760586E+02  0.55592686954E+02  0.90773013339E+02  0.11429125629E+03  0.00000000000E+00 0. -1.
          1    1    1    2  502    0 -0.12252324931E+02  0.38377976536E+02  0.99622525788E+03  0.99703949419E+03  0.00000000000E+00 0. -1.
         22    1    3    3    0    0  0.11417539924E+02 -0.76327762103E+02  0.33877441504E+03  0.34745415780E+03  0.00000000000E+00 0. -1.
         22    1    3    3    0    0 -0.40784975579E+02 -0.17642901387E+02  0.28461735055E+02  0.52770792723E+02  0.00000000000E+00 0. -1.
</event>
<event>
 7    1  0.6089676E-006  0.1116545E+03  0.7818608E-02  0.1341211E+00
          2   -1    0    0  502    0  0.00000000000E+00  0.00000000000E+00  0.11203524178E+04  0.11203524178E+04  0.00000000000E+00 0. -1.
          1   -1    0    0  501    0 -0.00000000000E+00 -0.00000000000E+00 -0.37689703964E+02  0.37689703964E+02  0.00000000000E+00 0. -1.
         25    2    1    2    0    0  0.64158471902E+02 -0.27485004847E+02  0.74362274866E+03  0.75727904619E+03  0.12500010589E+03 0.  0.
          2    1    1    2  501    0 -0.11570429899E+03  0.26993654942E+02  0.97244251605E+02  0.15353366628E+03  0.00000000000E+00 0. -1.
          1    1    1    2  502    0  0.51545827088E+02  0.49134990478E+00  0.24179571358E+03  0.24722940930E+03  0.00000000000E+00 0. -1.
         22    1    3    3    0    0  0.99206083594E+02 -0.34556268659E+02  0.48889409849E+03  0.50005341941E+03  0.00000000000E+00 0.  1.
         22    1    3    3    0    0 -0.35047611691E+02  0.70712638119E+01  0.25472865017E+03  0.25722562678E+03  0.00000000000E+00 0.  1.
</event>
<event>
 7    1  0.6089676E-006  0.7589418E+02  0.7818608E-02  0.1459919E+00
          2   -1    0    0  502    0  0.00000000000E+00  0.00000000000E+00  0.94055291314E+03  0.94055291314E+03  0.00000000000E+00 0. -1.
          1   -1    0    0  501    0 -0.00000000000E+00 -0.00000000000E+00 -0.19963035733E+04  0.19963035733E+04  0.00000000000E+00 0. -1.
         25    2    1    2    0    0 -0.66758553330E+02 -0.21350740715E+02 -0.10227127272E+03  0.17604669131E+03  0.12498186159E+03 0.  0.
          2    1    1    2  501    0 -0.89550905396E+01  0.28210812653E+02 -0.18554274145E+04  0.18556634755E+04  0.00000000000E+00 0. -1.
          1    1    1    2  502    0  0.75713643869E+02 -0.68600719378E+01  0.90194802708E+03  0.90514631966E+03  0.00000000000E+00 0. -1.
         22    1    3    3    0    0 -0.39756669006E+02  0.26532938102E+02 -0.11056325764E+03  0.12045257770E+03  0.00000000000E+00 0. -1.
         22    1    3    3    0    0 -0.27001884323E+02 -0.47883678817E+02  0.82919849223E+01  0.55594113609E+02  0.00000000000E+00 0. -1.
</event>
<event>
 7    1  0.6089676E-006  0.6013706E+02  0.7818608E-02  0.1404342E+00
          2   -1    0    0  502    0  0.00000000000E+00  0.00000000000E+00  0.31913144449E+03  0.31913144449E+03  0.00000000000E+00 0. -1.
          1   -1    0    0  501    0 -0.00000000000E+00 -0.00000000000E+00 -0.11776942295E+04  0.11776942295E+04  0.00000000000E+00 0. -1.
         25    2    1    2    0    0 -0.72796029158E+02  0.23703595513E+02  0.85886627541E+02  0.16989207222E+03  0.12500272442E+03 0.  0.
          2    1    1    2  501    0  0.25122899518E+02 -0.54693388418E+02 -0.11306468827E+04  0.11322477203E+04  0.00000000000E+00 0. -1.
          1    1    1    2  502    0  0.47673129641E+02  0.30989792904E+02  0.18619747013E+03  0.19468588146E+03  0.00000000000E+00 0. -1.
         22    1    3    3    0    0 -0.69090725590E+02  0.22451319752E+02  0.11744215683E+03  0.13809507711E+03  0.00000000000E+00 0.  1.
         22    1    3    3    0    0 -0.37053035688E+01  0.12522757619E+01 -0.31555529293E+02  0.31796995111E+02  0.00000000000E+00 0.  1.
</event>
<event>
 7    1  0.6089676E-006  0.1763528E+03  0.7818608E-02  0.1374913E+00
          2   -1    0    0  502    0  0.00000000000E+00  0.00000000000E+00  0.10517665782E+04  0.10517665782E+04  0.00000000000E+00 0. -1.
          1   -1    0    0  501    0 -0.00000000000E+00 -0.00000000000E+00 -0.58085072846E+03  0.58085072846E+03  0.00000000000E+00 0. -1.
         25    2    1    2    0    0 -0.71257229791E+02 -0.17913968768E+03  0.44314241638E+03  0.49916249572E+03  0.12497749970E+03 0.  0.
          2    1    1    2  501    0  0.14610149514E+02  0.19749198590E+02 -0.54023496644E+03  0.54079321952E+03  0.00000000000E+00 0. -1.
          1    1    1    2  502    0  0.56647080277E+02  0.15939048909E+03  0.56800839975E+03  0.59266159139E+03  0.00000000000E+00 0. -1.
         22    1    3    3    0    0 -0.69343746461E+02 -0.17811881431E+03  0.29817977865E+03  0.35418363539E+03  0.00000000000E+00 0. -1.
         22    1    3    3    0    0 -0.19134833298E+01 -0.10208733670E+01  0.14496263774E+03  0.14497886032E+03  0.00000000000E+00 0. -1.
</event>
<event>
 7    1  0.6089676E-006  0.9079832E+02  0.7818608E-02  0.1399401E+00
          2   -1    0    0  502    0  0.00000000000E+00  0.00000000000E+00  0.10550429160E+04  0.10550429160E+04  0.00000000000E+00 0. -1.
          1   -1    0    0  501    0 -0.00000000000E+00 -0.00000000000E+00 -0.23912155909E+03  0.23912155909E+03  0.00000000000E+00 0. -1.
         25    2    1    2    0    0 -0.10355450949E+02 -0.76046405960E+02 -0.14531922802E+03  0.20647518095E+03  0.12499612431E+03 0.  0.
          2    1    1    2  501    0  0.69282591698E+01  0.11505374249E+03 -0.99673264651E+01  0.11569231622E+03  0.00000000000E+00 0. -1.
          1    1    1    2  502    0  0.34271917796E+01 -0.39007336528E+02  0.97120791144E+03  0.97199697797E+03  0.00000000000E+00 0. -1.
         22    1    3    3    0    0  0.29711929334E+02 -0.96902949194E+02 -0.96134051890E+02  0.13969515468E+03  0.00000000000E+00 0.  1.
         22    1    3    3    0    0 -0.40067380283E+02  0.20856543233E+02 -0.49185176127E+02  0.66780026273E+02  0.00000000000E+00 0.  1.
</event>
<event>
 7    1  0.6089676E-006  0.4302493E+02  0.7818608E-02  0.1513255E+00
          2   -1    0    0  502    0  0.00000000000E+00  0.00000000000E+00  0.46488676177E+02  0.46488676177E+02  0.00000000000E+00 0. -1.
          1   -1    0    0  501    0 -0.00000000000E+00 -0.00000000000E+00 -0.20137697266E+04  0.20137697266E+04  0.00000000000E+00 0. -1.
         25    2    1    2    0    0 -0.19850694913E+02  0.58758500137E+02 -0.23690041127E+03  0.27494395762E+03  0.12500305413E+03 0.  0.
          2    1    1    2  501    0  0.31184447781E+02 -0.17865168036E+02 -0.17411608071E+04  0.17415316794E+04  0.00000000000E+00 0. -1.
          1    1    1    2  502    0 -0.11333752868E+02 -0.40893332102E+02  0.10780167915E+02  0.43782765842E+02  0.00000000000E+00 0. -1.
         22    1    3    3    0    0  0.43265488957E+02  0.28487664559E+02 -0.38457593661E+02  0.64516944107E+02  0.00000000000E+00 0.  1.
         22    1    3    3    0    0 -0.63116183870E+02  0.30270835578E+02 -0.19844281761E+03  0.21042701351E+03  0.00000000000E+00 0.  1.
</event>
<event>
 7    1  0.6089676E-006  0.1323852E+03  0.7818608E-02  0.1327106E+00
          2   -1    0    0  502    0  0.00000000000E+00  0.00000000000E+00  0.11433007558E+03  0.11433007558E+03  0.00000000000E+00 0. -1.
          1   -1    0    0  501    0 -0.00000000000E+00 -0.00000000000E+00 -0.51278363945E+03  0.51278363945E+03  0.00000000000E+00 0. -1.
         25    2    1    2    0    0  0.14813109867E+03 -0.55928502771E+02 -0.58309890991E+02  0.21000282728E+03  0.12502129523E+03 0.  0.
          2    1    1    2  501    0 -0.49055683932E+02 -0.35077153772E+01 -0.28477864884E+03  0.28899419204E+03  0.00000000000E+00 0. -1.
          1    1    1    2  502    0 -0.99075414742E+02  0.59436218148E+02 -0.55365024035E+02  0.12811669571E+03  0.00000000000E+00 0. -1.
         22    1    3    3    0    0  0.13165668931E+03  0.10367533110E+02 -0.49889975071E+02  0.14117357825E+03  0.00000000000E+00 0. -1.
         22    1    3    3    0    0  0.16474409360E+02 -0.66296035881E+02 -0.84199159205E+01  0.68829249025E+02  0.00000000000E+00 0. -1.
</event>
<event>
 7    1  0.6089676E-006  0.1171513E+03  0.7818608E-02  0.1294772E+00
          2   -1    0    0  502    0  0.00000000000E+00  0.00000000000E+00  0.15511228670E+04  0.15511228670E+04  0.00000000000E+00 0. -1.
          1   -1    0    0  501    0 -0.00000000000E+00 -0.00000000000E+00 -0.70387479970E+03  0.70387479970E+03  0.00000000000E+00 0. -1.
         25    2    1    2    0    0  0.91306441053E+01 -0.80982123916E+02  0.81378642508E+02  0.16996654923E+03  0.12499868538E+03 0.  0.
          2    1    1    2  501    0 -0.83499476869E+02  0.85360748159E+02 -0.65319133570E+03  0.66401622043E+03  0.00000000000E+00 0. -1.
          1    1    1    2  502    0  0.74368832764E+02 -0.43786242436E+01  0.14190607605E+04  0.14210148971E+04  0.00000000000E+00 0. -1.
         22    1    3    3    0    0  0.39056112015E+01 -0.30222250342E+02 -0.32880588393E+02  0.44830472981E+02  0.00000000000E+00 0. -1.
         22    1    3    3    0    0  0.52250329039E+01 -0.50759873573E+02  0.11425923090E+03  0.12513607625E+03  0.00000000000E+00 0. -1.
</event>
<event>
 7    1  0.6089676E-006  0.5325947E+02  0.7818608E-02  0.1467823E+00
          2   -1    0    0  502    0  0.00000000000E+00  0.00000000000E+00  0.16932202167E+03  0.16932202167E+03  0.00000000000E+00 0. -1.
          1   -1    0    0  501    0 -0.00000000000E+00 -0.00000000000E+00 -0.23507995762E+03  0.23507995762E+03  0.00000000000E+00 0. -1.
         25    2    1    2    0    0  0.46472536147E+02  0.17958821102E+02 -0.18014968547E+03  0.22486120123E+03  0.12500573895E+03 0.  0.
          2    1    1    2  501    0 -0.24767549084E+02  0.31200497065E+02 -0.12490305949E+02  0.41748176577E+02  0.00000000000E+00 0. -1.
          1    1    1    2  502    0 -0.21704987063E+02 -0.49159318168E+02  0.12688205546E+03  0.13779260149E+03  0.00000000000E+00 0. -1.
         22    1    3    3    0    0 -0.31906616620E+02  0.38477589466E+02 -0.94856796004E+02  0.10722112116E+03  0.00000000000E+00 0. -1.
         22    1    3    3    0    0  0.78379152767E+02 -0.20518768364E+02 -0.85292889467E+02  0.11764008006E+03  0.00000000000E+00 0. -1.
</event>
<event>
 7    1  0.6089676E-006  0.7015388E+02  0.7818608E-02  0.1360162E+00
          2   -1    0    0  502    0  0.00000000000E+00  0.00000000000E+00  0.17789347644E+04  0.17789347644E+04  0.00000000000E+00 0. -1.
          1   -1    0    0  501    0 -0.00000000000E+00 -0.00000000000E+00 -0.20091817168E+04  0.20091817168E+04  0.00000000000E+00 0. -1.
         25    2    1    2    0    0 -0.11308787863E+02 -0.21716495270E+02 -0.77977774330E+02  0.14934932302E+03  0.12500076859E+03 0.  0.
          2    1    1    2  501    0 -0.54819803252E+02  0.45138192337E+02 -0.18941467694E+04  0.18954774204E+04  0.00000000000E+00 0. -1.
          1    1    1    2  502    0  0.66128591115E+02 -0.23421697067E+02  0.17418775913E+04  0.17432897377E+04  0.00000000000E+00 0. -1.
         22    1    3    3    0    0  0.14058872476E+02  0.48070266877E+02 -0.15850035529E+02  0.52532143296E+02  0.00000000000E+00 0.  1.
         22    1    3    3    0    0 -0.25367660339E+02 -0.69786762147E+02 -0.62127738801E+02  0.96817179729E+02  0.00000000000E+00 0.  1.
</event>
<event>
 7    1  0.6089676E-006  0.3970511E+02  0.7818608E-02  0.1515125E+00
          2   -1    0    0  502    0  0.00000000000E+00  0.00000000000E+00  0.28075195164E+04  0.28075195164E+04  0.00000000000E+00 0. -1.
          1   -1    0    0  501    0 -0.00000000000E+00 -0.00000000000E+00 -0.22371210678E+02  0.22371210678E+02  0.00000000000E+00 0. -1.
         25    2    1    2    0    0  0.69097762406E+02 -0.16958896795E+02  0.10307701934E+04  0.10407566338E+04  0.12500029734E+03 0.  0.
          2    1    1    2  501    0 -0.31222096858E+02  0.23616991271E+02  0.51525177169E+01  0.39485820844E+02  0.00000000000E+00 0. -1.
          1    1    1    2  502    0 -0.37875665548E+02 -0.66580944761E+01  0.17492255946E+04  0.17496482724E+04  0.00000000000E+00 0. -1.
         22    1    3    3    0    0  0.10328234342E+02  0.86802678073E+01  0.74152906199E+01  0.15394999474E+02  0.00000000000E+00 0. -1.
         22    1    3    3    0    0  0.58769528064E+02 -0.25639164602E+02  0.10233549027E+04  0.10253616343E+04  0.00000000000E+00 0. -1.
</event>
<event>
 7    1  0.6089676E-006  0.4201848E+02  0.7818608E-02  0.1565051E+00
          2   -1    0    0  502    0  0.00000000000E+00  0.00000000000E+00  0.69910897397E+03  0.69910897397E+03  0.00000000000E+00 0. -1.
          1   -1    0    0  501    0 -0.00000000000E+00 -0.00000000000E+00 -0.27224687528E+03  0.27224687528E+03  0.00000000000E+00 0. -1.
         25    2    1    2    0    0  0.80767374615E+01  0.31730121756E+02  0.27257079649E+03  0.30164858890E+03  0.12499999109E+03 0.  0.
          2    1    1    2  501    0  0.17319914722E+02 -0.38390758685E+02 -0.25556433932E+03  0.25901150810E+03  0.00000000000E+00 0. -1.
          1    1    1    2  502    0 -0.25396652183E+02  0.66606369286E+01  0.40985564152E+03  0.41069575224E+03  0.00000000000E+00 0. -1.
         22    1    3    3    0    0 -0.21517071500E+02  0.38806825401E+02  0.26706515772E+03  0.27072634252E+03  0.00000000000E+00 0. -1.
         22    1    3    3    0    0  0.29593808962E+02 -0.70767036450E+01  0.55056387684E+01  0.30922246386E+02  0.00000000000E+00 0. -1.
</event>
<event>
 7    1  0.6089676E-006  0.7144623E+02  0.7818608E-02  0.1394617E+00
          2   -1    0    0  502    0  0.00000000000E+00  0.00000000000E+00  0.68005369072E+02  0.68005369072E+02  0.00000000000E+00 0. -1.
          1   -1    0    0  501    0 -0.00000000000E+00 -0.00000000000E+00 -0.69619543081E+03  0.69619543081E+03  0.00000000000E+00 0. -1.
         25    2    1    2    0    0  0.59100994979E+02  0.16689625580E+01 -0.27824605081E+03  0.31071147181E+03  0.12500016351E+03 0.  0.
          2    1    1    2  501    0 -0.43490921549E+01 -0.51510514804E+02 -0.37251541110E+03  0.37608506916E+03  0.00000000000E+00 0. -1.
          1    1    1    2  502    0 -0.54751902824E+02  0.49841552246E+02  0.22571400171E+02  0.77404258919E+02  0.00000000000E+00 0. -1.
         22    1    3    3    0    0  0.76222217455E+02 -0.42635898261E+02 -0.21120013595E+03  0.22854571464E+03  0.00000000000E+00 0.  1.
         22    1    3    3    0    0 -0.17121222476E+02  0.44304860819E+02 -0.67045914862E+02  0.82165757168E+02  0.00000000000E+00 0.  1.
</event>
<event>
 7    1  0.6089676E-006  0.1010396E+03  0.7818608E-02  0.1386078E+00
          2   -1    0    0  502    0  0.00000000000E+00  0.00000000000E+00  0.42396583072E+03  0.42396583072E+03  0.00000000000E+00 0. -1.
          1   -1    0    0  501    0 -0.00000000000E+00 -0.00000000000E+00 -0.15574252244E+03  0.15574252244E+03  0.00000000000E+00 0. -1.
         25    2    1    2    0    0  0.68102576455E+02  0.19819236511E+02  0.22363666847E+02  0.14544950958E+03  0.12499865274E+03 0.  0.
          2    1    1    2  501    0  0.36956597706E+02 -0.12914167344E+02 -0.81483805227E+02  0.90400090412E+02  0.00000000000E+00 0. -1.
          1    1    1    2  502    0 -0.10505917416E+03 -0.69050691669E+01  0.32734344666E+03  0.34385875316E+03  0.00000000000E+00 0. -1.
         22    1    3    3    0    0  0.73225127802E+02  0.52435704804E+02  0.49448448801E+02  0.10274517784E+03  0.00000000000E+00 0. -1.
         22    1    3    3    0    0 -0.51225513471E+01 -0.32616468293E+02 -0.27084781953E+02  0.42704331744E+02  0.00000000000E+00 0. -1.
</event>
<event>
 7    1  0.6089676E-006  0.1035068E+03  0.7818608E-02  0.1410511E+00
          2   -1    0    0  502    0  0.00000000000E+00  0.00000000000E+00  0.99798404201E+03  0.99798404201E+03  0.00000000000E+00 0. -1.
          1   -1    0    0  501    0 -0.00000000000E+00 -0.00000000000E+00 -0.88092710853E+03  0.88092710853E+03  0.00000000000E+00 0. -1.
         25    2    1    2    0    0 -0.83312742561E+01 -0.95915710873E+02  0.39206519665E+03  0.42262128460E+03  0.12499759216E+03 0.  0.
          2    1    1    2  501    0 -0.22720705981E+02  0.10107379038E+03 -0.86212650323E+03  0.86832842241E+03  0.00000000000E+00 0. -1.
          1    1    1    2  502    0  0.31051980237E+02 -0.51580795080E+01  0.58711824006E+03  0.58796144353E+03  0.00000000000E+00 0. -1.
         22    1    3    3    0    0  0.50364598746E+01 -0.34357001564E+02  0.11058999741E+02  0.36442707910E+02  0.00000000000E+00 0.  1.
         22    1    3    3    0    0 -0.13367734131E+02 -0.61558709309E+02  0.38100619691E+03  0.38617857669E+03  0.00000000000E+00 0.  1.
</event>
<event>
 7    1  0.6089676E-006  0.2498275E+03  0.7818608E-02  0.1232963E+00
          2   -1    0    0  502    0  0.00000000000E+00  0.00000000000E+00  0.13400057930E+04  0.13400057930E+04  0.00000000000E+00 0. -1.
          1   -1    0    0  501    0 -0.00000000000E+00 -0.00000000000E+00 -0.55980524660E+03  0.55980524660E+03  0.00000000000E+00 0. -1.
         25    2    1    2    0    0  0.24068382116E+03 -0.12223411061E+03  0.36147719412E+03  0.46814583559E+03  0.12499952781E+03 0.  0.
          2    1    1    2  501    0 -0.24190755383E+03  0.58337141553E+02 -0.47469478417E+03  0.53596420104E+03  0.00000000000E+00 0. -1.
          1    1    1    2  502    0  0.12237326703E+01  0.63896969060E+02  0.89341813641E+03  0.89570100293E+03  0.00000000000E+00 0. -1.
         22    1    3    3    0    0  0.12024634385E+03 -0.22319827585E+02  0.80146188858E+02  0.14622164512E+03  0.00000000000E+00 0.  1.
         22    1    3    3    0    0  0.12043747731E+03 -0.99914283029E+02  0.28133100526E+03  0.32192419048E+03  0.00000000000E+00 0.  1.
</event>
<event>
 7    1  0.6089676E-006  0.8286757E+02  0.7818608E-02  0.1394571E+00
          2   -1    0    0  502    0  0.00000000000E+00  0.00000000000E+00  0.31189005666E+03  0.31189005666E+03  0.00000000000E+00 0. -1.
          1   -1    0    0  501    0 -0.00000000000E+00 -0.00000000000E+00 -0.15914959881E+03  0.15914959881E+03  0.00000000000E+00 0. -1.
         25    2    1    2    0    0  0.67969103714E+02 -0.38357337116E+02  0.94065549761E+01  0.14766401714E+03  0.12500037725E+03 0.  0.
          2    1    1    2  501    0 -0.26854691551E+02 -0.35590427434E+02 -0.76097807926E+02  0.88197105136E+02  0.00000000000E+00 0. -1.
          1    1    1    2  502    0 -0.41114412163E+02  0.73947764550E+02  0.21943171080E+03  0.23517853319E+03  0.00000000000E+00 0. -1.
         22    1    3    3    0    0  0.37851408653E+02 -0.78461250983E+02  0.31801452070E+02  0.92737421770E+02  0.00000000000E+00 0.  1.
         22    1    3    3    0    0  0.30117695061E+02  0.40103913867E+02 -0.22394897094E+02  0.54926595372E+02  0.00000000000E+00 0.  1.
</event>
<event>
 7    1  0.6089676E-006  0.7160111E+02  0.7818608E-02  0.1383065E+00
          2   -1    0    0  502    0  0.00000000000E+00  0.00000000000E+00  0.38289040335E+02  0.38289040335E+02  0.00000000000E+00 0. -1.
          1   -1    0    0  501    0 -0.00000000000E+00 -0.00000000000E+00 -0.15952268120E+04  0.15952268120E+04  0.00000000000E+00 0. -1.
         25    2    1    2    0    0 -0.15866482893E+02 -0.17930867211E+01 -0.19318430088E+03  0.23065177765E+03  0.12500043196E+03 0.  0.
          2    1    1    2  501    0 -0.14724731009E+02  0.70070691599E+02 -0.13069919674E+04  0.13089517647E+04  0.00000000000E+00 0. -1.
          1    1    1    2  502    0  0.30591213902E+02 -0.68277604878E+02 -0.56761503401E+02  0.93912309972E+02  0.00000000000E+00 0. -1.
         22    1    3    3    0    0 -0.43479446991E+02  0.50314892451E+02 -0.11303574178E+03  0.13114545220E+03  0.00000000000E+00 0. -1.
         22    1    3    3    0    0  0.27612964098E+02 -0.52107979172E+02 -0.80148559095E+02  0.99506325450E+02  0.00000000000E+00 0. -1.
</event>
<event>
 7    1  0.6089676E-006  0.1925503E+03  0.7818608E-02  0.1157154E+00
          2   -1    0    0  502    0  0.00000000000E+00  0.00000000000E+00  0.97231765781E+03  0.97231765781E+03  0.00000000000E+00 0. -1.
          1   -1    0    0  501    0 -0.00000000000E+00 -0.00000000000E+00 -0.71229761808E+03  0.71229761808E+03  0.00000000000E+00 0. -1.
         25    2    1    2    0    0 -0.11080331737E+03  0.13437723353E+03  0.21151589312E+01  0.21439775728E+03  0.12500923325E+03 0.  0.
          2    1    1    2  501    0  0.20312449085E+03  0.34597334375E+02 -0.57737033646E+03  0.61303592044E+03  0.00000000000E+00 0. -1.
          1    1    1    2  502    0 -0.92321173486E+02 -0.16897456790E+03  0.83527521727E+03  0.85718159817E+03  0.00000000000E+00 0. -1.
         22    1    3    3    0    0 -0.85421353561E+02  0.11566376587E+03  0.54072996857E+02  0.15361902020E+03  0.00000000000E+00 0.  1.
         22    1    3    3    0    0 -0.25381963804E+02  0.18713467664E+02 -0.51957837925E+02  0.60778737075E+02  0.00000000000E+00 0.  1.
</event>
<event>
 7    1  0.6089676E-006  0.5137796E+02  0.7818608E-02  0.1443437E+00
          2   -1    0    0  502    0  0.00000000000E+00  0.00000000000E+00  0.12602456417E+04  0.12602456417E+04  0.00000000000E+00 0. -1.
          1   -1    0    0  501    0 -0.00000000000E+00 -0.00000000000E+00 -0.20828212267E+03  0.20828212267E+03  0.00000000000E+00 0. -1.
         25    2    1    2    0    0 -0.92566017733E+02 -0.35120522447E+02  0.21856754973E+03  0.27055287275E+03  0.12500065770E+03 0.  0.
          2    1    1    2  501    0  0.44356276034E+02  0.24563093176E+02 -0.17815044022E+03  0.18522527937E+03  0.00000000000E+00 0. -1.
          1    1    1    2  502    0  0.48209741699E+02  0.10557429271E+02  0.10115464095E+04  0.10127496122E+04  0.00000000000E+00 0. -1.
         22    1    3    3    0    0 -0.91388312223E+02 -0.40287368398E+02  0.70169058354E+02  0.12205979032E+03  0.00000000000E+00 0.  1.
         22    1    3    3    0    0 -0.11777055103E+01  0.51668459507E+01  0.14839849137E+03  0.14849308243E+03  0.00000000000E+00 0.  1.
</event>
<event>
 7    1  0.6089676E-006  0.6661937E+02  0.7818608E-02  0.1399253E+00
          2   -1    0    0  502    0  0.00000000000E+00  0.00000000000E+00  0.22708215280E+04  0.22708215280E+04  0.00000000000E+00 0. -1.
          1   -1    0    0  501    0 -0.00000000000E+00 -0.00000000000E+00 -0.37655865757E+03  0.37655865757E+03  0.00000000000E+00 0. -1.
         25    2    1    2    0    0 -0.98549285919E+01 -0.97295655352E+01  0.34784919935E+02  0.13046233281E+03  0.12497457967E+03 0.  0.
          2    1    1    2  501    0 -0.42536549110E+02 -0.32336862657E+02 -0.32602892518E+03  0.33037840539E+03  0.00000000000E+00 0. -1.
          1    1    1    2  502    0  0.52391477702E+02  0.42066428193E+02  0.21855068757E+04  0.21865394474E+04  0.00000000000E+00 0. -1.
         22    1    3    3    0    0 -0.59371775270E+02 -0.54156880056E+01 -0.13541951742E+02  0.61136910556E+02  0.00000000000E+00 0. -1.
         22    1    3    3    0    0  0.49516846678E+02 -0.43138775296E+01  0.48326871677E+02  0.69325422252E+02  0.00000000000E+00 0. -1.
</event>
<event>
 7    1  0.6089676E-006  0.9047925E+02  0.7818608E-02  0.1366250E+00
          2   -1    0    0  502    0  0.00000000000E+00  0.00000000000E+00  0.64907530029E+03  0.64907530029E+03  0.00000000000E+00 0. -1.
          1   -1    0    0  501    0 -0.00000000000E+00 -0.00000000000E+00 -0.72459700200E+03  0.72459700200E+03  0.00000000000E+00 0. -1.
         25    2    1    2    0    0 -0.13251940394E+03 -0.32488226449E+02  0.23758097093E+03  0.30114113400E+03  0.12499755021E+03 0.  0.
          2    1    1    2  501    0  0.81418909062E+02  0.38372452815E+02 -0.68813053442E+03  0.69399215867E+03  0.00000000000E+00 0. -1.
          1    1    1    2  502    0  0.51100494880E+02 -0.58842263664E+01  0.37502786178E+03  0.37853900963E+03  0.00000000000E+00 0. -1.
         22    1    3    3    0    0 -0.10927891091E+03  0.33293095888E+02  0.13170553324E+03  0.17434637389E+03  0.00000000000E+00 0. -1.
         22    1    3    3    0    0 -0.23240493037E+02 -0.65781322336E+02  0.10587543769E+03  0.12679476011E+03  0.00000000000E+00 0. -1.
</event>
<event>
 7    1  0.6089676E-006  0.1193879E+03  0.7818608E-02  0.1412515E+00
          2   -1    0    0  502    0  0.00000000000E+00  0.00000000000E+00  0.14619711073E+03  0.14619711073E+03  0.00000000000E+00 0. -1.
          1   -1    0    0  501    0 -0.00000000000E+00 -0.00000000000E+00 -0.97491578341E+03  0.97491578341E+03  0.00000000000E+00 0. -1.
         25    2    1    2    0    0  0.32449349840E+02 -0.14034394498E+03 -0.30955533328E+03  0.36359099067E+03  0.12499808374E+03 0.  0.
          2    1    1    2  501    0 -0.40826519273E+01  0.26555697186E+02 -0.60912642450E+03  0.60971868441E+03  0.00000000000E+00 0. -1.
          1    1    1    2  502    0 -0.28366697912E+02  0.11378824780E+03  0.89963085093E+02  0.14780321907E+03  0.00000000000E+00 0. -1.
         22    1    3    3    0    0  0.56208834102E+02 -0.14712056142E+03 -0.29629312204E+03  0.33554955936E+03  0.00000000000E+00 0. -1.
         22    1    3    3    0    0 -0.23759484262E+02  0.67766164351E+01 -0.13262211239E+02  0.28041431306E+02  0.00000000000E+00 0. -1.
</event>
<event>
 7    1  0.6089676E-006  0.7282692E+02  0.7818608E-02  0.1422434E+00
          2   -1    0    0  502    0  0.00000000000E+00  0.00000000000E+00  0.53512901771E+03  0.53512901771E+03  0.00000000000E+00 0. -1.
          1   -1    0    0  501    0 -0.00000000000E+00 -0.00000000000E+00 -0.58436479532E+03  0.58436479532E+03  0.00000000000E+00 0. -1.
         25    2    1    2    0    0  0.96524809215E+01  0.73678970367E+02  0.38855207811E+03  0.41487073339E+03  0.12499298762E+03 0.  0.
          2    1    1    2  501    0 -0.46486679797E+02 -0.56134762362E+02 -0.56569280611E+03  0.57036871743E+03  0.00000000000E+00 0. -1.
          1    1    1    2  502    0  0.36834198876E+02 -0.17544208005E+02  0.12790495038E+03  0.13425436222E+03  0.00000000000E+00 0. -1.
         22    1    3    3    0    0  0.35010143521E+02  0.25393207326E+02  0.33719371539E+03  0.33995606602E+03  0.00000000000E+00 0. -1.
         22    1    3    3    0    0 -0.25357662599E+02  0.48285763041E+02  0.51358362722E+02  0.74914667365E+02  0.00000000000E+00 0. -1.
</event>
<event>
 7    1  0.6089676E-006  0.1147205E+03  0.7818608E-02  0.1386647E+00
          2   -1    0    0  502    0  0.00000000000E+00  0.00000000000E+00  0.25821964233E+03  0.25821964233E+03  0.00000000000E+00 0. -1.
          1   -1    0    0  501    0 -0.00000000000E+00 -0.00000000000E+00 -0.47585102414E+03  0.47585102414E+03  0.00000000000E+00 0. -1.
         25    2    1    2    0    0  0.85175195764E+02 -0.69424152750E+02  0.67131221337E+02  0.17945958445E+03  0.12499845845E+03 0.  0.
          2    1    1    2  501    0 -0.63668128116E+02  0.96171099578E+02 -0.40939912671E+03  0.42533534520E+03  0.00000000000E+00 0. -1.
          1    1    1    2  502    0 -0.21507067648E+02 -0.26746946828E+02  0.12463652356E+03  0.12927573681E+03  0.00000000000E+00 0. -1.
         22    1    3    3    0    0  0.61955323035E+02 -0.58409440517E+02  0.10406722639E+03  0.13446230848E+03  0.00000000000E+00 0. -1.
         22    1    3    3    0    0  0.23219872729E+02 -0.11014712233E+02 -0.36936005054E+02  0.44997275967E+02  0.00000000000E+00 0. -1.
</event>
<event>
 7    1  0.6089676E-006  0.6691774E+02  0.7818608E-02  0.1486572E+00
          2   -1    0    0  502    0  0.00000000000E+00  0.00000000000E+00  0.39869453586E+02  0.39869453586E+02  0.00000000000E+00 0. -1.
          1   -1    0    0  501    0 -0.00000000000E+00 -0.00000000000E+00 -0.48991832047E+03  0.48991832047E+03  0.00000000000E+00 0. -1.
         25    2    1    2    0    0 -0.68794300549E+02 -0.45455410121E+02 -0.22618685388E+03  0.27126423678E+03  0.12499977277E+03 0.  0.
          2    1    1    2  501    0  0.27589601571E+02 -0.30535414964E+01 -0.17780883278E+03  0.17996247176E+03  0.00000000000E+00 0. -1.
          1    1    1    2  502    0  0.41204698978E+02  0.48508951617E+02 -0.46053180229E+02  0.78561065510E+02  0.00000000000E+00 0. -1.
         22    1    3    3    0    0  0.15072126920E+02 -0.29107755998E+02 -0.37640031918E+01  0.32993911395E+02  0.00000000000E+00 0. -1.
         22    1    3    3    0    0 -0.83866427469E+02 -0.16347654123E+02 -0.22242285069E+03  0.23827032539E+03  0.00000000000E+00 0. -1.
</event>
<event>
 7    1  0.6089676E-006  0.3735413E+02  0.7818608E-02  0.1562872E+00
          2   -1    0    0  502    0  0.00000000000E+00  0.00000000000E+00  0.66981908095E+03  0.66981908095E+03  0.00000000000E+00 0. -1.
          1   -1    0    0  501    0 -0.00000000000E+00 -0.00000000000E+00 -0.50220011082E+02  0.50220011082E+02  0.00000000000E+00 0. -1.
         25    2    1    2    0    0  0.22560610418E+02  0.10496032103E+02  0.45214084583E+03  0.46976055986E+03  0.12499796518E+03 0.  0.
          2    1    1    2  501    0 -0.33555177632E+02  0.17354878808E+02 -0.31433997246E+02  0.49145070426E+02  0.00000000000E+00 0. -1.
          1    1    1    2  502    0  0.10994567214E+02 -0.27850910911E+02  0.19889222128E+03  0.20113346175E+03  0.00000000000E+00 0. -1.
         22    1    3    3    0    0 -0.87233989440E+01  0.17192508842E+02  0.30347648836E+01  0.19516399446E+02  0.00000000000E+00 0. -1.
         22    1    3    3    0    0  0.31284009362E+02 -0.66964767396E+01  0.44910608095E+03  0.45024416041E+03  0.00000000000E+00 0. -1.
</event>
<event>
 7    1  0.6089676E-006  0.5946312E+02  0.7818608E-02  0.1445512E+00
          2   -1    0    0  502    0  0.00000000000E+00  0.00000000000E+00  0.14661899175E+04  0.14661899175E+04  0.00000000000E+00 0. -1.
          1   -1    0    0  501    0 -0.00000000000E+00 -0.00000000000E+00 -0.11235047949E+02  0.11235047949E+02  0.00000000000E+00 0. -1.
         25    2    1    2    0    0 -0.71566211466E+01 -0.32468449258E+02  0.10435142691E+04  0.10514936099E+04  0.12494544533E+03 0.  0.
          2    1    1    2  501    0  0.45282502369E+02  0.50062945861E+02  0.27574804176E+03  0.28389044736E+03  0.00000000000E+00 0. -1.
          1    1    1    2  502    0 -0.38125881222E+02 -0.17594496603E+02  0.13569255870E+03  0.14204090825E+03  0.00000000000E+00 0. -1.
         22    1    3    3    0    0 -0.24091118226E+02 -0.74597743233E+02  0.50256533935E+03  0.50864243392E+03  0.00000000000E+00 0.  1.
         22    1    3    3    0    0  0.16934497079E+02  0.42129293975E+02  0.54094892976E+03  0.54285117594E+03  0.00000000000E+00 0.  1.
</event>
<event>
 7    1  0.6089676E-006  0.1306967E+03  0.7818608E-02  0.1264726E+00
          2   -1    0    0  502    0  0.00000000000E+00  0.00000000000E+00  0.19553874234E+04  0.19553874234E+04  0.00000000000E+00 0. -1.
          1   -1    0    0  501    0 -0.00000000000E+00 -0.00000000000E+00 -0.11537487022E+04  0.11537487022E+04  0.00000000000E+00 0. -1.
         25    2    1    2    0    0  0.79243483380E+02 -0.16856399244E+02  0.36202703022E+03  0.39147451850E+03  0.12500024068E+03 0.  0.
          2    1    1    2  501    0  0.22297751142E+02 -0.86049181594E+02 -0.11339720991E+04  0.11374508221E+04  0.00000000000E+00 0. -1.
          1    1    1    2  502    0 -0.10154123452E+03  0.10290558084E+03  0.15735837900E+04  0.15802107850E+04  0.00000000000E+00 0. -1.
         22    1    3    3    0    0 -0.13489576855E+01 -0.35306873182E+02  0.24868278040E+03  0.25118025449E+03  0.00000000000E+00 0. -1.
         22    1    3    3    0    0  0.80592441066E+02  0.18450473938E+02  0.11334424982E+03  0.14029426401E+03  0.00000000000E+00 0. -1.
</event>
<event>
 7    1  0.6089676E-006  0.1346568E+03  0.7818608E-02  0.1377710E+00
          2   -1    0    0  502    0  0.00000000000E+00  0.00000000000E+00  0.33182610198E+03  0.33182610198E+03  0.00000000000E+00 0. -1.
          1   -1    0    0  501    0 -0.00000000000E+00 -0.00000000000E+00 -0.15006662576E+04  0.15006662576E+04  0.00000000000E+00 0. -1.
         25    2    1    2    0    0  0.65834644438E+02 -0.10934527972E+03 -0.28353672391E+03  0.33512439161E+03  0.12499877374E+03 0.  0.
          2    1    1    2  501    0  0.28728629776E+02  0.12780928173E+02 -0.11761929864E+04  0.11766132021E+04  0.00000000000E+00 0. -1.
          1    1    1    2  502    0 -0.94563274214E+02  0.96564351546E+02  0.29088955464E+03  0.32075476585E+03  0.00000000000E+00 0. -1.
         22    1    3    3    0    0  0.72435356079E+02 -0.13189324837E+02 -0.73523835896E+02  0.10405091804E+03  0.00000000000E+00 0. -1.
         22    1    3    3    0    0 -0.66007116408E+01 -0.96155954883E+02 -0.21001288802E+03  0.23107347357E+03  0.00000000000E+00 0. -1.
</event>
<event>
 7    1  0.6089676E-006  0.1843680E+03  0.7818608E-02  0.1243113E+00
          2   -1    0    0  502    0  0.00000000000E+00  0.00000000000E+00  0.29580497460E+03  0.29580497460E+03  0.00000000000E+00 0. -1.
          1   -1    0    0  501    0 -0.00000000000E+00 -0.00000000000E+00 -0.46223919318E+03  0.46223919318E+03  0.00000000000E+00 0. -1.
         25    2    1    2    0    0 -0.24697608583E+03 -0.31716720413E+02  0.81050643172E+02  0.29016802741E+03  0.12500056018E+03 0.  0.
          2    1    1    2  501    0  0.17034319928E+03  0.46743885836E+02 -0.31728166140E+03  0.36313833323E+03  0.00000000000E+00 0. -1.
          1    1    1    2  502    0  0.76632886558E+02 -0.15027165423E+02  0.69796799643E+02  0.10473780713E+03  0.00000000000E+00 0. -1.
         22    1    3    3    0    0 -0.17735973425E+03  0.22640937532E+02  0.92150898303E+02  0.20114888875E+03  0.00000000000E+00 0. -1.
         22    1    3    3    0    0 -0.69616351583E+02 -0.54357657945E+02 -0.11100255130E+02  0.89019138667E+02  0.00000000000E+00 0. -1.
</event>
<event>
 7    1  0.6089676E-006  0.6620711E+02  0.7818608E-02  0.1529848E+00
          2   -1    0    0  502    0  0.00000000000E+00  0.00000000000E+00  0.78961455379E+03  0.78961455379E+03  0.00000000000E+00 0. -1.
          1   -1    0    0  501    0 -0.00000000000E+00 -0.00000000000E+00 -0.12507761543E+03  0.12507761543E+03  0.00000000000E+00 0. -1.
         25    2    1    2    0    0  0.17665074679E+02  0.84600176388E+02  0.29715091206E+03  0.33375472808E+03  0.12499723706E+03 0.  0.
          2    1    1    2  501    0 -0.14549644110E+02 -0.63926272254E+02 -0.96454227451E+02  0.11662623385E+03  0.00000000000E+00 0. -1.
          1    1    1    2  502    0 -0.31154305685E+01 -0.20673904134E+02  0.46384025375E+03  0.46431120729E+03  0.00000000000E+00 0. -1.
         22    1    3    3    0    0  0.65348959153E+02  0.14144274614E+02  0.13396932699E+03  0.14972751097E+03  0.00000000000E+00 0.  1.
         22    1    3    3    0    0 -0.47683884474E+02  0.70455901774E+02  0.16318158507E+03  0.18402721711E+03  0.00000000000E+00 0.  1.
</event>
<event>
 7    1  0.6089676E-006  0.4103541E+02  0.7818608E-02  0.1561418E+00
          2   -1    0    0  502    0  0.00000000000E+00  0.00000000000E+00  0.19598367378E+04  0.19598367378E+04  0.00000000000E+00 0. -1.
          1   -1    0    0  501    0 -0.00000000000E+00 -0.00000000000E+00 -0.55662880593E+01  0.55662880593E+01  0.00000000000E+00 0. -1.
         25    2    1    2    0    0  0.98760498071E+01 -0.49847106136E+02  0.13228934667E+04  0.13297575828E+04  0.12500333687E+03 0.  0.
          2    1    1    2  501    0 -0.27241103728E+02  0.28512834753E+02  0.49212769722E+03  0.49370510413E+03  0.00000000000E+00 0. -1.
          1    1    1    2  502    0  0.17365053921E+02  0.21334271383E+02  0.13924928576E+03  0.14194033894E+03  0.00000000000E+00 0. -1.
         22    1    3    3    0    0 -0.31817687181E+02 -0.25966688529E+02  0.11374307918E+04  0.11381719731E+04  0.00000000000E+00 0. -1.
         22    1    3    3    0    0  0.41693736988E+02 -0.23880417606E+02  0.18546267492E+03  0.19158560968E+03  0.00000000000E+00 0. -1.
</event>
<event>
 7    1  0.6089676E-006  0.2879181E+02  0.7818608E-02  0.1618859E+00
          2   -1    0    0  502    0  0.00000000000E+00  0.00000000000E+00  0.14134606417E+04  0.14134606417E+04  0.00000000000E+00 0. -1.
          1   -1    0    0  501    0 -0.00000000000E+00 -0.00000000000E+00 -0.18172405154E+03  0.18172405154E+03  0.00000000000E+00 0. -1.
         25    2    1    2    0    0  0.45577514817E+02  0.91426911595E+01 -0.89976608351E+02  0.16087996011E+03  0.12500269139E+03 0.  0.
          2    1    1    2  501    0 -0.18960735716E+02 -0.20089442663E+02 -0.52747258328E+02  0.59542996788E+02  0.00000000000E+00 0. -1.
          1    1    1    2  502    0 -0.26616779100E+02  0.10946751504E+02  0.13744604569E+04  0.13747617364E+04  0.00000000000E+00 0. -1.
         22    1    3    3    0    0  0.65708807751E+02 -0.24530655767E+01 -0.11134758456E+03  0.12931337725E+03  0.00000000000E+00 0. -1.
         22    1    3    3    0    0 -0.20131292934E+02  0.11595756736E+02  0.21370976211E+02  0.31566582864E+02  0.00000000000E+00 0. -1.
</event>
<event>
 7    1  0.6089676E-006  0.4443032E+02  0.7818608E-02  0.1562413E+00
          2   -1    0    0  502    0  0.00000000000E+00  0.00000000000E+00  0.53018410803E+03  0.53018410803E+03  0.00000000000E+00 0. -1.
          1   -1    0    0  501    0 -0.00000000000E+00 -0.00000000000E+00 -0.37535600979E+03  0.37535600979E+03  0.00000000000E+00 0. -1.
         25    2    1    2    0    0 -0.17972573863E+02  0.41885802755E+02 -0.12950007372E+03  0.18567712802E+03  0.12501317089E+03 0.  0.
          2    1    1    2  501    0  0.25167892138E+02  0.19958278388E+01 -0.21604632745E+03  0.21751648611E+03  0.00000000000E+00 0. -1.
          1    1    1    2  502    0 -0.71953182743E+01 -0.43881630594E+02  0.50037449941E+03  0.50234650369E+03  0.00000000000E+00 0. -1.
         22    1    3    3    0    0 -0.37021181706E+02  0.57206715934E+02 -0.16563336291E+02  0.70125033704E+02  0.00000000000E+00 0. -1.
         22    1    3    3    0    0  0.19048607843E+02 -0.15320913179E+02 -0.11293673743E+03  0.11555209432E+03  0.00000000000E+00 0. -1.
</event>
<event>
 7    1  0.6089676E-006  0.8352603E+02  0.7818608E-02  0.1330876E+00
          2   -1    0    0  502    0  0.00000000000E+00  0.00000000000E+00  0.37688262287E+02  0.37688262287E+02  0.00000000000E+00 0. -1.
          1   -1    0    0  501    0 -0.00000000000E+00 -0.00000000000E+00 -0.19178326750E+04  0.19178326750E+04  0.00000000000E+00 0. -1.
         25    2    1    2    0    0  0.12285720986E+02 -0.84090619496E+01 -0.75479623367E+03  0.76522092375E+03  0.12499622604E+03 0.  0.
          2    1    1    2  501    0  0.41654664269E+02 -0.62852983918E+02 -0.10924708853E+04  0.10950699722E+04  0.00000000000E+00 0. -1.
          1    1    1    2  502    0 -0.53940385255E+02  0.71262045867E+02 -0.32877293756E+02  0.95230041412E+02  0.00000000000E+00 0. -1.
         22    1    3    3    0    0  0.47905038746E+02 -0.14944452614E+02 -0.12959207962E+03  0.13896883284E+03  0.00000000000E+00 0. -1.
         22    1    3    3    0    0 -0.35619317759E+02  0.65353906649E+01 -0.62520415405E+03  0.62625209091E+03  0.00000000000E+00 0. -1.
</event>
<event>
 7    1  0.6089676E-006  0.9084396E+02  0.7818608E-02  0.1444062E+00
          2   -1    0    0  502    0  0.00000000000E+00  0.00000000000E+00  0.24156858171E+02  0.24156858171E+02  0.00000000000E+00 0. -1.
          1   -1    0    0  501    0 -0.00000000000E+00 -0.00000000000E+00 -0.15942339464E+04  0.15942339464E+04  0.00000000000E+00 0. -1.
         25    2    1    2    0    0 -0.12783221008E+01 -0.10109742057E+03 -0.13819487045E+04  0.13912690048E+04  0.12499959715E+03 0.  0.
          2    1    1    2  501    0  0.24123761464E+02  0.13780324218E+02 -0.88176571004E+02  0.92449774887E+02  0.00000000000E+00 0. -1.
          1    1    1    2  502    0 -0.22845439363E+02  0.87317096357E+02 -0.99951812662E+02  0.13467202482E+03  0.00000000000E+00 0. -1.
         22    1    3    3    0    0  0.47482384223E+02 -0.25492162506E+01 -0.29962273290E+03  0.30337247302E+03  0.00000000000E+00 0.  1.
         22    1    3    3    0    0 -0.48760706324E+02 -0.98548204324E+02 -0.10823259716E+04  0.10878965318E+04  0.00000000000E+00 0.  1.
</event>
<event>
 7    1  0.6089676E-006  0.6743604E+02  0.7818608E-02  0.1407277E+00
          2   -1    0    0  502    0  0.00000000000E+00  0.00000000000E+00  0.55386820139E+03  0.55386820139E+03  0.00000000000E+00 0. -1.
          1   -1    0    0  501    0 -0.00000000000E+00 -0.00000000000E+00 -0.11064817311E+04  0.11064817311E+04  0.00000000000E+00 0. -1.
         25    2    1    2    0    0  0.18716086237E+02  0.58305446846E+01 -0.25036670373E+02  0.12898399937E+03  0.12500300034E+03 0.  0.
          2    1    1    2  501    0  0.43775825725E+02  0.23215476113E+02 -0.10265054612E+04  0.10277007070E+04  0.00000000000E+00 0. -1.
          1    1    1    2  502    0 -0.62491911962E+02 -0.29046020798E+02  0.49892860181E+03  0.50366522620E+03  0.00000000000E+00 0. -1.
         22    1    3    3    0    0  0.64957257196E+02 -0.25636577963E+02 -0.68461393668E+01  0.70168005646E+02  0.00000000000E+00 0. -1.
         22    1    3    3    0    0 -0.46241170959E+02  0.31467122647E+02 -0.18190531007E+02  0.58815993723E+02  0.00000000000E+00 0. -1.
</event>
<event>
 7    1  0.6089676E-006  0.1294234E+03  0.7818608E-02  0.1332996E+00
          2   -1    0    0  502    0  0.00000000000E+00  0.00000000000E+00  0.78972457264E+03  0.78972457264E+03  0.00000000000E+00 0. -1.
          1   -1    0    0  501    0 -0.00000000000E+00 -0.00000000000E+00 -0.13327857643E+04  0.13327857643E+04  0.00000000000E+00 0. -1.
         25    2    1    2    0    0 -0.13694831019E+03  0.10637015940E+03  0.77360708531E+02  0.22733185642E+03  0.12500257294E+03 0.  0.
          2    1    1    2  501    0  0.39588789739E+02 -0.26727347698E+02 -0.12511341715E+04  0.12520456615E+04  0.00000000000E+00 0. -1.
          1    1    1    2  502    0  0.97359520447E+02 -0.79642811706E+02  0.63071227132E+03  0.64313281900E+03  0.00000000000E+00 0. -1.
         22    1    3    3    0    0 -0.15439153025E+03  0.63174524706E+02  0.65873259744E+02  0.17935175364E+03  0.00000000000E+00 0.  1.
         22    1    3    3    0    0  0.17443220060E+02  0.43195634698E+02  0.11487448786E+02  0.47980102779E+02  0.00000000000E+00 0.  1.
</event>
<event>
 7    1  0.6089676E-006  0.2342835E+03  0.7818608E-02  0.1264028E+00
          2   -1    0    0  502    0  0.00000000000E+00  0.00000000000E+00  0.24895051092E+04  0.24895051092E+04  0.00000000000E+00 0. -1.
          1   -1    0    0  501    0 -0.00000000000E+00 -0.00000000000E+00 -0.40667269502E+03  0.40667269502E+03  0.00000000000E+00 0. -1.
         25    2    1    2    0    0  0.11190815479E+03  0.17739187498E+03  0.75338252720E+02  0.25552345637E+03  0.12500028807E+03 0.  0.
          2    1    1    2  501    0  0.49660843791E+02 -0.51529513385E+01 -0.30856910343E+03  0.31258221944E+03  0.00000000000E+00 0. -1.
          1    1    1    2  502    0 -0.16156899858E+03 -0.17223892364E+03  0.23160632649E+04  0.23280721284E+04  0.00000000000E+00 0. -1.
         22    1    3    3    0    0  0.39300553481E+02  0.80896268614E+02  0.97608567469E+02  0.13272592898E+03  0.00000000000E+00 0. -1.
         22    1    3    3    0    0  0.72607601305E+02  0.96495606370E+02 -0.22270314749E+02  0.12279752740E+03  0.00000000000E+00 0. -1.
</event>
<event>
 7    1  0.6089676E-006  0.5898790E+02  0.7818608E-02  0.1436688E+00
          2   -1    0    0  502    0  0.00000000000E+00  0.00000000000E+00  0.17906599670E+03  0.17906599670E+03  0.00000000000E+00 0. -1.
          1   -1    0    0  501    0 -0.00000000000E+00 -0.00000000000E+00 -0.36139336346E+03  0.36139336346E+03  0.00000000000E+00 0. -1.
         25    2    1    2    0    0  0.55625218758E+02 -0.22886211035E+02 -0.66744254768E+02  0.15393965368E+03  0.12499871125E+03 0.  0.
          2    1    1    2  501    0 -0.24028240459E+02  0.55219394038E+02 -0.24350671354E+03  0.25084269444E+03  0.00000000000E+00 0. -1.
          1    1    1    2  502    0 -0.31596978299E+02 -0.32333183003E+02  0.12792360154E+03  0.13567701203E+03  0.00000000000E+00 0. -1.
         22    1    3    3    0    0  0.22310551906E+02 -0.46144027012E+02 -0.92558831892E+02  0.10580250147E+03  0.00000000000E+00 0.  1.
         22    1    3    3    0    0  0.33314666853E+02  0.23257815977E+02  0.25814577124E+02  0.48137152218E+02  0.00000000000E+00 0.  1.
</event>
<event>
 7    1  0.6089676E-006  0.7006438E+02  0.7818608E-02  0.1369269E+00
          2   -1    0    0  502    0  0.00000000000E+00  0.00000000000E+00  0.48761922498E+03  0.48761922498E+03  0.00000000000E+00 0. -1.
          1   -1    0    0  501    0 -0.00000000000E+00 -0.00000000000E+00 -0.15824879046E+04  0.15824879046E+04  0.00000000000E+00 0. -1.
         25    2    1    2    0    0 -0.13394833690E+03 -0.46476391375E+01 -0.18008511458E+03  0.25694233396E+03  0.12499982791E+03 0.  0.
          2    1    1    2  501    0  0.64776699090E+02  0.74907835414E+00 -0.13605274702E+04  0.13620688598E+04  0.00000000000E+00 0. -1.
          1    1    1    2  502    0  0.69171637815E+02  0.38985607833E+01  0.44574390517E+03  0.45109593575E+03  0.00000000000E+00 0. -1.
         22    1    3    3    0    0 -0.94231864925E+02 -0.54056466360E+02 -0.15384177386E+03  0.18833225244E+03  0.00000000000E+00 0.  1.
         22    1    3    3    0    0 -0.39716471979E+02  0.49408827223E+02 -0.26243340715E+02  0.68610081518E+02  0.00000000000E+00 0.  1.
</event>
<event>
 7    1  0.6089676E-006  0.1182460E+03  0.7818608E-02  0.1304635E+00
          2   -1    0    0  502    0  0.00000000000E+00  0.00000000000E+00  0.12542377468E+03  0.12542377468E+03  0.00000000000E+00 0. -1.
          1   -1    0    0  501    0 -0.00000000000E+00 -0.00000000000E+00 -0.16295647272E+04  0.16295647272E+04  0.00000000000E+00 0. -1.
         25    2    1    2    0    0  0.93228671205E+02 -0.20352459579E+02 -0.54321214444E+02  0.16637257955E+03  0.12499293237E+03 0.  0.
          2    1    1    2  501    0 -0.82610588005E+02  0.86901323828E+02 -0.14998809523E+04  0.15046658169E+04  0.00000000000E+00 0. -1.
          1    1    1    2  502    0 -0.10618083200E+02 -0.66548864249E+02  0.50061214282E+02  0.83950105414E+02  0.00000000000E+00 0. -1.
         22    1    3    3    0    0  0.82151926400E+02  0.29080855630E+02  0.62954622815E+01  0.87374298400E+02  0.00000000000E+00 0.  1.
         22    1    3    3    0    0  0.11076744805E+02 -0.49433315209E+02 -0.60616676725E+02  0.78998281153E+02  0.00000000000E+00 0.  1.
</event>
<event>
 7    1  0.6089676E-006  0.5175777E+02  0.7818608E-02  0.1456707E+00
          2   -1    0    0  502    0  0.00000000000E+00  0.00000000000E+00  0.18936377296E+04  0.18936377296E+04  0.00000000000E+00 0. -1.
          1   -1    0    0  501    0 -0.00000000000E+00 -0.00000000000E+00 -0.20710382789E+03  0.20710382789E+03  0.00000000000E+00 0. -1.
         25    2    1    2    0    0 -0.88962600325E+01 -0.12060177416E+02  0.13403188289E+04  0.13462181037E+04  0.12499611341E+03 0.  0.
          2    1    1    2  501    0  0.51857623408E+02  0.74014580916E+00 -0.19994377491E+03  0.20656058203E+03  0.00000000000E+00 0. -1.
          1    1    1    2  502    0 -0.42961363376E+02  0.11320031607E+02  0.54615884771E+03  0.54796287172E+03  0.00000000000E+00 0. -1.
         22    1    3    3    0    0  0.28194301653E+02  0.28728026227E+02  0.17392303349E+03  0.17852013812E+03  0.00000000000E+00 0. -1.
         22    1    3    3    0    0 -0.37090561685E+02 -0.40788203643E+02  0.11663957954E+04  0.11676979656E+04  0.00000000000E+00 0. -1.
</event>
<event>
 7    1  0.6089676E-006  0.3316191E+03  0.7818608E-02  0.1296438E+00
          2   -1    0    0  502    0  0.00000000000E+00  0.00000000000E+00  0.12419302625E+04  0.12419302625E+04  0.00000000000E+00 0. -1.
          1   -1    0    0  501    0 -0.00000000000E+00 -0.00000000000E+00 -0.56553426764E+03  0.56553426764E+03  0.00000000000E+00 0. -1.
         25    2    1    2    0    0 -0.18994207846E+03 -0.24591216642E+03  0.15582954654E+03  0.36940281991E+03  0.12499923608E+03 0.  0.
          2    1    1    2  501    0  0.20765274167E+03  0.26482951980E+03 -0.39682073722E+03  0.52030859417E+03  0.00000000000E+00 0. -1.
          1    1    1    2  502    0 -0.17710663212E+02 -0.18917353385E+02  0.91738718554E+03  0.91775311606E+03  0.00000000000E+00 0. -1.
         22    1    3    3    0    0 -0.42339440782E+02 -0.74893214407E+02 -0.13492006954E+02  0.87084189504E+02  0.00000000000E+00 0. -1.
         22    1    3    3    0    0 -0.14760263767E+03 -0.17101895201E+03  0.16932155350E+03  0.28231863041E+03  0.00000000000E+00 0. -1.
</event>
<event>
 7    1  0.6089676E-006  0.8887672E+02  0.7818608E-02  0.1419737E+00
          2   -1    0    0  502    0  0.00000000000E+00  0.00000000000E+00  0.82981345441E+02  0.82981345441E+02  0.00000000000E+00 0. -1.
          1   -1    0    0  501    0 -0.00000000000E+00 -0.00000000000E+00 -0.18983828841E+04  0.18983828841E+04  0.00000000000E+00 0. -1.
         25    2    1    2    0    0  0.36255770795E+02  0.10568164428E+03 -0.13461064502E+04  0.13565069528E+04  0.12500178824E+03 0.  0.
          2    1    1    2  501    0  0.12454262195E+02 -0.31777472242E+02 -0.52115471089E+03  0.52227114516E+03  0.00000000000E+00 0. -1.
          1    1    1    2  502    0 -0.48710032990E+02 -0.73904172034E+02  0.51859622368E+02  0.10258613157E+03  0.00000000000E+00 0. -1.
         22    1    3    3    0    0 -0.13292997594E+02 -0.14712943707E+02 -0.48661568328E+02  0.52546386457E+02  0.00000000000E+00 0. -1.
         22    1    3    3    0    0  0.49548768390E+02  0.12039458798E+03 -0.12974448818E+04  0.13039605664E+04  0.00000000000E+00 0. -1.
</event>
<event>
 7    1  0.6089676E-006  0.1473302E+03  0.7818608E-02  0.1269208E+00
          2   -1    0    0  502    0  0.00000000000E+00  0.00000000000E+00  0.18133517927E+04  0.18133517927E+04  0.00000000000E+00 0. -1.
          1   -1    0    0  501    0 -0.00000000000E+00 -0.00000000000E+00 -0.28564502498E+03  0.28564502498E+03  0.00000000000E+00 0. -1.
         25    2    1    2    0    0  0.76359171656E+02 -0.81990822744E+02  0.61659362232E+03  0.63903526872E+03  0.12500064588E+03 0.  0.
          2    1    1    2  501    0 -0.34569116064E+02  0.14486396438E+03 -0.25290447429E+03  0.29349832210E+03  0.00000000000E+00 0. -1.
          1    1    1    2  502    0 -0.41790055591E+02 -0.62873141631E+02  0.11640176197E+04  0.11664632269E+04  0.00000000000E+00 0. -1.
         22    1    3    3    0    0 -0.10948925578E+02 -0.66266782402E+02  0.38913856288E+03  0.39489237337E+03  0.00000000000E+00 0.  1.
         22    1    3    3    0    0  0.87308097234E+02 -0.15724040342E+02  0.22745505944E+03  0.24414289535E+03  0.00000000000E+00 0.  1.
</event>
<event>
 7    1  0.6089676E-006  0.2537779E+03  0.7818608E-02  0.1344208E+00
          2   -1    0    0  502    0  0.00000000000E+00  0.00000000000E+00  0.13785152151E+04  0.13785152151E+04  0.00000000000E+00 0. -1.
          1   -1    0    0  501    0 -0.00000000000E+00 -0.00000000000E+00 -0.55779728505E+03  0.55779728505E+03  0.00000000000E+00 0. -1.
         25    2    1    2    0    0 -0.67674007093E+02 -0.24730746964E+03  0.33496651722E+03  0.43996374261E+03  0.12499908550E+03 0.  0.
          2    1    1    2  501    0  0.22032470961E+02 -0.17367637401E+01 -0.48887366723E+03  0.48937297497E+03  0.00000000000E+00 0. -1.
          1    1    1    2  502    0  0.45641536131E+02  0.24904423338E+03  0.97462508004E+03  0.10069757825E+04  0.00000000000E+00 0. -1.
         22    1    3    3    0    0 -0.13227992018E+02 -0.18677747851E+03  0.15736377423E+03  0.24458978656E+03  0.00000000000E+00 0. -1.
         22    1    3    3    0    0 -0.54446015075E+02 -0.60529991135E+02  0.17760274299E+03  0.19537395605E+03  0.00000000000E+00 0. -1.
</event>
<event>
 7    1  0.6089676E-006  0.1524163E+03  0.7818608E-02  0.1201845E+00
          2   -1    0    0  502    0  0.00000000000E+00  0.00000000000E+00  0.13439435219E+04  0.13439435219E+04  0.00000000000E+00 0. -1.
          1   -1    0    0  501    0 -0.00000000000E+00 -0.00000000000E+00 -0.33252195328E+03  0.33252195328E+03  0.00000000000E+00 0. -1.
         25    2    1    2    0    0 -0.37860619354E+02  0.16553858447E+03  0.41879901036E+03  0.46888349413E+03  0.12499068182E+03 0.  0.
          2    1    1    2  501    0 -0.99640653014E+02 -0.11813538218E+03 -0.28166583883E+03  0.32127849760E+03  0.00000000000E+00 0. -1.
          1    1    1    2  502    0  0.13750127237E+03 -0.47403202285E+02  0.87428839713E+03  0.88630348349E+03  0.00000000000E+00 0. -1.
         22    1    3    3    0    0 -0.22200423622E+02  0.91476235794E+02  0.85729262401E+02  0.12731954664E+03  0.00000000000E+00 0.  1.
         22    1    3    3    0    0 -0.15660195732E+02  0.74062348674E+02  0.33306974795E+03  0.34156394749E+03  0.00000000000E+00 0.  1.
</event>
<event>
 7    1  0.6089676E-006  0.3574545E+03  0.7818608E-02  0.1278984E+00
          2   -1    0    0  502    0  0.00000000000E+00  0.00000000000E+00  0.18158201867E+04  0.18158201867E+04  0.00000000000E+00 0. -1.
          1   -1    0    0  501    0 -0.00000000000E+00 -0.00000000000E+00 -0.13861119530E+03  0.13861119530E+03  0.00000000000E+00 0. -1.
         25    2    1    2    0    0 -0.35504689138E+03 -0.11991746884E+01  0.46969891344E+03  0.60191743291E+03  0.12501117411E+03 0.  0.
          2    1    1    2  501    0  0.35876989346E+03  0.29280745844E+02  0.37602278706E+03  0.52054426797E+03  0.00000000000E+00 0. -1.
          1    1    1    2  502    0 -0.37230020780E+01 -0.28081571155E+02  0.83148729090E+03  0.83196968112E+03  0.00000000000E+00 0. -1.
         22    1    3    3    0    0 -0.46614452786E+02  0.44186960610E+02  0.69746113653E+02  0.94815162639E+02  0.00000000000E+00 0.  1.
         22    1    3    3    0    0 -0.30843243860E+03 -0.45386135299E+02  0.39995279979E+03  0.50710227027E+03  0.00000000000E+00 0.  1.
</event>
<event>
 7    1  0.6089676E-006  0.5831907E+02  0.7818608E-02  0.1520863E+00
          2   -1    0    0  502    0  0.00000000000E+00  0.00000000000E+00  0.27404480692E+03  0.27404480692E+03  0.00000000000E+00 0. -1.
          1   -1    0    0  501    0 -0.00000000000E+00 -0.00000000000E+00 -0.26242587776E+03  0.26242587776E+03  0.00000000000E+00 0. -1.
         25    2    1    2    0    0 -0.27756465929E+02 -0.49347516609E+02 -0.18618254171E+03  0.23129062048E+03  0.12500325392E+03 0.  0.
          2    1    1    2  501    0  0.23555982649E+02 -0.89360469022E+01 -0.47093970694E+02  0.53409543421E+02  0.00000000000E+00 0. -1.
          1    1    1    2  502    0  0.42004832802E+01  0.58283563511E+02  0.24489544156E+03  0.25177052078E+03  0.00000000000E+00 0. -1.
         22    1    3    3    0    0  0.43356152270E+02 -0.59415827498E+00 -0.29474618871E+02  0.52429592039E+02  0.00000000000E+00 0.  1.
         22    1    3    3    0    0 -0.71112618199E+02 -0.48753358334E+02 -0.15670792284E+03  0.17886102844E+03  0.00000000000E+00 0.  1.
</event>
<event>
 7    1  0.6089676E-006  0.9321490E+02  0.7818608E-02  0.1313118E+00
          2   -1    0    0  502    0  0.00000000000E+00  0.00000000000E+00  0.13629046035E+04  0.13629046035E+04  0.00000000000E+00 0. -1.
          1   -1    0    0  501    0 -0.00000000000E+00 -0.00000000000E+00 -0.32533045643E+03  0.32533045643E+03  0.00000000000E+00 0. -1.
         25    2    1    2    0    0  0.55579164263E+02 -0.41738927117E+02  0.28039126701E+03  0.31476185308E+03  0.12499832001E+03 0.  0.
          2    1    1    2  501    0 -0.89743663840E+02 -0.29650072265E+02 -0.29938275510E+03  0.31394758485E+03  0.00000000000E+00 0. -1.
          1    1    1    2  502    0  0.34164499577E+02  0.71388999381E+02  0.10565656352E+04  0.10595256220E+04  0.00000000000E+00 0. -1.
         22    1    3    3    0    0 -0.27733966554E+02 -0.39386722450E+02  0.48544071167E+02  0.68388695350E+02  0.00000000000E+00 0.  1.
         22    1    3    3    0    0  0.83313130817E+02 -0.23522046665E+01  0.23184719584E+03  0.24637315773E+03  0.00000000000E+00 0.  1.
</event>
<event>
 7    1  0.6089676E-006  0.1300967E+03  0.7818608E-02  0.1327901E+00
          2   -1    0    0  502    0  0.00000000000E+00  0.00000000000E+00  0.72397557665E+03  0.72397557665E+03  0.00000000000E+00 0. -1.
          1   -1    0    0  501    0 -0.00000000000E+00 -0.00000000000E+00 -0.12596840353E+04  0.12596840353E+04  0.00000000000E+00 0. -1.
         25    2    1    2    0    0 -0.76200763086E+02  0.27975568658E+02  0.25605971577E+03  0.29627806642E+03  0.12499970346E+03 0.  0.
          2    1    1    2  501    0  0.12086064079E+03 -0.49773710329E+02 -0.12347358539E+04  0.12416349486E+04  0.00000000000E+00 0. -1.
          1    1    1    2  502    0 -0.44659877701E+02  0.21798141670E+02  0.44296767945E+03  0.44574659695E+03  0.00000000000E+00 0. -1.
         22    1    3    3    0    0  0.31034663412E+02 -0.10450781817E+02  0.37287451998E+02  0.49625832488E+02  0.00000000000E+00 0. -1.
         22    1    3    3    0    0 -0.10723542650E+03  0.38426350476E+02  0.21877226377E+03  0.24665223393E+03  0.00000000000E+00 0. -1.
</event>
<event>
 7    1  0.6089676E-006  0.2659466E+03  0.7818608E-02  0.1164104E+00
          2   -1    0    0  502    0  0.00000000000E+00  0.00000000000E+00  0.80657092462E+03  0.80657092462E+03  0.00000000000E+00 0. -1.
          1   -1    0    0  501    0 -0.00000000000E+00 -0.00000000000E+00 -0.69183662805E+03  0.69183662805E+03  0.00000000000E+00 0. -1.
         25    2    1    2    0    0  0.23272361740E+03  0.18284091351E+03  0.17426484950E+03  0.36549214237E+03  0.12500074646E+03 0.  0.
          2    1    1    2  501    0  0.23655293371E+02 -0.12491123858E+03 -0.55643671877E+03  0.57077509793E+03  0.00000000000E+00 0. -1.
          1    1    1    2  502    0 -0.25637891077E+03 -0.57929674936E+02  0.49690616584E+03  0.56214031235E+03  0.00000000000E+00 0. -1.
         22    1    3    3    0    0  0.22888744133E+03  0.13687245853E+03  0.11509391994E+03  0.29046538711E+03  0.00000000000E+00 0.  1.
         22    1    3    3    0    0  0.38361760759E+01  0.45968454985E+02  0.59170929564E+02  0.75026755268E+02  0.00000000000E+00 0.  1.
</event>
<event>
 7    1  0.6089676E-006  0.4672493E+02  0.7818608E-02  0.1553559E+00
          2   -1    0    0  502    0  0.00000000000E+00  0.00000000000E+00  0.37247795117E+03  0.37247795117E+03  0.00000000000E+00 0. -1.
          1   -1    0    0  501    0 -0.00000000000E+00 -0.00000000000E+00 -0.11961112323E+04  0.11961112323E+04  0.00000000000E+00 0. -1.
         25    2    1    2    0    0  0.33404348082E+01  0.70553648054E+02 -0.20582757912E+03  0.25095674088E+03  0.12500127083E+03 0.  0.
          2    1    1    2  501    0  0.54051710497E+01 -0.24814836959E+02 -0.96600210928E+03  0.96633589768E+03  0.00000000000E+00 0. -1.
          1    1    1    2  502    0 -0.87456058579E+01 -0.45738811094E+02  0.34819640725E+03  0.35129654494E+03  0.00000000000E+00 0. -1.
         22    1    3    3    0    0 -0.30369422851E+02  0.56630642917E+02 -0.29164969886E+02  0.70568598044E+02  0.00000000000E+00 0. -1.
         22    1    3    3    0    0  0.33709857659E+02  0.13923005137E+02 -0.17666260923E+03  0.18038814284E+03  0.00000000000E+00 0. -1.
</event>
<event>
 7    1  0.6089676E-006  0.9651976E+02  0.7818608E-02  0.1446873E+00
          2   -1    0    0  502    0  0.00000000000E+00  0.00000000000E+00  0.10650081207E+04  0.10650081207E+04  0.00000000000E+00 0. -1.
          1   -1    0    0  501    0 -0.00000000000E+00 -0.00000000000E+00 -0.10624656205E+03  0.10624656205E+03  0.00000000000E+00 0. -1.
         25    2    1    2    0    0 -0.65027288054E+02 -0.92162196555E+02  0.77944587659E+02  0.18553927676E+03  0.12500818296E+03 0.  0.
          2    1    1    2  501    0  0.63158848005E+02  0.66621290559E+02 -0.11954982928E+02  0.92576228341E+02  0.00000000000E+00 0. -1.
          1    1    1    2  502    0  0.18684400483E+01  0.25540905997E+02  0.89277195387E+03  0.89313917760E+03  0.00000000000E+00 0. -1.
         22    1    3    3    0    0 -0.19897834593E+02  0.31202905934E+02  0.16541885130E+02  0.40536145893E+02  0.00000000000E+00 0. -1.
         22    1    3    3    0    0 -0.45129453461E+02 -0.12336510249E+03  0.61402702530E+02  0.14500313086E+03  0.00000000000E+00 0. -1.
</event>
<event>
 7    1  0.6089676E-006  0.1062455E+03  0.7818608E-02  0.1462400E+00
          2   -1    0    0  502    0  0.00000000000E+00  0.00000000000E+00  0.18393315455E+04  0.18393315455E+04  0.00000000000E+00 0. -1.
          1   -1    0    0  501    0 -0.00000000000E+00 -0.00000000000E+00 -0.34806405612E+03  0.34806405612E+03  0.00000000000E+00 0. -1.
         25    2    1    2    0    0  0.25613534961E+02  0.11612263772E+03  0.43794211823E+03  0.47069964946E+03  0.12499736362E+03 0.  0.
          2    1    1    2  501    0 -0.37577784790E+02 -0.99149900678E+02 -0.32313098248E+03  0.34008296716E+03  0.00000000000E+00 0. -1.
          1    1    1    2  502    0  0.11964249829E+02 -0.16972737038E+02  0.13764563536E+04  0.13766129850E+04  0.00000000000E+00 0. -1.
         22    1    3    3    0    0 -0.48398304673E+02  0.62956968824E+02  0.23980035202E+03  0.25260677870E+03  0.00000000000E+00 0. -1.
         22    1    3    3    0    0  0.74011839634E+02  0.53165668891E+02  0.19814176621E+03  0.21809287075E+03  0.00000000000E+00 0. -1.
</event>
<event>
 7    1  0.6089676E-006  0.2345904E+03  0.7818608E-02  0.1290776E+00
          2   -1    0    0  502    0  0.00000000000E+00  0.00000000000E+00  0.22647552515E+04  0.22647552515E+04  0.00000000000E+00 0. -1.
          1   -1    0    0  501    0 -0.00000000000E+00 -0.00000000000E+00 -0.17163067954E+04  0.17163067954E+04  0.00000000000E+00 0. -1.
         25    2    1    2    0    0  0.35898678292E+01  0.21598731716E+03  0.41429152401E+03  0.48365954478E+03  0.12500272023E+03 0.  0.
          2    1    1    2  501    0 -0.32079747172E+02  0.21495027446E+02 -0.16735223750E+04  0.16739678270E+04  0.00000000000E+00 0. -1.
          1    1    1    2  502    0  0.28489879343E+02 -0.23748234461E+03  0.18076793070E+04  0.18234346751E+04  0.00000000000E+00 0. -1.
         22    1    3    3    0    0 -0.47553358967E+02  0.62029534075E+02  0.78725399860E+02  0.11093544803E+03  0.00000000000E+00 0. -1.
         22    1    3    3    0    0  0.51143226796E+02  0.15395778309E+03  0.33556612415E+03  0.37272409675E+03  0.00000000000E+00 0. -1.
</event>
<event>
 7    1  0.6089676E-006  0.7915886E+02  0.7818608E-02  0.1347867E+00
          2   -1    0    0  502    0  0.00000000000E+00  0.00000000000E+00  0.10968461106E+04  0.10968461106E+04  0.00000000000E+00 0. -1.
          1   -1    0    0  501    0 -0.00000000000E+00 -0.00000000000E+00 -0.13548222675E+03  0.13548222675E+03  0.00000000000E+00 0. -1.
         25    2    1    2    0    0  0.10539527981E+03 -0.97407132960E+02  0.19818917490E+03  0.27477275966E+03  0.12499922338E+03 0.  0.
          2    1    1    2  501    0 -0.56847841715E+02  0.38509613918E+02 -0.83127415052E+02  0.10781852626E+03  0.00000000000E+00 0. -1.
          1    1    1    2  502    0 -0.48547438097E+02  0.58897519042E+02  0.84630212404E+03  0.84973705148E+03  0.00000000000E+00 0. -1.
         22    1    3    3    0    0  0.31227892944E+02 -0.10966677344E+03  0.10464597919E+03  0.15476680347E+03  0.00000000000E+00 0. -1.
         22    1    3    3    0    0  0.74167386868E+02  0.12259640475E+02  0.93543195701E+02  0.12000595619E+03  0.00000000000E+00 0. -1.
</event>
<event>
 7    1  0.6089676E-006  0.1098238E+03  0.7818608E-02  0.1417158E+00
          2   -1    0    0  502    0  0.00000000000E+00  0.00000000000E+00  0.36636637303E+03  0.36636637303E+03  0.00000000000E+00 0. -1.
          1   -1    0    0  501    0 -0.00000000000E+00 -0.00000000000E+00 -0.49979675415E+03  0.49979675415E+03  0.00000000000E+00 0. -1.
         25    2    1    2    0    0  0.72665306666E+02 -0.46475239004E+02 -0.18422984546E+03  0.23875946470E+03  0.12500100557E+03 0.  0.
          2    1    1    2  501    0  0.28172696569E+02  0.38749734537E+00 -0.27850982579E+03  0.27993137382E+03  0.00000000000E+00 0. -1.
          1    1    1    2  502    0 -0.10083800323E+03  0.46087741659E+02  0.32930929013E+03  0.34747228867E+03  0.00000000000E+00 0. -1.
         22    1    3    3    0    0 -0.20769624106E+02  0.13793308711E+02 -0.16475072187E+01  0.24986935201E+02  0.00000000000E+00 0.  1.
         22    1    3    3    0    0  0.93434930773E+02 -0.60268547715E+02 -0.18258233824E+03  0.21377252950E+03  0.00000000000E+00 0.  1.
</event>
<event>
 7    1  0.6089676E-006  0.4437182E+02  0.7818608E-02  0.1501370E+00
          2   -1    0    0  502    0  0.00000000000E+00  0.00000000000E+00  0.79634939818E+03  0.79634939818E+03  0.00000000000E+00 0. -1.
          1   -1    0    0  501    0 -0.00000000000E+00 -0.00000000000E+00 -0.25587208554E+04  0.25587208554E+04  0.00000000000E+00 0. -1.
         25    2    1    2    0    0 -0.15252436430E+02  0.11617165300E+02 -0.21870462711E+02  0.12834091283E+03  0.12500190966E+03 0.  0.
          2    1    1    2  501    0 -0.36146323399E+01 -0.44352178198E+02 -0.24829354173E+04  0.24833341434E+04  0.00000000000E+00 0. -1.
          1    1    1    2  502    0  0.18867068770E+02  0.32735012898E+02  0.74243442278E+03  0.74339519738E+03  0.00000000000E+00 0. -1.
         22    1    3    3    0    0 -0.25359274689E+02 -0.21698366292E+02  0.43171017397E+02  0.54567835357E+02  0.00000000000E+00 0. -1.
         22    1    3    3    0    0  0.10106838259E+02  0.33315531592E+02 -0.65041480108E+02  0.73773077470E+02  0.00000000000E+00 0. -1.
</event>
<event>
 7    1  0.6089676E-006  0.4462676E+02  0.7818608E-02  0.1534714E+00
          2   -1    0    0  502    0  0.00000000000E+00  0.00000000000E+00  0.18029626873E+03  0.18029626873E+03  0.00000000000E+00 0. -1.
          1   -1    0    0  501    0 -0.00000000000E+00 -0.00000000000E+00 -0.12000323984E+03  0.12000323984E+03  0.00000000000E+00 0. -1.
         25    2    1    2    0    0  0.14659496771E+02 -0.27788126833E+02  0.35060361297E+02  0.13357157680E+03  0.12500022542E+03 0.  0.
          2    1    1    2  501    0  0.28569415217E+02  0.92861869995E+01 -0.61288426120E+02  0.68254786873E+02  0.00000000000E+00 0. -1.
          1    1    1    2  502    0 -0.43228911989E+02  0.18501939833E+02  0.86521093710E+02  0.98473144898E+02  0.00000000000E+00 0. -1.
         22    1    3    3    0    0  0.66314840573E+02  0.14130914408E+01  0.33271343816E+02  0.74206719554E+02  0.00000000000E+00 0. -1.
         22    1    3    3    0    0 -0.51655343801E+02 -0.29201218274E+02  0.17890174811E+01  0.59364857243E+02  0.00000000000E+00 0. -1.
</event>
<event>
 7    1  0.6089676E-006  0.9292114E+02  0.7818608E-02  0.1300274E+00
          2   -1    0    0  502    0  0.00000000000E+00  0.00000000000E+00  0.17456315514E+04  0.17456315514E+04  0.00000000000E+00 0. -1.
          1   -1    0    0  501    0 -0.00000000000E+00 -0.00000000000E+00 -0.28452577885E+04  0.28452577885E+04  0.00000000000E+00 0. -1.
         25    2    1    2    0    0 -0.69203464276E+01 -0.17038132871E+03  0.13012616478E+02  0.21183588964E+03  0.12500970996E+03 0.  0.
          2    1    1    2  501    0  0.34153603274E+02  0.82469082941E+02 -0.27438232467E+04  0.27452747818E+04  0.00000000000E+00 0. -1.
          1    1    1    2  502    0 -0.27233256847E+02  0.87912245771E+02  0.16311843932E+04  0.16337786685E+04  0.00000000000E+00 0. -1.
         22    1    3    3    0    0  0.34078659058E+02 -0.36094770809E+02  0.45922831190E+02  0.67624654583E+02  0.00000000000E+00 0. -1.
         22    1    3    3    0    0 -0.40999005485E+02 -0.13428655790E+03 -0.32910214712E+02  0.14421123506E+03  0.00000000000E+00 0. -1.
</event>
<event>
 7    1  0.8501926E-006  0.1010521E+03  0.7818608E-02  0.1299216E+00
          2   -1    0    0  502    0  0.00000000000E+00  0.00000000000E+00  0.17744746574E+04  0.17744746574E+04  0.00000000000E+00 0. -1.
          1   -1    0    0  501    0 -0.00000000000E+00 -0.00000000000E+00 -0.66182897721E+03  0.66182897721E+03  0.00000000000E+00 0. -1.
         25    2    1    2    0    0 -0.35984895677E+02 -0.69536581330E+02 -0.49335436425E+02  0.15552765332E+03  0.12499846720E+03 0.  0.
          2    1    1    2  501    0 -0.42221582183E+02  0.96985392355E+02 -0.55338746505E+03  0.56340617214E+03  0.00000000000E+00 0. -1.
          1    1    1    2  502    0  0.78206477860E+02 -0.27448811025E+02  0.17153685816E+04  0.17173698091E+04  0.00000000000E+00 0. -1.
         22    1    3    3    0    0 -0.58688422661E+02 -0.39157363099E+02 -0.80065356807E+02  0.10671500082E+03  0.00000000000E+00 0.  1.
         22    1    3    3    0    0  0.22703526983E+02 -0.30379218231E+02  0.30729920382E+02  0.48812652504E+02  0.00000000000E+00 0.  1.
</event>
<event>
 7    1  0.6089676E-006  0.7252761E+02  0.7818608E-02  0.1414069E+00
          2   -1    0    0  502    0  0.00000000000E+00  0.00000000000E+00  0.11206586698E+03  0.11206586698E+03  0.00000000000E+00 0. -1.
          1   -1    0    0  501    0 -0.00000000000E+00 -0.00000000000E+00 -0.40219398044E+03  0.40219398044E+03  0.00000000000E+00 0. -1.
         25    2    1    2    0    0 -0.80030025841E+02 -0.72447947542E+02 -0.65742014854E+02  0.17776515364E+03  0.12499970877E+03 0.  0.
          2    1    1    2  501    0  0.23600202954E+02  0.36775137491E+02 -0.25805279858E+03  0.26172624471E+03  0.00000000000E+00 0. -1.
          1    1    1    2  502    0  0.56429822888E+02  0.35672810051E+02  0.33666699972E+02  0.74768449062E+02  0.00000000000E+00 0. -1.
         22    1    3    3    0    0 -0.11310720394E+03 -0.60006223834E+02 -0.61901444309E+02  0.14221735228E+03  0.00000000000E+00 0.  1.
         22    1    3    3    0    0  0.33077178096E+02 -0.12441723708E+02 -0.38405705455E+01  0.35547801363E+02  0.00000000000E+00 0.  1.
</event>
<event>
 7    1  0.6089676E-006  0.5901823E+02  0.7818608E-02  0.1484194E+00
          2   -1    0    0  502    0  0.00000000000E+00  0.00000000000E+00  0.66148301966E+03  0.66148301966E+03  0.00000000000E+00 0. -1.
          1   -1    0    0  501    0 -0.00000000000E+00 -0.00000000000E+00 -0.17403516276E+03  0.17403516276E+03  0.00000000000E+00 0. -1.
         25    2    1    2    0    0  0.37204601522E+02  0.76969113786E+02 -0.44883349970E+02  0.15794035118E+03  0.12498884980E+03 0.  0.
          2    1    1    2  501    0 -0.28647701632E+02 -0.46131793243E+02 -0.61981147894E+02  0.82404464993E+02  0.00000000000E+00 0. -1.
          1    1    1    2  502    0 -0.85568998901E+01 -0.30837320543E+02  0.59431235476E+03  0.59517336625E+03  0.00000000000E+00 0. -1.
         22    1    3    3    0    0  0.29767576769E+02  0.85838867962E+02  0.19166058231E+02  0.92853420334E+02  0.00000000000E+00 0. -1.
         22    1    3    3    0    0  0.74370247527E+01 -0.88697541758E+01 -0.64049408201E+02  0.65086930848E+02  0.00000000000E+00 0. -1.
</event>
<event>
 7    1  0.6089676E-006  0.5457646E+02  0.7818608E-02  0.1521620E+00
          2   -1    0    0  502    0  0.00000000000E+00  0.00000000000E+00  0.17857987778E+04  0.17857987778E+04  0.00000000000E+00 0. -1.
          1   -1    0    0  501    0 -0.00000000000E+00 -0.00000000000E+00 -0.12628876944E+03  0.12628876944E+03  0.00000000000E+00 0. -1.
         25    2    1    2    0    0  0.42752226788E+02 -0.16994972026E+01  0.84129672801E+03  0.85160792686E+03  0.12500094138E+03 0.  0.
          2    1    1    2  501    0  0.75027380100E+01 -0.25713805898E+02 -0.11876807481E+03  0.12175116625E+03  0.00000000000E+00 0. -1.
          1    1    1    2  502    0 -0.50254964798E+02  0.27413303101E+02  0.93698135512E+03  0.93872845409E+03  0.00000000000E+00 0. -1.
         22    1    3    3    0    0  0.84038520184E+02 -0.20355813773E+02  0.52208827872E+03  0.52920034279E+03  0.00000000000E+00 0.  1.
         22    1    3    3    0    0 -0.41286293396E+02  0.18656316571E+02  0.31920844929E+03  0.32240758408E+03  0.00000000000E+00 0.  1.
</event>
<event>
 7    1  0.6089676E-006  0.5583651E+02  0.7818608E-02  0.1429920E+00
          2   -1    0    0  502    0  0.00000000000E+00  0.00000000000E+00  0.10651096498E+04  0.10651096498E+04  0.00000000000E+00 0. -1.
          1   -1    0    0  501    0 -0.00000000000E+00 -0.00000000000E+00 -0.65889888237E+03  0.65889888237E+03  0.00000000000E+00 0. -1.
         25    2    1    2    0    0  0.19215544330E+02 -0.10310721772E+03 -0.10368917604E+03  0.19333288312E+03  0.12500329186E+03 0.  0.
          2    1    1    2  501    0 -0.20959964741E+01  0.50218390150E+02 -0.50839044513E+03  0.51086898968E+03  0.00000000000E+00 0. -1.
          1    1    1    2  502    0 -0.17119547856E+02  0.52888827571E+02  0.10182903886E+04  0.10198066593E+04  0.00000000000E+00 0. -1.
         22    1    3    3    0    0 -0.21659500169E+00 -0.92248398160E+02 -0.52388229810E+01  0.92397289694E+02  0.00000000000E+00 0.  1.
         22    1    3    3    0    0  0.19432139331E+02 -0.10858819560E+02 -0.98450353064E+02  0.10093559342E+03  0.00000000000E+00 0.  1.
</event>
<event>
 7    1  0.6089676E-006  0.2060607E+02  0.7818608E-02  0.1733707E+00
          2   -1    0    0  502    0  0.00000000000E+00  0.00000000000E+00  0.20504808532E+03  0.20504808532E+03  0.00000000000E+00 0. -1.
          1   -1    0    0  501    0 -0.00000000000E+00 -0.00000000000E+00 -0.10058073906E+04  0.10058073906E+04  0.00000000000E+00 0. -1.
         25    2    1    2    0    0 -0.11663671329E-03 -0.36709721257E+01  0.71559171883E+01  0.12525909037E+03  0.12500062613E+03 0.  0.
          2    1    1    2  501    0  0.20532347565E+02  0.19281513395E+01 -0.94587822665E+03  0.94610301485E+03  0.00000000000E+00 0. -1.
          1    1    1    2  502    0 -0.20532230928E+02  0.17428207862E+01  0.13796300420E+03  0.13949337067E+03  0.00000000000E+00 0. -1.
         22    1    3    3    0    0 -0.31962884064E+02 -0.13255660636E+02 -0.48970696478E+02  0.59962218189E+02  0.00000000000E+00 0.  1.
         22    1    3    3    0    0  0.31962767427E+02  0.95846885102E+01  0.56126613666E+02  0.65296872185E+02  0.00000000000E+00 0.  1.
</event>
<event>
 7    1  0.6089676E-006  0.7218714E+02  0.7818608E-02  0.1428960E+00
          2   -1    0    0  502    0  0.00000000000E+00  0.00000000000E+00  0.44818579088E+03  0.44818579088E+03  0.00000000000E+00 0. -1.
          1   -1    0    0  501    0 -0.00000000000E+00 -0.00000000000E+00 -0.55226436631E+03  0.55226436631E+03  0.00000000000E+00 0. -1.
         25    2    1    2    0    0  0.98517777400E+02  0.50124061878E+02  0.26041034128E+03  0.30928407994E+03  0.12499968886E+03 0.  0.
          2    1    1    2  501    0 -0.66138030498E+02 -0.28096643638E+02 -0.52298748802E+03  0.52790110161E+03  0.00000000000E+00 0. -1.
          1    1    1    2  502    0 -0.32379746902E+02 -0.22027418239E+02  0.15849857130E+03  0.16326497563E+03  0.00000000000E+00 0. -1.
         22    1    3    3    0    0  0.62139705992E+02  0.54884951309E+02  0.52435126879E+02  0.98097622152E+02  0.00000000000E+00 0. -1.
         22    1    3    3    0    0  0.36378071409E+02 -0.47608894317E+01  0.20797521440E+03  0.21118645779E+03  0.00000000000E+00 0. -1.
</event>
<event>
 7    1  0.6089676E-006  0.8917673E+02  0.7818608E-02  0.1404257E+00
          2   -1    0    0  502    0  0.00000000000E+00  0.00000000000E+00  0.30790351039E+04  0.30790351039E+04  0.00000000000E+00 0. -1.
          1   -1    0    0  501    0 -0.00000000000E+00 -0.00000000000E+00 -0.16997520458E+03  0.16997520458E+03  0.00000000000E+00 0. -1.
         25    2    1    2    0    0  0.12178433665E+03  0.31695632344E+01  0.13121304364E+03  0.21836205832E+03  0.12499461951E+03 0.  0.
          2    1    1    2  501    0 -0.35080054553E+02  0.15544873877E+02 -0.12279516220E+03  0.12865032138E+03  0.00000000000E+00 0. -1.
          1    1    1    2  502    0 -0.86704282101E+02 -0.18714437111E+02  0.29006420179E+04  0.29019979288E+04  0.00000000000E+00 0. -1.
         22    1    3    3    0    0  0.40800408313E+02  0.20778608148E+02 -0.16762698297E+02  0.48758711317E+02  0.00000000000E+00 0. -1.
         22    1    3    3    0    0  0.80983928341E+02 -0.17609044913E+02  0.14797574193E+03  0.16960334700E+03  0.00000000000E+00 0. -1.
</event>
<event>
 7    1  0.6089676E-006  0.1230107E+03  0.7818608E-02  0.1372192E+00
          2   -1    0    0  502    0  0.00000000000E+00  0.00000000000E+00  0.81051215331E+02  0.81051215331E+02  0.00000000000E+00 0. -1.
          1   -1    0    0  501    0 -0.00000000000E+00 -0.00000000000E+00 -0.24644697906E+04  0.24644697906E+04  0.00000000000E+00 0. -1.
         25    2    1    2    0    0 -0.11758009045E+03  0.28697665995E+02 -0.71900367528E+03  0.73975743590E+03  0.12500458073E+03 0.  0.
          2    1    1    2  501    0  0.12417916371E+03  0.67092323082E+01 -0.17281163417E+04  0.17325852271E+04  0.00000000000E+00 0. -1.
          1    1    1    2  502    0 -0.65990732572E+01 -0.35406898303E+02  0.63701441680E+02  0.73178343022E+02  0.00000000000E+00 0. -1.
         22    1    3    3    0    0 -0.11847294111E+03  0.12918374250E+02 -0.33743956905E+03  0.35786615505E+03  0.00000000000E+00 0.  1.
         22    1    3    3    0    0  0.89285065725E+00  0.15779291745E+02 -0.38156410622E+03  0.38189128085E+03  0.00000000000E+00 0.  1.
</event>
<event>
 7    1  0.6089676E-006  0.1750289E+03  0.7818608E-02  0.1319752E+00
          2   -1    0    0  502    0  0.00000000000E+00  0.00000000000E+00  0.11000598030E+04  0.11000598030E+04  0.00000000000E+00 0. -1.
          1   -1    0    0  501    0 -0.00000000000E+00 -0.00000000000E+00 -0.65357907260E+03  0.65357907260E+03  0.00000000000E+00 0. -1.
         25    2    1    2    0    0  0.15542581545E+03  0.12644656136E+03 -0.29620705198E+03  0.37882765220E+03  0.12500342170E+03 0.  0.
          2    1    1    2  501    0 -0.13221005674E+03 -0.94229017247E+02 -0.29480752886E+03  0.33655621502E+03  0.00000000000E+00 0. -1.
          1    1    1    2  502    0 -0.23215758707E+02 -0.32217544113E+02  0.10374953112E+04  0.10382550084E+04  0.00000000000E+00 0. -1.
         22    1    3    3    0    0  0.35544436815E+02  0.71815385089E+02 -0.20070874412E+03  0.21611306413E+03  0.00000000000E+00 0. -1.
         22    1    3    3    0    0  0.11988137863E+03  0.54631176271E+02 -0.95498307867E+02  0.16271458806E+03  0.00000000000E+00 0. -1.
</event>
<event>
 7    1  0.6089676E-006  0.9972242E+02  0.7818608E-02  0.1404371E+00
          2   -1    0    0  502    0  0.00000000000E+00  0.00000000000E+00  0.18437215885E+04  0.18437215885E+04  0.00000000000E+00 0. -1.
          1   -1    0    0  501    0 -0.00000000000E+00 -0.00000000000E+00 -0.31135829912E+03  0.31135829912E+03  0.00000000000E+00 0. -1.
         25    2    1    2    0    0 -0.63331425474E+02 -0.37507608288E+02  0.43628160389E+03  0.45976530656E+03  0.12499923634E+03 0.  0.
          2    1    1    2  501    0  0.70820261615E+02  0.70960974560E+02 -0.29101220638E+03  0.30779713064E+03  0.00000000000E+00 0. -1.
          1    1    1    2  502    0 -0.74888361416E+01 -0.33453366272E+02  0.13870938919E+04  0.13875174505E+04  0.00000000000E+00 0. -1.
         22    1    3    3    0    0 -0.61224047958E+02  0.31830215144E+02  0.14862652555E+03  0.16386393973E+03  0.00000000000E+00 0.  1.
         22    1    3    3    0    0 -0.21073775154E+01 -0.69337823432E+02  0.28765507834E+03  0.29590136683E+03  0.00000000000E+00 0.  1.
</event>
<event>
 7    1  0.6089676E-006  0.1245727E+03  0.7818608E-02  0.1315327E+00
          2   -1    0    0  502    0  0.00000000000E+00  0.00000000000E+00  0.10738425118E+04  0.10738425118E+04  0.00000000000E+00 0. -1.
          1   -1    0    0  501    0 -0.00000000000E+00 -0.00000000000E+00 -0.10040337047E+04  0.10040337047E+04  0.00000000000E+00 0. -1.
         25    2    1    2    0    0 -0.14535078570E+03 -0.46290138395E+02  0.10751586876E+03  0.22462173207E+03  0.12500253064E+03 0.  0.
          2    1    1    2  501    0  0.12389592084E+03 -0.76533087220E+01 -0.94047008903E+03  0.94862677629E+03  0.00000000000E+00 0. -1.
          1    1    1    2  502    0  0.21454864864E+02  0.53943447117E+02  0.90276302737E+03  0.90462770812E+03  0.00000000000E+00 0. -1.
         22    1    3    3    0    0 -0.93701032463E+02  0.31104722732E+02  0.81457946072E+02  0.12799525085E+03  0.00000000000E+00 0. -1.
         22    1    3    3    0    0 -0.51649753237E+02 -0.77394861127E+02  0.26057922684E+02  0.96626481219E+02  0.00000000000E+00 0. -1.
</event>
<event>
 7    1  0.6089676E-006  0.5543745E+02  0.7818608E-02  0.1447898E+00
          2   -1    0    0  502    0  0.00000000000E+00  0.00000000000E+00  0.25429951429E+02  0.25429951429E+02  0.00000000000E+00 0. -1.
          1   -1    0    0  501    0 -0.00000000000E+00 -0.00000000000E+00 -0.37226869565E+04  0.37226869565E+04  0.00000000000E+00 0. -1.
         25    2    1    2    0    0  0.19850971343E+02  0.45054707432E+01 -0.13374898531E+04  0.13434720066E+04  0.12499426016E+03 0.  0.
          2    1    1    2  501    0  0.28431872874E+02 -0.33907720720E+02 -0.23460584334E+04  0.23464757143E+04  0.00000000000E+00 0. -1.
          1    1    1    2  502    0 -0.48282844217E+02  0.29402249977E+02 -0.13708718538E+02  0.58169186975E+02  0.00000000000E+00 0. -1.
         22    1    3    3    0    0 -0.14942345826E+02 -0.39362607391E+02 -0.18965028574E+03  0.19426764899E+03  0.00000000000E+00 0. -1.
         22    1    3    3    0    0  0.34793317169E+02  0.43868078134E+02 -0.11478395673E+04  0.11492043576E+04  0.00000000000E+00 0. -1.
</event>
<event>
 7    1  0.6089676E-006  0.4679398E+02  0.7818608E-02  0.1578125E+00
          2   -1    0    0  502    0  0.00000000000E+00  0.00000000000E+00  0.65823495721E+03  0.65823495721E+03  0.00000000000E+00 0. -1.
          1   -1    0    0  501    0 -0.00000000000E+00 -0.00000000000E+00 -0.12442430364E+04  0.12442430364E+04  0.00000000000E+00 0. -1.
         25    2    1    2    0    0  0.45370810251E+02  0.10550703394E+02 -0.90161805795E+03  0.91143285774E+03  0.12499961593E+03 0.  0.
          2    1    1    2  501    0 -0.46853140423E+02  0.11126911490E+02 -0.33581883321E+03  0.33925405475E+03  0.00000000000E+00 0. -1.
          1    1    1    2  502    0  0.14823301724E+01 -0.21677614884E+02  0.65142881200E+03  0.65179108109E+03  0.00000000000E+00 0. -1.
         22    1    3    3    0    0  0.81358013266E+02  0.20272068089E+02 -0.77263559233E+03  0.77717169377E+03  0.00000000000E+00 0. -1.
         22    1    3    3    0    0 -0.35987203015E+02 -0.97213646951E+01 -0.12898246562E+03  0.13426116397E+03  0.00000000000E+00 0. -1.
</event>
<event>
 7    1  0.6089676E-006  0.1242263E+03  0.7818608E-02  0.1242271E+00
          2   -1    0    0  502    0  0.00000000000E+00  0.00000000000E+00  0.13757089686E+04  0.13757089686E+04  0.00000000000E+00 0. -1.
          1   -1    0    0  501    0 -0.00000000000E+00 -0.00000000000E+00 -0.21188292843E+03  0.21188292843E+03  0.00000000000E+00 0. -1.
         25    2    1    2    0    0  0.11677530766E+03  0.38803972313E+01  0.10576490964E+03  0.20115320981E+03  0.12499947098E+03 0.  0.
          2    1    1    2  501    0 -0.79885723119E+02  0.10703609271E+03 -0.13368649976E+03  0.18897231045E+03  0.00000000000E+00 0. -1.
          1    1    1    2  502    0 -0.36889584541E+02 -0.11091648994E+03  0.11917476303E+04  0.11974663768E+04  0.00000000000E+00 0. -1.
         22    1    3    3    0    0 -0.34760506833E+01  0.49577458606E+01  0.77348646591E+02  0.77585277610E+02  0.00000000000E+00 0.  1.
         22    1    3    3    0    0  0.12025135834E+03 -0.10773486293E+01  0.28416263050E+02  0.12356793220E+03  0.00000000000E+00 0.  1.
</event>
<event>
 7    1  0.6089676E-006  0.1151056E+03  0.7818608E-02  0.1307892E+00
          2   -1    0    0  502    0  0.00000000000E+00  0.00000000000E+00  0.17968141021E+03  0.17968141021E+03  0.00000000000E+00 0. -1.
          1   -1    0    0  501    0 -0.00000000000E+00 -0.00000000000E+00 -0.87901751944E+03  0.87901751944E+03  0.00000000000E+00 0. -1.
         25    2    1    2    0    0  0.10776299317E+03  0.29614809376E+02 -0.20784328244E+02  0.16895864332E+03  0.12500054088E+03 0.  0.
          2    1    1    2  501    0 -0.11016728943E+03  0.37543726088E+02 -0.76861007874E+03  0.77737237934E+03  0.00000000000E+00 0. -1.
          1    1    1    2  502    0  0.24042962629E+01 -0.67158535464E+02  0.90058297751E+02  0.11236790698E+03  0.00000000000E+00 0. -1.
         22    1    3    3    0    0  0.11613431605E+03 -0.64553615516E+01 -0.44999476132E+02  0.12471489049E+03  0.00000000000E+00 0. -1.
         22    1    3    3    0    0 -0.83713228825E+01  0.36070170927E+02  0.24215147888E+02  0.44243752833E+02  0.00000000000E+00 0. -1.
</event>
<event>
 7    1  0.6089676E-006  0.3025243E+02  0.7818608E-02  0.1598954E+00
          2   -1    0    0  502    0  0.00000000000E+00  0.00000000000E+00  0.12761521363E+04  0.12761521363E+04  0.00000000000E+00 0. -1.
          1   -1    0    0  501    0 -0.00000000000E+00 -0.00000000000E+00 -0.43248878962E+03  0.43248878962E+03  0.00000000000E+00 0. -1.
         25    2    1    2    0    0  0.34073383322E+02 -0.46596665106E+02  0.90416506339E+02  0.16472018446E+03  0.12500139959E+03 0.  0.
          2    1    1    2  501    0 -0.23398081534E+02  0.18994188071E+02 -0.39457158759E+03  0.39572084496E+03  0.00000000000E+00 0. -1.
          1    1    1    2  502    0 -0.10675301789E+02  0.27602477035E+02  0.11478184279E+04  0.11481998965E+04  0.00000000000E+00 0. -1.
         22    1    3    3    0    0  0.67304186835E+02  0.59593612253E+01  0.74415482230E+02  0.10051383759E+03  0.00000000000E+00 0.  1.
         22    1    3    3    0    0 -0.33230803513E+02 -0.52556026331E+02  0.16001024109E+02  0.64206346870E+02  0.00000000000E+00 0.  1.
</event>
<event>
 7    1  0.6089676E-006  0.3394443E+02  0.7818608E-02  0.1578854E+00
          2   -1    0    0  502    0  0.00000000000E+00  0.00000000000E+00  0.13504235673E+04  0.13504235673E+04  0.00000000000E+00 0. -1.
          1   -1    0    0  501    0 -0.00000000000E+00 -0.00000000000E+00 -0.86380753802E+03  0.86380753802E+03  0.00000000000E+00 0. -1.
         25    2    1    2    0    0 -0.12303056286E+02  0.10498055282E+01  0.85399385432E+03  0.86318207500E+03  0.12500129640E+03 0.  0.
          2    1    1    2  501    0  0.19301299661E+02  0.27936039959E+02 -0.85842551477E+03  0.85909680881E+03  0.00000000000E+00 0. -1.
          1    1    1    2  502    0 -0.69982433751E+01 -0.28985845487E+02  0.49104768977E+03  0.49195222153E+03  0.00000000000E+00 0. -1.
         22    1    3    3    0    0  0.41261281097E+02 -0.51470230958E+01  0.67408825302E+03  0.67536949741E+03  0.00000000000E+00 0. -1.
         22    1    3    3    0    0 -0.53564337383E+02  0.61968286240E+01  0.17990560129E+03  0.18781257759E+03  0.00000000000E+00 0. -1.
</event>
<event>
 7    1  0.6089676E-006  0.8165308E+02  0.7818608E-02  0.1358894E+00
          2   -1    0    0  502    0  0.00000000000E+00  0.00000000000E+00  0.67042402272E+03  0.67042402272E+03  0.00000000000E+00 0. -1.
          1   -1    0    0  501    0 -0.00000000000E+00 -0.00000000000E+00 -0.91307013710E+03  0.91307013710E+03  0.00000000000E+00 0. -1.
         25    2    1    2    0    0 -0.52746265730E+02  0.62484190089E+02 -0.73111705716E+01  0.14954885208E+03  0.12499985354E+03 0.  0.
          2    1    1    2  501    0 -0.45953980920E+01 -0.82143719946E+02 -0.83107089354E+03  0.83513324595E+03  0.00000000000E+00 0. -1.
          1    1    1    2  502    0  0.57341663822E+02  0.19659529857E+02  0.59573594973E+03  0.59881206177E+03  0.00000000000E+00 0. -1.
         22    1    3    3    0    0 -0.60033376880E+02  0.87425561837E+02  0.24126619763E+02  0.10876271872E+03  0.00000000000E+00 0.  1.
         22    1    3    3    0    0  0.72871111496E+01 -0.24941371748E+02 -0.31437790335E+02  0.40786133363E+02  0.00000000000E+00 0.  1.
</event>
<event>
 7    1  0.6089676E-006  0.7395193E+02  0.7818608E-02  0.1415910E+00
          2   -1    0    0  502    0  0.00000000000E+00  0.00000000000E+00  0.23964098443E+04  0.23964098443E+04  0.00000000000E+00 0. -1.
          1   -1    0    0  501    0 -0.00000000000E+00 -0.00000000000E+00 -0.64974558395E+03  0.64974558395E+03  0.00000000000E+00 0. -1.
         25    2    1    2    0    0  0.35103909522E+02  0.48111069841E+02  0.19740892707E+04  0.19789392388E+04  0.12500041065E+03 0.  0.
          2    1    1    2  501    0 -0.69917250708E+02 -0.24175092368E+02 -0.64413535881E+03  0.64836966116E+03  0.00000000000E+00 0. -1.
          1    1    1    2  502    0  0.34813341186E+02 -0.23935977473E+02  0.41671034847E+03  0.41884652829E+03  0.00000000000E+00 0. -1.
         22    1    3    3    0    0  0.80045337957E+02  0.41440137470E+02  0.11086126673E+04  0.11122709145E+04  0.00000000000E+00 0. -1.
         22    1    3    3    0    0 -0.44941428435E+02  0.66709323706E+01  0.86547660337E+03  0.86666832428E+03  0.00000000000E+00 0. -1.
</event>
<event>
 7    1  0.6089676E-006  0.7147494E+02  0.7818608E-02  0.1496629E+00
          2   -1    0    0  502    0  0.00000000000E+00  0.00000000000E+00  0.59076874901E+03  0.59076874901E+03  0.00000000000E+00 0. -1.
          1   -1    0    0  501    0 -0.00000000000E+00 -0.00000000000E+00 -0.40063321803E+02  0.40063321803E+02  0.00000000000E+00 0. -1.
         25    2    1    2    0    0 -0.35617868850E+02  0.57809683114E+02  0.28916680588E+03  0.32226367594E+03  0.12500337262E+03 0.  0.
          2    1    1    2  501    0  0.56621571662E+02 -0.45722133420E+02  0.35033188770E+02  0.80770292666E+02  0.00000000000E+00 0. -1.
          1    1    1    2  502    0 -0.21003702812E+02 -0.12087549694E+02  0.22650543256E+03  0.22779810221E+03  0.00000000000E+00 0. -1.
         22    1    3    3    0    0 -0.29166411038E+02  0.54269028419E+02  0.30159310114E+03  0.30782171079E+03  0.00000000000E+00 0.  1.
         22    1    3    3    0    0 -0.64514578118E+01  0.35406546955E+01 -0.12426295261E+02  0.14441965153E+02  0.00000000000E+00 0.  1.
</event>
<event>
 7    1  0.6089676E-006  0.2200072E+02  0.7818608E-02  0.1716109E+00
          2   -1    0    0  502    0  0.00000000000E+00  0.00000000000E+00  0.16224606759E+04  0.16224606759E+04  0.00000000000E+00 0. -1.
          1   -1    0    0  501    0 -0.00000000000E+00 -0.00000000000E+00 -0.21595373305E+03  0.21595373305E+03  0.00000000000E+00 0. -1.
         25    2    1    2    0    0 -0.35421170168E+02 -0.19917593859E+02 -0.10434897756E+02  0.13185434656E+03  0.12500124709E+03 0.  0.
          2    1    1    2  501    0  0.13792883403E+02  0.15985249470E+02 -0.14396171947E+03  0.14550171307E+03  0.00000000000E+00 0. -1.
          1    1    1    2  502    0  0.21628286765E+02  0.39323443887E+01  0.15609035601E+04  0.15610583494E+04  0.00000000000E+00 0. -1.
         22    1    3    3    0    0 -0.72012408113E+02  0.74384134794E+01  0.22184039887E+02  0.75718218039E+02  0.00000000000E+00 0.  1.
         22    1    3    3    0    0  0.36591237945E+02 -0.27356007338E+02 -0.32618937643E+02  0.56136128516E+02  0.00000000000E+00 0.  1.
</event>
<event>
 7    1  0.6089676E-006  0.5377145E+02  0.7818608E-02  0.1432819E+00
          2   -1    0    0  502    0  0.00000000000E+00  0.00000000000E+00  0.36851712393E+04  0.36851712393E+04  0.00000000000E+00 0. -1.
          1   -1    0    0  501    0 -0.00000000000E+00 -0.00000000000E+00 -0.14019857221E+04  0.14019857221E+04  0.00000000000E+00 0. -1.
         25    2    1    2    0    0 -0.58396794153E+02 -0.75437254153E+02  0.60763690165E+02  0.16857945349E+03  0.12500336481E+03 0.  0.
          2    1    1    2  501    0  0.11273509974E+02  0.49800147384E+02 -0.13473927445E+04  0.13483598758E+04  0.00000000000E+00 0. -1.
          1    1    1    2  502    0  0.47123284179E+02  0.25637106769E+02  0.35698145716E+04  0.35702176321E+04  0.00000000000E+00 0. -1.
         22    1    3    3    0    0  0.37803300426E+02 -0.11108047147E+02  0.27891897538E+02  0.48274591483E+02  0.00000000000E+00 0.  1.
         22    1    3    3    0    0 -0.96200094579E+02 -0.64329207006E+02  0.32871792627E+02  0.12030486200E+03  0.00000000000E+00 0.  1.
</event>
<event>
 7    1  0.6089676E-006  0.7209082E+02  0.7818608E-02  0.1417632E+00
          2   -1    0    0  502    0  0.00000000000E+00  0.00000000000E+00  0.29476841087E+04  0.29476841087E+04  0.00000000000E+00 0. -1.
          1   -1    0    0  501    0 -0.00000000000E+00 -0.00000000000E+00 -0.19624134297E+03  0.19624134297E+03  0.00000000000E+00 0. -1.
         25    2    1    2    0    0  0.57392261777E+02  0.22632324959E+01  0.12669828000E+04  0.12744307441E+04  0.12501724717E+03 0.  0.
          2    1    1    2  501    0 -0.56481653409E+02 -0.45019502139E+02 -0.18545933773E+03  0.19902788422E+03  0.00000000000E+00 0. -1.
          1    1    1    2  502    0 -0.91060836813E+00  0.42756269643E+02  0.16699193034E+04  0.16704668233E+04  0.00000000000E+00 0. -1.
         22    1    3    3    0    0 -0.13399643039E+00  0.75599344836E+01  0.10458244848E+04  0.10458518172E+04  0.00000000000E+00 0.  1.
         22    1    3    3    0    0  0.57526258207E+02 -0.52967019877E+01  0.22115831516E+03  0.22857892685E+03  0.00000000000E+00 0.  1.
</event>
<event>
 7    1  0.6089676E-006  0.5891310E+02  0.7818608E-02  0.1485569E+00
          2   -1    0    0  502    0  0.00000000000E+00  0.00000000000E+00  0.64830840181E+03  0.64830840181E+03  0.00000000000E+00 0. -1.
          1   -1    0    0  501    0 -0.00000000000E+00 -0.00000000000E+00 -0.59528264657E+02  0.59528264657E+02  0.00000000000E+00 0. -1.
         25    2    1    2    0    0 -0.24374283767E+02 -0.59075841007E+02  0.19311190501E+03  0.23874989000E+03  0.12500096567E+03 0.  0.
          2    1    1    2  501    0  0.46643473247E+02  0.36442712698E+02 -0.11822343121E+02  0.60361019725E+02  0.00000000000E+00 0. -1.
          1    1    1    2  502    0 -0.22269189481E+02  0.22633128309E+02  0.40749057527E+03  0.40872575675E+03  0.00000000000E+00 0. -1.
         22    1    3    3    0    0  0.12631541523E+02 -0.82846854827E+02  0.16888834571E+03  0.18853761034E+03  0.00000000000E+00 0.  1.
         22    1    3    3    0    0 -0.37005825289E+02  0.23771013820E+02  0.24223559299E+02  0.50212279658E+02  0.00000000000E+00 0.  1.
</event>
<event>
 7    1  0.9813507E-006  0.1249669E+03  0.7818608E-02  0.1389526E+00
          2   -1    0    0  502    0  0.00000000000E+00  0.00000000000E+00  0.17101268534E+04  0.17101268534E+04  0.00000000000E+00 0. -1.
          1   -1    0    0  501    0 -0.00000000000E+00 -0.00000000000E+00 -0.11723183972E+04  0.11723183972E+04  0.00000000000E+00 0. -1.
         25    2    1    2    0    0 -0.90178766987E+02  0.12663845297E+03 -0.51979189216E+03  0.55675718823E+03  0.12500179081E+03 0.  0.
          2    1    1    2  501    0  0.20041989469E+02 -0.23366952498E+02 -0.63136520253E+03  0.63211527016E+03  0.00000000000E+00 0. -1.
          1    1    1    2  502    0  0.70136777518E+02 -0.10327150048E+03  0.16889655509E+04  0.16935727922E+04  0.00000000000E+00 0. -1.
         22    1    3    3    0    0 -0.80520145451E+02  0.99245517942E+02 -0.21160126729E+03  0.24720085553E+03  0.00000000000E+00 0.  1.
         22    1    3    3    0    0 -0.96586215364E+01  0.27392935033E+02 -0.30819062486E+03  0.30955633270E+03  0.00000000000E+00 0.  1.
</event>
<event>
 7    1  0.6089676E-006  0.9728545E+02  0.7818608E-02  0.1346088E+00
          2   -1    0    0  502    0  0.00000000000E+00  0.00000000000E+00  0.25347850681E+04  0.25347850681E+04  0.00000000000E+00 0. -1.
          1   -1    0    0  501    0 -0.00000000000E+00 -0.00000000000E+00 -0.14870067818E+02  0.14870067818E+02  0.00000000000E+00 0. -1.
         25    2    1    2    0    0 -0.60786606556E+02  0.32013273043E+02  0.13547431173E+04  0.13622305182E+04  0.12499283776E+03 0.  0.
          2    1    1    2  501    0 -0.51442155733E+02  0.23911141929E+02  0.10058684014E+03  0.11548052002E+03  0.00000000000E+00 0. -1.
          1    1    1    2  502    0  0.11222876229E+03 -0.55924414972E+02  0.10645850428E+04  0.10719440977E+04  0.00000000000E+00 0. -1.
         22    1    3    3    0    0 -0.44970819773E+00 -0.22272864139E+02  0.90165835669E+03  0.90193352023E+03  0.00000000000E+00 0. -1.
         22    1    3    3    0    0 -0.60336898358E+02  0.54286137181E+02  0.45308476062E+03  0.46029699793E+03  0.00000000000E+00 0. -1.
</event>
<event>
 7    1  0.6089676E-006  0.5629837E+02  0.7818608E-02  0.1431548E+00
          2   -1    0    0  502    0  0.00000000000E+00  0.00000000000E+00  0.10171155761E+04  0.10171155761E+04  0.00000000000E+00 0. -1.
          1   -1    0    0  501    0 -0.00000000000E+00 -0.00000000000E+00 -0.10279122427E+04  0.10279122427E+04  0.00000000000E+00 0. -1.
         25    2    1    2    0    0  0.36178478360E+02  0.64568766381E+02 -0.30453657358E+02  0.14842851968E+03  0.12500236925E+03 0.  0.
          2    1    1    2  501    0 -0.53226255467E+02 -0.18375066536E+02 -0.93699277667E+03  0.93868319516E+03  0.00000000000E+00 0. -1.
          1    1    1    2  502    0  0.17047777107E+02 -0.46193699845E+02  0.95664976750E+03  0.95791610398E+03  0.00000000000E+00 0. -1.
         22    1    3    3    0    0  0.17857066919E+01  0.63509314816E+02  0.36411991158E+02  0.73228784756E+02  0.00000000000E+00 0. -1.
         22    1    3    3    0    0  0.34392771669E+02  0.10594515650E+01 -0.66865648516E+02  0.75199734920E+02  0.00000000000E+00 0. -1.
</event>
<event>
 7    1  0.6089676E-006  0.5873810E+02  0.7818608E-02  0.1437573E+00
          2   -1    0    0  502    0  0.00000000000E+00  0.00000000000E+00  0.71438297013E+03  0.71438297013E+03  0.00000000000E+00 0. -1.
          1   -1    0    0  501    0 -0.00000000000E+00 -0.00000000000E+00 -0.22674032329E+03  0.22674032329E+03  0.00000000000E+00 0. -1.
         25    2    1    2    0    0  0.40242624602E+01 -0.14972395121E+02 -0.13275331116E+02  0.12665871761E+03  0.12500331606E+03 0.  0.
          2    1    1    2  501    0 -0.70898224748E+01 -0.44539698319E+02 -0.15214478996E+03  0.15868864932E+03  0.00000000000E+00 0. -1.
          1    1    1    2  502    0  0.30655600145E+01  0.59512093440E+02  0.65306276792E+03  0.65577592649E+03  0.00000000000E+00 0. -1.
         22    1    3    3    0    0  0.18410615970E+01  0.54540528630E+02  0.48550617540E+01  0.54787137137E+02  0.00000000000E+00 0.  1.
         22    1    3    3    0    0  0.21832008632E+01 -0.69512923751E+02 -0.18130392870E+02  0.71871580475E+02  0.00000000000E+00 0.  1.
</event>
<event>
 7    1  0.6089676E-006  0.6242294E+02  0.7818608E-02  0.1387986E+00
          2   -1    0    0  502    0  0.00000000000E+00  0.00000000000E+00  0.37128328618E+03  0.37128328618E+03  0.00000000000E+00 0. -1.
          1   -1    0    0  501    0 -0.00000000000E+00 -0.00000000000E+00 -0.37820793580E+03  0.37820793580E+03  0.00000000000E+00 0. -1.
         25    2    1    2    0    0 -0.17765893488E+02 -0.82980242873E+02 -0.11785457548E+03  0.19161399109E+03  0.12499949176E+03 0.  0.
          2    1    1    2  501    0  0.53775264018E+02  0.32021174671E+02 -0.21608297976E+03  0.22496441671E+03  0.00000000000E+00 0. -1.
          1    1    1    2  502    0 -0.36009370529E+02  0.50959068202E+02  0.32701290563E+03  0.33291281418E+03  0.00000000000E+00 0. -1.
         22    1    3    3    0    0  0.53698381627E+02 -0.27692241679E+02 -0.53295804150E+02  0.80565620326E+02  0.00000000000E+00 0.  1.
         22    1    3    3    0    0 -0.71464275115E+02 -0.55288001194E+02 -0.64558771335E+02  0.11104837077E+03  0.00000000000E+00 0.  1.
</event>
<event>
 7    1  0.6089676E-006  0.3898218E+02  0.7818608E-02  0.1558407E+00
          2   -1    0    0  502    0  0.00000000000E+00  0.00000000000E+00  0.72684519442E+03  0.72684519442E+03  0.00000000000E+00 0. -1.
          1   -1    0    0  501    0 -0.00000000000E+00 -0.00000000000E+00 -0.86911825068E+03  0.86911825068E+03  0.00000000000E+00 0. -1.
         25    2    1    2    0    0 -0.38063501069E+02  0.51637934579E+02 -0.40340173720E+03  0.42716849087E+03  0.12499860643E+03 0.  0.
          2    1    1    2  501    0  0.25569736614E+02 -0.14741996816E+02 -0.45282175062E+03  0.45378263049E+03  0.00000000000E+00 0. -1.
          1    1    1    2  502    0  0.12493764455E+02 -0.36895937762E+02  0.71395043156E+03  0.71501232374E+03  0.00000000000E+00 0. -1.
         22    1    3    3    0    0  0.18697173297E+02 -0.29621374384E+02 -0.57354782293E+02  0.67205514368E+02  0.00000000000E+00 0. -1.
         22    1    3    3    0    0 -0.56760674366E+02  0.81259308962E+02 -0.34604695491E+03  0.35996297650E+03  0.00000000000E+00 0. -1.
</event>
<event>
 7    1  0.6089676E-006  0.1714809E+03  0.7818608E-02  0.1177830E+00
          2   -1    0    0  502    0  0.00000000000E+00  0.00000000000E+00  0.16127097828E+04  0.16127097828E+04  0.00000000000E+00 0. -1.
          1   -1    0    0  501    0 -0.00000000000E+00 -0.00000000000E+00 -0.13969473406E+03  0.13969473406E+03  0.00000000000E+00 0. -1.
         25    2    1    2    0    0 -0.92188890466E+02  0.47621959031E+02  0.25083947335E+03  0.29885007689E+03  0.12499713819E+03 0.  0.
          2    1    1    2  501    0  0.22323425573E+02 -0.20422500085E+03 -0.13644310767E+02  0.20589403468E+03  0.00000000000E+00 0. -1.
          1    1    1    2  502    0  0.69865464893E+02  0.15660304182E+03  0.12358198861E+04  0.12476604052E+04  0.00000000000E+00 0. -1.
         22    1    3    3    0    0 -0.54253510354E+02  0.26188285590E+02  0.19319063505E+02  0.63265281968E+02  0.00000000000E+00 0. -1.
         22    1    3    3    0    0 -0.37935380113E+02  0.21433673441E+02  0.23152040984E+03  0.23558479492E+03  0.00000000000E+00 0. -1.
</event>
<event>
 7    1  0.6089676E-006  0.1711428E+03  0.7818608E-02  0.1208353E+00
          2   -1    0    0  502    0  0.00000000000E+00  0.00000000000E+00  0.15082775566E+03  0.15082775566E+03  0.00000000000E+00 0. -1.
          1   -1    0    0  501    0 -0.00000000000E+00 -0.00000000000E+00 -0.87219478234E+03  0.87219478234E+03  0.00000000000E+00 0. -1.
         25    2    1    2    0    0 -0.38519255785E+02 -0.20388023712E+03 -0.32920596680E+03  0.40872029277E+03  0.12499929995E+03 0.  0.
          2    1    1    2  501    0  0.11019456478E+03  0.49408565962E+02 -0.42417281403E+03  0.44102905194E+03  0.00000000000E+00 0. -1.
          1    1    1    2  502    0 -0.71675308996E+02  0.15447167115E+03  0.32011754150E+02  0.17327319329E+03  0.00000000000E+00 0. -1.
         22    1    3    3    0    0 -0.57784977687E+02 -0.46964116513E+02 -0.16370153094E+03  0.17984138322E+03  0.00000000000E+00 0.  1.
         22    1    3    3    0    0  0.19265721902E+02 -0.15691612060E+03 -0.16550443587E+03  0.22887890955E+03  0.00000000000E+00 0.  1.
</event>
<event>
 7    1  0.6089676E-006  0.7138971E+02  0.7818608E-02  0.1381247E+00
          2   -1    0    0  502    0  0.00000000000E+00  0.00000000000E+00  0.93232936444E+03  0.93232936444E+03  0.00000000000E+00 0. -1.
          1   -1    0    0  501    0 -0.00000000000E+00 -0.00000000000E+00 -0.19918018050E+03  0.19918018050E+03  0.00000000000E+00 0. -1.
         25    2    1    2    0    0 -0.80470046994E+02 -0.27233914696E+02  0.59292347201E+02  0.16235038200E+03  0.12499979811E+03 0.  0.
          2    1    1    2  501    0  0.66012854850E+02 -0.28544335741E+02 -0.13781085570E+03  0.15544873128E+03  0.00000000000E+00 0. -1.
          1    1    1    2  502    0  0.14457192144E+02  0.55778250437E+02  0.81166769244E+03  0.81371043165E+03  0.00000000000E+00 0. -1.
         22    1    3    3    0    0 -0.33613755651E+01 -0.42109776156E+02 -0.23415622556E+02  0.48299311313E+02  0.00000000000E+00 0.  1.
         22    1    3    3    0    0 -0.77108671429E+02  0.14875861460E+02  0.82707969757E+02  0.11405107069E+03  0.00000000000E+00 0.  1.
</event>
<event>
 7    1  0.6089676E-006  0.7026616E+02  0.7818608E-02  0.1413026E+00
          2   -1    0    0  502    0  0.00000000000E+00  0.00000000000E+00  0.91456497642E+03  0.91456497642E+03  0.00000000000E+00 0. -1.
          1   -1    0    0  501    0 -0.00000000000E+00 -0.00000000000E+00 -0.12284236744E+04  0.12284236744E+04  0.00000000000E+00 0. -1.
         25    2    1    2    0    0 -0.24377614073E+02  0.11213527059E+03  0.73777085025E+03  0.75703352630E+03  0.12500138189E+03 0.  0.
          2    1    1    2  501    0  0.78846345912E+01 -0.69762477394E+02 -0.12146678461E+04  0.12166950921E+04  0.00000000000E+00 0. -1.
          1    1    1    2  502    0  0.16492979482E+02 -0.42372793193E+02  0.16303829793E+03  0.16926003240E+03  0.00000000000E+00 0. -1.
         22    1    3    3    0    0  0.27512500189E+02  0.15352840802E+02  0.41233763551E+02  0.51892876620E+02  0.00000000000E+00 0.  1.
         22    1    3    3    0    0 -0.51890114261E+02  0.96782429785E+02  0.69653708670E+03  0.70514064968E+03  0.00000000000E+00 0.  1.
</event>
<event>
 7    1  0.6089676E-006  0.7753791E+02  0.7818608E-02  0.1419397E+00
          2   -1    0    0  502    0  0.00000000000E+00  0.00000000000E+00  0.46144839156E+03  0.46144839156E+03  0.00000000000E+00 0. -1.
          1   -1    0    0  501    0 -0.00000000000E+00 -0.00000000000E+00 -0.63795773375E+02  0.63795773375E+02  0.00000000000E+00 0. -1.
         25    2    1    2    0    0  0.27453549644E+02  0.41532459852E+02  0.12920149506E+03  0.18653904168E+03  0.12500058054E+03 0.  0.
          2    1    1    2  501    0 -0.42032651825E+01  0.38998529383E+02 -0.15849560721E+02  0.42305570641E+02  0.00000000000E+00 0. -1.
          1    1    1    2  502    0 -0.23250284461E+02 -0.80530989234E+02  0.28430068384E+03  0.29639955261E+03  0.00000000000E+00 0. -1.
         22    1    3    3    0    0  0.57772686682E+02  0.34619628744E+02  0.16111718631E+02  0.69251638956E+02  0.00000000000E+00 0.  1.
         22    1    3    3    0    0 -0.30319137038E+02  0.69128311081E+01  0.11308977643E+03  0.11728740273E+03  0.00000000000E+00 0.  1.
</event>
<event>
 7    1  0.6089676E-006  0.6616627E+02  0.7818608E-02  0.1392705E+00
          2   -1    0    0  502    0  0.00000000000E+00  0.00000000000E+00  0.12432738286E+04  0.12432738286E+04  0.00000000000E+00 0. -1.
          1   -1    0    0  501    0 -0.00000000000E+00 -0.00000000000E+00 -0.45782143423E+02  0.45782143423E+02  0.00000000000E+00 0. -1.
         25    2    1    2    0    0  0.25463594038E+02 -0.33432149763E+01  0.58802683243E+03  0.60171485414E+03  0.12500255326E+03 0.  0.
          2    1    1    2  501    0  0.54415515886E+02 -0.15855638631E+02 -0.14085168352E+02  0.58402411021E+02  0.00000000000E+00 0. -1.
          1    1    1    2  502    0 -0.79879109924E+02  0.19198853607E+02  0.62355002107E+03  0.62893870684E+03  0.00000000000E+00 0. -1.
         22    1    3    3    0    0  0.36156127005E+02  0.18927139889E+02  0.56918288838E+03  0.57064407696E+03  0.00000000000E+00 0.  1.
         22    1    3    3    0    0 -0.10692532967E+02 -0.22270354865E+02  0.18843944057E+02  0.31070777182E+02  0.00000000000E+00 0.  1.
</event>
<event>
 7    1  0.6255877E-006  0.7725253E+02  0.7818608E-02  0.1443481E+00
          2   -1    0    0  502    0  0.00000000000E+00  0.00000000000E+00  0.21946858223E+04  0.21946858223E+04  0.00000000000E+00 0. -1.
          1   -1    0    0  501    0 -0.00000000000E+00 -0.00000000000E+00 -0.10815117563E+04  0.10815117563E+04  0.00000000000E+00 0. -1.
         25    2    1    2    0    0  0.11975783978E+02 -0.45344568729E+02 -0.68655233841E+02  0.15012838750E+03  0.12500176912E+03 0.  0.
          2    1    1    2  501    0 -0.85851493662E+01  0.77980489075E+02 -0.97041189984E+03  0.97357789458E+03  0.00000000000E+00 0. -1.
          1    1    1    2  502    0 -0.33906346120E+01 -0.32635920346E+02  0.21522411997E+04  0.21524912965E+04  0.00000000000E+00 0. -1.
         22    1    3    3    0    0 -0.15124491688E+02  0.10346189366E+02  0.29109281321E+02  0.34396862390E+02  0.00000000000E+00 0. -1.
         22    1    3    3    0    0  0.27100275666E+02 -0.55690758096E+02 -0.97764515162E+02  0.11573152511E+03  0.00000000000E+00 0. -1.
</event>
<event>
 7    1  0.6089676E-006  0.1153251E+03  0.7818608E-02  0.1293062E+00
          2   -1    0    0  502    0  0.00000000000E+00  0.00000000000E+00  0.24098392257E+04  0.24098392257E+04  0.00000000000E+00 0. -1.
          1   -1    0    0  501    0 -0.00000000000E+00 -0.00000000000E+00 -0.97646583709E+02  0.97646583709E+02  0.00000000000E+00 0. -1.
         25    2    1    2    0    0  0.63668531648E+02  0.17038350783E+03  0.31604882633E+03  0.38547300702E+03  0.12497342461E+03 0.  0.
          2    1    1    2  501    0 -0.25375313949E+02 -0.10370560221E+03 -0.16385615280E+02  0.10801503078E+03  0.00000000000E+00 0. -1.
          1    1    1    2  502    0 -0.38293217699E+02 -0.66677905620E+02  0.20125294310E+04  0.20139977716E+04  0.00000000000E+00 0. -1.
         22    1    3    3    0    0 -0.28792274364E+02  0.78734145635E+02  0.79870117503E+02  0.11578988048E+03  0.00000000000E+00 0.  1.
         22    1    3    3    0    0  0.92460806012E+02  0.91649362191E+02  0.23617870882E+03  0.26968312654E+03  0.00000000000E+00 0.  1.
</event>
<event>
 7    1  0.6089676E-006  0.6536936E+02  0.7818608E-02  0.1407474E+00
          2   -1    0    0  502    0  0.00000000000E+00  0.00000000000E+00  0.23147466906E+03  0.23147466906E+03  0.00000000000E+00 0. -1.
          1   -1    0    0  501    0 -0.00000000000E+00 -0.00000000000E+00 -0.13595936575E+03  0.13595936575E+03  0.00000000000E+00 0. -1.
         25    2    1    2    0    0  0.17215930121E+02  0.71498432663E+02 -0.16843896519E+02  0.14600116755E+03  0.12499683978E+03 0.  0.
          2    1    1    2  501    0 -0.49212185899E+02 -0.13532361449E+02 -0.33635959787E+02  0.61125623417E+02  0.00000000000E+00 0. -1.
          1    1    1    2  502    0  0.31996255778E+02 -0.57966071214E+02  0.14599515962E+03  0.16030724384E+03  0.00000000000E+00 0. -1.
         22    1    3    3    0    0  0.65696149998E+02  0.52542457090E+02 -0.34658221261E+02  0.90982889724E+02  0.00000000000E+00 0.  1.
         22    1    3    3    0    0 -0.48480219877E+02  0.18955975573E+02  0.17814324742E+02  0.55018277829E+02  0.00000000000E+00 0.  1.
</event>
<event>
 7    1  0.6089676E-006  0.2118571E+03  0.7818608E-02  0.1325564E+00
          2   -1    0    0  502    0  0.00000000000E+00  0.00000000000E+00  0.16403835333E+04  0.16403835333E+04  0.00000000000E+00 0. -1.
          1   -1    0    0  501    0 -0.00000000000E+00 -0.00000000000E+00 -0.63089144120E+03  0.63089144120E+03  0.00000000000E+00 0. -1.
         25    2    1    2    0    0  0.47129275949E+02 -0.17695984998E+03 -0.15173357015E+03  0.26866987121E+03  0.12499786490E+03 0.  0.
          2    1    1    2  501    0 -0.21633995750E+01 -0.31078828276E+02 -0.41294093692E+03  0.41411446636E+03  0.00000000000E+00 0. -1.
          1    1    1    2  502    0 -0.44965876374E+02  0.20803867825E+03  0.15741665991E+04  0.15884906369E+04  0.00000000000E+00 0. -1.
         22    1    3    3    0    0  0.34990913962E+02  0.67104381378E-01 -0.58648116352E+02  0.68293265514E+02  0.00000000000E+00 0. -1.
         22    1    3    3    0    0  0.12138361986E+02 -0.17702695436E+03 -0.93085453799E+02  0.20037660569E+03  0.00000000000E+00 0. -1.
</event>
<event>
 7    1  0.6089676E-006  0.5620551E+02  0.7818608E-02  0.1424878E+00
          2   -1    0    0  502    0  0.00000000000E+00  0.00000000000E+00  0.87877858092E+03  0.87877858092E+03  0.00000000000E+00 0. -1.
          1   -1    0    0  501    0 -0.00000000000E+00 -0.00000000000E+00 -0.18075998893E+03  0.18075998893E+03  0.00000000000E+00 0. -1.
         25    2    1    2    0    0  0.34193340419E+02  0.64089874569E+02  0.43064967748E+02  0.15085162223E+03  0.12499969573E+03 0.  0.
          2    1    1    2  501    0  0.16685124273E+02 -0.53920048830E+02 -0.11967779803E+03  0.13231984122E+03  0.00000000000E+00 0. -1.
          1    1    1    2  502    0 -0.50878464692E+02 -0.10169825740E+02  0.77463142227E+03  0.77636710640E+03  0.00000000000E+00 0. -1.
         22    1    3    3    0    0  0.95033755201E+01 -0.21382981896E+01 -0.40355154470E+02  0.41514153704E+02  0.00000000000E+00 0.  1.
         22    1    3    3    0    0  0.24689964899E+02  0.66228172759E+02  0.83420122218E+02  0.10933746853E+03  0.00000000000E+00 0.  1.
</event>
<event>
 7    1  0.6493181E-006  0.9802399E+02  0.7818608E-02  0.1307620E+00
          2   -1    0    0  502    0  0.00000000000E+00  0.00000000000E+00  0.22346843346E+04  0.22346843346E+04  0.00000000000E+00 0. -1.
          1   -1    0    0  501    0 -0.00000000000E+00 -0.00000000000E+00 -0.11978740866E+04  0.11978740866E+04  0.00000000000E+00 0. -1.
         25    2    1    2    0    0 -0.70750472642E+02 -0.15503286973E+03 -0.18848858647E+03  0.28318595626E+03  0.12500207405E+03 0.  0.
          2    1    1    2  501    0  0.10042944315E+02  0.78468110409E+02 -0.95931665738E+03  0.96257288254E+03  0.00000000000E+00 0. -1.
          1    1    1    2  502    0  0.60707528327E+02  0.76564759323E+02  0.21846154919E+04  0.21867995824E+04  0.00000000000E+00 0. -1.
         22    1    3    3    0    0 -0.18829304930E+02 -0.80798456269E+02 -0.17219978152E+03  0.19114313489E+03  0.00000000000E+00 0.  1.
         22    1    3    3    0    0 -0.51921167713E+02 -0.74234413463E+02 -0.16288804948E+02  0.92042821369E+02  0.00000000000E+00 0.  1.
</event>
<event>
 7    1  0.6089676E-006  0.4161049E+02  0.7818608E-02  0.1497802E+00
          2   -1    0    0  502    0  0.00000000000E+00  0.00000000000E+00  0.15191337277E+04  0.15191337277E+04  0.00000000000E+00 0. -1.
          1   -1    0    0  501    0 -0.00000000000E+00 -0.00000000000E+00 -0.13868497241E+02  0.13868497241E+02  0.00000000000E+00 0. -1.
         25    2    1    2    0    0 -0.13434930149E+01  0.21160500750E+02  0.39008456534E+03  0.41017137708E+03  0.12500007476E+03 0.  0.
          2    1    1    2  501    0  0.38774858716E+02 -0.39335374030E+02  0.22507587231E+03  0.23175398511E+03  0.00000000000E+00 0. -1.
          1    1    1    2  502    0 -0.37431365701E+02  0.18174873280E+02  0.89010479278E+03  0.89107686273E+03  0.00000000000E+00 0. -1.
         22    1    3    3    0    0  0.49307729667E+02  0.19425458397E+02  0.79928592859E+02  0.95901932177E+02  0.00000000000E+00 0. -1.
         22    1    3    3    0    0 -0.50651222682E+02  0.17350423538E+01  0.31015597248E+03  0.31426944490E+03  0.00000000000E+00 0. -1.
</event>
<event>
 7    1  0.6089676E-006  0.4633480E+02  0.7818608E-02  0.1495219E+00
          2   -1    0    0  502    0  0.00000000000E+00  0.00000000000E+00  0.85793160679E+03  0.85793160679E+03  0.00000000000E+00 0. -1.
          1   -1    0    0  501    0 -0.00000000000E+00 -0.00000000000E+00 -0.93526356165E+02  0.93526356165E+02  0.00000000000E+00 0. -1.
         25    2    1    2    0    0  0.53336747319E+02  0.21985578655E+01  0.11424156329E+03  0.17755303997E+03  0.12499721976E+03 0.  0.
          2    1    1    2  501    0 -0.32461355533E+02 -0.33648970265E+02 -0.52458139566E+02  0.70269831433E+02  0.00000000000E+00 0. -1.
          1    1    1    2  502    0 -0.20875391786E+02  0.31450412399E+02  0.70262182691E+03  0.70363509156E+03  0.00000000000E+00 0. -1.
         22    1    3    3    0    0 -0.39203862944E+02 -0.14549111227E+02  0.32776213355E+02  0.53130967139E+02  0.00000000000E+00 0.  1.
         22    1    3    3    0    0  0.92540610262E+02  0.16747669093E+02  0.81465349932E+02  0.12442207283E+03  0.00000000000E+00 0.  1.
</event>
<event>
 7    1  0.6089676E-006  0.9144988E+02  0.7818608E-02  0.1332059E+00
          2   -1    0    0  502    0  0.00000000000E+00  0.00000000000E+00  0.83194524577E+03  0.83194524577E+03  0.00000000000E+00 0. -1.
          1   -1    0    0  501    0 -0.00000000000E+00 -0.00000000000E+00 -0.50002113196E+03  0.50002113196E+03  0.00000000000E+00 0. -1.
         25    2    1    2    0    0 -0.76652504923E+02 -0.16765491543E+02 -0.21884124780E+03  0.26395302680E+03  0.12499208135E+03 0.  0.
          2    1    1    2  501    0  0.62578741620E+02  0.83454636422E+02 -0.24659270243E+03  0.26774752312E+03  0.00000000000E+00 0. -1.
          1    1    1    2  502    0  0.14073763304E+02 -0.66689144880E+02  0.79735806404E+03  0.80026582780E+03  0.00000000000E+00 0. -1.
         22    1    3    3    0    0 -0.49153684626E+02  0.27575997987E+02 -0.22313260589E+02  0.60616845641E+02  0.00000000000E+00 0. -1.
         22    1    3    3    0    0 -0.27498820298E+02 -0.44341489530E+02 -0.19652798721E+03  0.20333618116E+03  0.00000000000E+00 0. -1.
</event>
<event>
 7    1  0.6089676E-006  0.1063836E+03  0.7818608E-02  0.1353409E+00
          2   -1    0    0  502    0  0.00000000000E+00  0.00000000000E+00  0.12226829466E+04  0.12226829466E+04  0.00000000000E+00 0. -1.
          1   -1    0    0  501    0 -0.00000000000E+00 -0.00000000000E+00 -0.11663099321E+03  0.11663099321E+03  0.00000000000E+00 0. -1.
         25    2    1    2    0    0  0.98634754087E+01 -0.11059819870E+03  0.31918492909E+02  0.17021381499E+03  0.12499881168E+03 0.  0.
          2    1    1    2  501    0  0.37880333298E+02  0.10082199102E+03  0.14880156940E+02  0.10872631970E+03  0.00000000000E+00 0. -1.
          1    1    1    2  502    0 -0.47743808707E+02  0.97762076789E+01  0.10592533036E+04  0.10603738051E+04  0.00000000000E+00 0. -1.
         22    1    3    3    0    0  0.20268089150E+02 -0.11234747771E+03  0.67825052020E+02  0.13278926487E+03  0.00000000000E+00 0. -1.
         22    1    3    3    0    0 -0.10404613741E+02  0.17492790035E+01 -0.35906559111E+02  0.37424550115E+02  0.00000000000E+00 0. -1.
</event>
<event>
 7    1  0.6089676E-006  0.1379707E+03  0.7818608E-02  0.1403819E+00
          2   -1    0    0  502    0  0.00000000000E+00  0.00000000000E+00  0.52992761333E+03  0.52992761333E+03  0.00000000000E+00 0. -1.
          1   -1    0    0  501    0 -0.00000000000E+00 -0.00000000000E+00 -0.20335724180E+03  0.20335724180E+03  0.00000000000E+00 0. -1.
         25    2    1    2    0    0  0.13384133015E+03 -0.85284101521E+02  0.14133926836E+03  0.24655347825E+03  0.12499979692E+03 0.  0.
          2    1    1    2  501    0 -0.11016587967E+03  0.77617627975E+02 -0.12002452730E+03  0.18046302771E+03  0.00000000000E+00 0. -1.
          1    1    1    2  502    0 -0.23675450479E+02  0.76664735462E+01  0.30525563047E+03  0.30626834918E+03  0.00000000000E+00 0. -1.
         22    1    3    3    0    0  0.21352046405E+02 -0.13766527736E+02 -0.23468452362E+02  0.34586058287E+02  0.00000000000E+00 0. -1.
         22    1    3    3    0    0  0.11248928374E+03 -0.71517573785E+02  0.16480772072E+03  0.21196741996E+03  0.00000000000E+00 0. -1.
</event>
<event>
 7    1  0.6089676E-006  0.1102927E+03  0.7818608E-02  0.1341896E+00
          2   -1    0    0  502    0  0.00000000000E+00  0.00000000000E+00  0.33673795213E+04  0.33673795213E+04  0.00000000000E+00 0. -1.
          1   -1    0    0  501    0 -0.00000000000E+00 -0.00000000000E+00 -0.31458041407E+02  0.31458041407E+02  0.00000000000E+00 0. -1.
         25    2    1    2    0    0  0.20701654331E+02 -0.71754968480E+02  0.10177913169E+04  0.10281544387E+04  0.12500020411E+03 0.  0.
          2    1    1    2  501    0  0.79613376555E+01  0.11499440497E+03  0.10192071358E+03  0.15386659133E+03  0.00000000000E+00 0. -1.
          1    1    1    2  502    0 -0.28662991987E+02 -0.43239436488E+02  0.22162094494E+04  0.22168165327E+04  0.00000000000E+00 0. -1.
         22    1    3    3    0    0  0.26905374049E+02 -0.39304146020E+02  0.96297001758E+03  0.96414727600E+03  0.00000000000E+00 0. -1.
         22    1    3    3    0    0 -0.62037197183E+01 -0.32450822460E+02  0.54821299354E+02  0.64007162721E+02  0.00000000000E+00 0. -1.
</event>
<event>
 7    1  0.6089676E-006  0.3681411E+02  0.7818608E-02  0.1589671E+00
          2   -1    0    0  502    0  0.00000000000E+00  0.00000000000E+00  0.19427687198E+04  0.19427687198E+04  0.00000000000E+00 0. -1.
          1   -1    0    0  501    0 -0.00000000000E+00 -0.00000000000E+00 -0.49338626680E+03  0.49338626680E+03  0.00000000000E+00 0. -1.
         25    2    1    2    0    0  0.15815415869E+02  0.72527271317E+01  0.14248044987E+04  0.14303828636E+04  0.12499819012E+03 0.  0.
          2    1    1    2  501    0  0.24125818988E+02  0.89358647354E+01 -0.48935724508E+03  0.49003307861E+03  0.00000000000E+00 0. -1.
          1    1    1    2  502    0 -0.39941234857E+02 -0.16188591867E+02  0.51393519942E+03  0.51573904443E+03  0.00000000000E+00 0. -1.
         22    1    3    3    0    0  0.46129824806E+02  0.48784764194E+02  0.55256881915E+03  0.55663292559E+03  0.00000000000E+00 0. -1.
         22    1    3    3    0    0 -0.30314408937E+02 -0.41532037062E+02  0.87223567951E+03  0.87374993797E+03  0.00000000000E+00 0. -1.
</event>
<event>
 7    1  0.6089676E-006  0.8818260E+02  0.7818608E-02  0.1394969E+00
          2   -1    0    0  502    0  0.00000000000E+00  0.00000000000E+00  0.35945612442E+03  0.35945612442E+03  0.00000000000E+00 0. -1.
          1   -1    0    0  501    0 -0.00000000000E+00 -0.00000000000E+00 -0.57110649756E+03  0.57110649756E+03  0.00000000000E+00 0. -1.
         25    2    1    2    0    0 -0.10338208901E+03  0.70693785479E+02 -0.17313978460E+03  0.24756190539E+03  0.12499617738E+03 0.  0.
          2    1    1    2  501    0  0.40465616474E+02 -0.10337766378E+02 -0.35360693578E+03  0.35606488252E+03  0.00000000000E+00 0. -1.
          1    1    1    2  502    0  0.62916472532E+02 -0.60356019102E+02  0.31509634723E+03  0.32693583407E+03  0.00000000000E+00 0. -1.
         22    1    3    3    0    0  0.19040768154E+02 -0.78753390308E+01 -0.59507217351E+02  0.62973651106E+02  0.00000000000E+00 0. -1.
         22    1    3    3    0    0 -0.12242285716E+03  0.78569124510E+02 -0.11363256725E+03  0.18458825429E+03  0.00000000000E+00 0. -1.
</event>
<event>
 7    1  0.6089676E-006  0.6990582E+02  0.7818608E-02  0.1367008E+00
          2   -1    0    0  502    0  0.00000000000E+00  0.00000000000E+00  0.50144829102E+03  0.50144829102E+03  0.00000000000E+00 0. -1.
          1   -1    0    0  501    0 -0.00000000000E+00 -0.00000000000E+00 -0.23380414013E+03  0.23380414013E+03  0.00000000000E+00 0. -1.
         25    2    1    2    0    0  0.16312694192E+01 -0.13045815350E+02  0.98282764021E+02  0.15955399552E+03  0.12500048577E+03 0.  0.
          2    1    1    2  501    0  0.52964624281E+02  0.50410911026E+02 -0.19350045305E+03  0.20685486871E+03  0.00000000000E+00 0. -1.
          1    1    1    2  502    0 -0.54595893700E+02 -0.37365095677E+02  0.36286183992E+03  0.36884356692E+03  0.00000000000E+00 0. -1.
         22    1    3    3    0    0  0.29975385571E+02  0.48799931570E+02  0.38709987930E+02  0.69126118268E+02  0.00000000000E+00 0. -1.
         22    1    3    3    0    0 -0.28344116152E+02 -0.61845746919E+02  0.59572776091E+02  0.90427877248E+02  0.00000000000E+00 0. -1.
</event>
<event>
 7    1  0.6089676E-006  0.6161936E+02  0.7818608E-02  0.1420591E+00
          2   -1    0    0  502    0  0.00000000000E+00  0.00000000000E+00  0.14641662316E+04  0.14641662316E+04  0.00000000000E+00 0. -1.
          1   -1    0    0  501    0 -0.00000000000E+00 -0.00000000000E+00 -0.13341409428E+03  0.13341409428E+03  0.00000000000E+00 0. -1.
         25    2    1    2    0    0  0.52289115373E+02  0.44432680217E+02 -0.53465709848E+02  0.15228934075E+03  0.12500018607E+03 0.  0.
          2    1    1    2  501    0 -0.64305784305E+02  0.29745694728E+01  0.43120629380E+01  0.64518802263E+02  0.00000000000E+00 0. -1.
          1    1    1    2  502    0  0.12016668932E+02 -0.47407249690E+02  0.13799057842E+04  0.13807721829E+04  0.00000000000E+00 0. -1.
         22    1    3    3    0    0 -0.10966409190E+02 -0.35614896582E+02 -0.34944504119E+00  0.37266675474E+02  0.00000000000E+00 0.  1.
         22    1    3    3    0    0  0.63255524563E+02  0.80047576799E+02 -0.53116264807E+02  0.11502266527E+03  0.00000000000E+00 0.  1.
</event>
<event>
 7    1  0.6089676E-006  0.7970492E+02  0.7818608E-02  0.1450801E+00
          2   -1    0    0  502    0  0.00000000000E+00  0.00000000000E+00  0.77127945486E+03  0.77127945486E+03  0.00000000000E+00 0. -1.
          1   -1    0    0  501    0 -0.00000000000E+00 -0.00000000000E+00 -0.12130958819E+03  0.12130958819E+03  0.00000000000E+00 0. -1.
         25    2    1    2    0    0 -0.50163598566E+02 -0.54372043652E+02  0.28193620467E+03  0.31715119853E+03  0.12499661384E+03 0.  0.
          2    1    1    2  501    0  0.28314539948E+02  0.75113094680E+02 -0.87595646647E+02  0.11881366704E+03  0.00000000000E+00 0. -1.
          1    1    1    2  502    0  0.21849058618E+02 -0.20741051028E+02  0.45562930865E+03  0.45662417748E+03  0.00000000000E+00 0. -1.
         22    1    3    3    0    0 -0.69664591137E+02 -0.55994112407E+02  0.28375495593E+03  0.29749852252E+03  0.00000000000E+00 0. -1.
         22    1    3    3    0    0  0.19500992571E+02  0.16220687549E+01 -0.18187512628E+01  0.19652676012E+02  0.00000000000E+00 0. -1.
</event>
<event>
 7    1  0.6089676E-006  0.5361677E+02  0.7818608E-02  0.1484710E+00
          2   -1    0    0  502    0  0.00000000000E+00  0.00000000000E+00  0.13962780210E+04  0.13962780210E+04  0.00000000000E+00 0. -1.
          1   -1    0    0  501    0 -0.00000000000E+00 -0.00000000000E+00 -0.18110062813E+02  0.18110062813E+02  0.00000000000E+00 0. -1.
         25    2    1    2    0    0  0.37164547031E+02 -0.37936261590E+02  0.32012968998E+03  0.34774750832E+03  0.12499979054E+03 0.  0.
          2    1    1    2  501    0 -0.81429543209E+01  0.57676954809E+02  0.21148741096E+03  0.21936240292E+03  0.00000000000E+00 0. -1.
          1    1    1    2  502    0 -0.29021592710E+02 -0.19740693219E+02  0.84655085722E+03  0.84727817255E+03  0.00000000000E+00 0. -1.
         22    1    3    3    0    0  0.15225149904E+02  0.37513884757E+02  0.20100954102E+03  0.20504617119E+03  0.00000000000E+00 0.  1.
         22    1    3    3    0    0  0.21939397127E+02 -0.75450146346E+02  0.11912014897E+03  0.14270133713E+03  0.00000000000E+00 0.  1.
</event>
<event>
 7    1  0.6089676E-006  0.6538559E+02  0.7818608E-02  0.1495033E+00
          2   -1    0    0  502    0  0.00000000000E+00  0.00000000000E+00  0.19814945788E+04  0.19814945788E+04  0.00000000000E+00 0. -1.
          1   -1    0    0  501    0 -0.00000000000E+00 -0.00000000000E+00 -0.48812569346E+03  0.48812569346E+03  0.00000000000E+00 0. -1.
         25    2    1    2    0    0  0.10483302715E+02 -0.65433529154E+02 -0.44145210460E+02  0.14820170818E+03  0.12499400116E+03 0.  0.
          2    1    1    2  501    0  0.24722689806E+02  0.10304081036E+02 -0.39093949079E+03  0.39185593136E+03  0.00000000000E+00 0. -1.
          1    1    1    2  502    0 -0.35205992520E+02  0.55129448119E+02  0.19284535866E+04  0.19295626328E+04  0.00000000000E+00 0. -1.
         22    1    3    3    0    0 -0.16093683716E+02 -0.89190652019E+02 -0.60513031962E+02  0.10897617217E+03  0.00000000000E+00 0. -1.
         22    1    3    3    0    0  0.26576986431E+02  0.23757122865E+02  0.16367821502E+02  0.39225536010E+02  0.00000000000E+00 0. -1.
</event>
<event>
 7    1  0.6089676E-006  0.1431914E+03  0.7818608E-02  0.1260812E+00
          2   -1    0    0  502    0  0.00000000000E+00  0.00000000000E+00  0.64819612445E+03  0.64819612445E+03  0.00000000000E+00 0. -1.
          1   -1    0    0  501    0 -0.00000000000E+00 -0.00000000000E+00 -0.15774294737E+03  0.15774294737E+03  0.00000000000E+00 0. -1.
         25    2    1    2    0    0 -0.13042363321E+03 -0.14964401523E+03  0.18557754472E+03  0.29911130553E+03  0.12499957038E+03 0.  0.
          2    1    1    2  501    0  0.11652865095E+03  0.66495525442E+02 -0.49163549369E+02  0.14289029352E+03  0.00000000000E+00 0. -1.
          1    1    1    2  502    0  0.13894982258E+02  0.83148489789E+02  0.35403918173E+03  0.36393747277E+03  0.00000000000E+00 0. -1.
         22    1    3    3    0    0 -0.10571275029E+03 -0.38470303355E+02  0.53062360587E+02  0.12438152566E+03  0.00000000000E+00 0. -1.
         22    1    3    3    0    0 -0.24710882917E+02 -0.11117371188E+03  0.13251518413E+03  0.17472977986E+03  0.00000000000E+00 0. -1.
</event>
<event>
 7    1  0.6089676E-006  0.2908189E+03  0.7818608E-02  0.1337078E+00
          2   -1    0    0  502    0  0.00000000000E+00  0.00000000000E+00  0.14736051885E+04  0.14736051885E+04  0.00000000000E+00 0. -1.
          1   -1    0    0  501    0 -0.00000000000E+00 -0.00000000000E+00 -0.13914489805E+04  0.13914489805E+04  0.00000000000E+00 0. -1.
         25    2    1    2    0    0 -0.44378426009E+02  0.28440086483E+03 -0.36991867502E+03  0.48509768633E+03  0.12500657000E+03 0.  0.
          2    1    1    2  501    0 -0.20498595577E+02 -0.77953361714E+00 -0.94888365729E+03  0.94910536568E+03  0.00000000000E+00 0. -1.
          1    1    1    2  502    0  0.64877021586E+02 -0.28362133121E+03  0.14009585403E+04  0.14308511170E+04  0.00000000000E+00 0. -1.
         22    1    3    3    0    0 -0.54537892418E+02  0.18677639026E+03 -0.32115476700E+03  0.37549991483E+03  0.00000000000E+00 0. -1.
         22    1    3    3    0    0  0.10159466409E+02  0.97624474574E+02 -0.48763908023E+02  0.10959777151E+03  0.00000000000E+00 0. -1.
</event>
<event>
 7    1  0.6089676E-006  0.8365209E+02  0.7818608E-02  0.1378705E+00
          2   -1    0    0  502    0  0.00000000000E+00  0.00000000000E+00  0.10962439025E+04  0.10962439025E+04  0.00000000000E+00 0. -1.
          1   -1    0    0  501    0 -0.00000000000E+00 -0.00000000000E+00 -0.52996756635E+03  0.52996756635E+03  0.00000000000E+00 0. -1.
         25    2    1    2    0    0  0.52638747422E+02  0.10424306873E+01  0.27575477448E+03  0.30730641936E+03  0.12499846136E+03 0.  0.
          2    1    1    2  501    0  0.24941078508E+02  0.43571232606E+02 -0.51046833496E+03  0.51293121440E+03  0.00000000000E+00 0. -1.
          1    1    1    2  502    0 -0.77579825930E+02 -0.44613663293E+02  0.80098989667E+03  0.80597383513E+03  0.00000000000E+00 0. -1.
         22    1    3    3    0    0  0.17291075071E+02  0.51275322476E+02  0.51174644023E+02  0.74478078406E+02  0.00000000000E+00 0.  1.
         22    1    3    3    0    0  0.35347672351E+02 -0.50232891788E+02  0.22458013045E+03  0.23282834096E+03  0.00000000000E+00 0.  1.
</event>
<event>
 7    1  0.6089676E-006  0.1580406E+03  0.7818608E-02  0.1247468E+00
          2   -1    0    0  502    0  0.00000000000E+00  0.00000000000E+00  0.10656494355E+04  0.10656494355E+04  0.00000000000E+00 0. -1.
          1   -1    0    0  501    0 -0.00000000000E+00 -0.00000000000E+00 -0.12189601054E+04  0.12189601054E+04  0.00000000000E+00 0. -1.
         25    2    1    2    0    0  0.83257633510E+01 -0.20328122739E+03 -0.61882712247E+03  0.66329764242E+03  0.12499671672E+03 0.  0.
          2    1    1    2  501    0 -0.57585788912E+02  0.13133619021E+03 -0.56713544715E+03  0.58498541294E+03  0.00000000000E+00 0. -1.
          1    1    1    2  502    0  0.49260025561E+02  0.71945037182E+02  0.10326518998E+04  0.10363264855E+04  0.00000000000E+00 0. -1.
         22    1    3    3    0    0  0.20575005160E+01  0.80886604191E+01 -0.13524207855E+03  0.13549937102E+03  0.00000000000E+00 0.  1.
         22    1    3    3    0    0  0.62682628349E+01 -0.21136988781E+03 -0.48358504392E+03  0.52779827140E+03  0.00000000000E+00 0.  1.
</event>
<event>
 7    1  0.6089676E-006  0.2506827E+02  0.7818608E-02  0.1684014E+00
          2   -1    0    0  502    0  0.00000000000E+00  0.00000000000E+00  0.25358774926E+02  0.25358774926E+02  0.00000000000E+00 0. -1.
          1   -1    0    0  501    0 -0.00000000000E+00 -0.00000000000E+00 -0.82257039036E+03  0.82257039036E+03  0.00000000000E+00 0. -1.
         25    2    1    2    0    0  0.43733549199E+02 -0.16438866770E+02 -0.62508508637E+03  0.63917092135E+03  0.12500096734E+03 0.  0.
          2    1    1    2  501    0 -0.20304295400E+02  0.83973889417E+01 -0.18108805316E+03  0.18241618226E+03  0.00000000000E+00 0. -1.
          1    1    1    2  502    0 -0.23429253799E+02  0.80414778279E+01  0.89615240929E+01  0.26342061675E+02  0.00000000000E+00 0. -1.
         22    1    3    3    0    0  0.20111457604E+02 -0.38444298467E+02 -0.58961339441E+03  0.59120756903E+03  0.00000000000E+00 0. -1.
         22    1    3    3    0    0  0.23622091596E+02  0.22005431698E+02 -0.35471691956E+02  0.47963352320E+02  0.00000000000E+00 0. -1.
</event>
<event>
 7    1  0.6089676E-006  0.7360951E+02  0.7818608E-02  0.1354953E+00
          2   -1    0    0  502    0  0.00000000000E+00  0.00000000000E+00  0.31445707124E+03  0.31445707124E+03  0.00000000000E+00 0. -1.
          1   -1    0    0  501    0 -0.00000000000E+00 -0.00000000000E+00 -0.45428751976E+03  0.45428751976E+03  0.00000000000E+00 0. -1.
         25    2    1    2    0    0 -0.22819233551E+02  0.27854143540E+02  0.19859106404E+01  0.13009637008E+03  0.12499820373E+03 0.  0.
          2    1    1    2  501    0 -0.45756167596E+02 -0.57660503726E+02 -0.38100192929E+03  0.38804745933E+03  0.00000000000E+00 0. -1.
          1    1    1    2  502    0  0.68575401147E+02  0.29806360186E+02  0.23918557013E+03  0.25060076159E+03  0.00000000000E+00 0. -1.
         22    1    3    3    0    0 -0.29336115388E+02  0.40236696672E+02  0.55627742156E+02  0.74659528008E+02  0.00000000000E+00 0. -1.
         22    1    3    3    0    0  0.65168818366E+01 -0.12382553132E+02 -0.53641831515E+02  0.55436842075E+02  0.00000000000E+00 0. -1.
</event>
<event>
 7    1  0.6089676E-006  0.7100596E+02  0.7818608E-02  0.1410262E+00
          2   -1    0    0  502    0  0.00000000000E+00  0.00000000000E+00  0.18262944947E+04  0.18262944947E+04  0.00000000000E+00 0. -1.
          1   -1    0    0  501    0 -0.00000000000E+00 -0.00000000000E+00 -0.42646206276E+02  0.42646206276E+02  0.00000000000E+00 0. -1.
         25    2    1    2    0    0  0.10391402022E+03 -0.39072730206E+02  0.24660328948E+03  0.29793205851E+03  0.12500210904E+03 0.  0.
          2    1    1    2  501    0 -0.45974331835E+02  0.67947682152E-01  0.16477740046E+02  0.48838097031E+02  0.00000000000E+00 0. -1.
          1    1    1    2  502    0 -0.57939688383E+02  0.39004782524E+02  0.15205672589E+04  0.15221705454E+04  0.00000000000E+00 0. -1.
         22    1    3    3    0    0  0.11649619495E+03  0.50505292763E+01  0.20576329827E+03  0.23650667263E+03  0.00000000000E+00 0. -1.
         22    1    3    3    0    0 -0.12582174736E+02 -0.44123259482E+02  0.40839991209E+02  0.61425385879E+02  0.00000000000E+00 0. -1.
</event>
<event>
 7    1  0.6089676E-006  0.3791918E+02  0.7818608E-02  0.1569533E+00
          2   -1    0    0  502    0  0.00000000000E+00  0.00000000000E+00  0.59069906833E+03  0.59069906833E+03  0.00000000000E+00 0. -1.
          1   -1    0    0  501    0 -0.00000000000E+00 -0.00000000000E+00 -0.24398525571E+03  0.24398525571E+03  0.00000000000E+00 0. -1.
         25    2    1    2    0    0 -0.16414645984E+02  0.14450434382E+01  0.38534871834E+03  0.40544762402E+03  0.12499044902E+03 0.  0.
          2    1    1    2  501    0  0.29988771166E+02  0.23371835079E+02 -0.23135168397E+03  0.23445505059E+03  0.00000000000E+00 0. -1.
          1    1    1    2  502    0 -0.13574125183E+02 -0.24816878518E+02  0.19271677825E+03  0.19478164943E+03  0.00000000000E+00 0. -1.
         22    1    3    3    0    0  0.42419919400E+02  0.35823029787E+02  0.21298575335E+03  0.22010377133E+03  0.00000000000E+00 0.  1.
         22    1    3    3    0    0 -0.58834565384E+02 -0.34377986348E+02  0.17236296499E+03  0.18534385269E+03  0.00000000000E+00 0.  1.
</event>
<event>
 7    1  0.6089676E-006  0.6641289E+02  0.7818608E-02  0.1447731E+00
          2   -1    0    0  502    0  0.00000000000E+00  0.00000000000E+00  0.83715764030E+03  0.83715764030E+03  0.00000000000E+00 0. -1.
          1   -1    0    0  501    0 -0.00000000000E+00 -0.00000000000E+00 -0.90583651756E+03  0.90583651756E+03  0.00000000000E+00 0. -1.
         25    2    1    2    0    0 -0.63741722526E+02  0.54624933712E+02  0.25282600834E+02  0.15267978023E+03  0.12500005925E+03 0.  0.
          2    1    1    2  501    0  0.27216022893E+02 -0.60424118697E+02 -0.84037562923E+03  0.84298456939E+03  0.00000000000E+00 0. -1.
          1    1    1    2  502    0  0.36525699633E+02  0.57991849854E+01  0.74641415113E+03  0.74732980825E+03  0.00000000000E+00 0. -1.
         22    1    3    3    0    0 -0.96426196509E+02  0.54674653256E+02  0.38613579927E+02  0.11738116389E+03  0.00000000000E+00 0. -1.
         22    1    3    3    0    0  0.32684473983E+02 -0.49719544065E-01 -0.13330979092E+02  0.35298616334E+02  0.00000000000E+00 0. -1.
</event>
<event>
 7    1  0.6089676E-006  0.1411126E+03  0.7818608E-02  0.1268162E+00
          2   -1    0    0  502    0  0.00000000000E+00  0.00000000000E+00  0.81066061945E+03  0.81066061945E+03  0.00000000000E+00 0. -1.
          1   -1    0    0  501    0 -0.00000000000E+00 -0.00000000000E+00 -0.16161341476E+04  0.16161341476E+04  0.00000000000E+00 0. -1.
         25    2    1    2    0    0 -0.50489772220E+02  0.44453941802E+02 -0.12152447405E+03  0.18686540552E+03  0.12500044779E+03 0.  0.
          2    1    1    2  501    0 -0.36569267857E+02  0.70729597966E+02 -0.14541418051E+04  0.14563201491E+04  0.00000000000E+00 0. -1.
          1    1    1    2  502    0  0.87059040077E+02 -0.11518353977E+03  0.77019275094E+03  0.78360921248E+03  0.00000000000E+00 0. -1.
         22    1    3    3    0    0 -0.34757039417E+02  0.42731620325E+02 -0.14694002781E+03  0.15692487036E+03  0.00000000000E+00 0.  1.
         22    1    3    3    0    0 -0.15732732802E+02  0.17223214764E+01  0.25415553761E+02  0.29940535160E+02  0.00000000000E+00 0.  1.
</event>
<event>
 7    1  0.6089676E-006  0.6442966E+02  0.7818608E-02  0.1470991E+00
          2   -1    0    0  502    0  0.00000000000E+00  0.00000000000E+00  0.22518803557E+04  0.22518803557E+04  0.00000000000E+00 0. -1.
          1   -1    0    0  501    0 -0.00000000000E+00 -0.00000000000E+00 -0.16391300180E+02  0.16391300180E+02  0.00000000000E+00 0. -1.
         25    2    1    2    0    0 -0.34225251492E+02 -0.31221606074E+02  0.71882227673E+03  0.73107868485E+03  0.12499768558E+03 0.  0.
          2    1    1    2  501    0  0.64649969202E+02  0.20707713927E+02  0.10421985856E+03  0.12437928627E+03  0.00000000000E+00 0. -1.
          1    1    1    2  502    0 -0.30424717710E+02  0.10513892147E+02  0.14124469203E+04  0.14128136848E+04  0.00000000000E+00 0. -1.
         22    1    3    3    0    0 -0.54266021850E+02  0.33902906245E+02  0.29976911189E+03  0.30652198718E+03  0.00000000000E+00 0. -1.
         22    1    3    3    0    0  0.20040770358E+02 -0.65124512318E+02  0.41905316483E+03  0.42455669767E+03  0.00000000000E+00 0. -1.
</event>
<event>
 7    1  0.6089676E-006  0.7041669E+02  0.7818608E-02  0.1362691E+00
          2   -1    0    0  502    0  0.00000000000E+00  0.00000000000E+00  0.58602569408E+03  0.58602569408E+03  0.00000000000E+00 0. -1.
          1   -1    0    0  501    0 -0.00000000000E+00 -0.00000000000E+00 -0.51199678864E+03  0.51199678864E+03  0.00000000000E+00 0. -1.
         25    2    1    2    0    0  0.20934549193E+01  0.38425539866E+01 -0.50029139037E+02  0.13471101417E+03  0.12499997924E+03 0.  0.
          2    1    1    2  501    0  0.70379686396E+01  0.67721599143E+02 -0.41444336539E+03  0.41999887037E+03  0.00000000000E+00 0. -1.
          1    1    1    2  502    0 -0.91314235589E+01 -0.71564153130E+02  0.53850140987E+03  0.54331259818E+03  0.00000000000E+00 0. -1.
         22    1    3    3    0    0 -0.22533272347E+02  0.45521736491E+02  0.15621310458E+02  0.53141341687E+02  0.00000000000E+00 0. -1.
         22    1    3    3    0    0  0.24626727266E+02 -0.41679182505E+02 -0.65650449495E+02  0.81569672483E+02  0.00000000000E+00 0. -1.
</event>
<event>
 7    1  0.6089676E-006  0.8226891E+02  0.7818608E-02  0.1488932E+00
          2   -1    0    0  502    0  0.00000000000E+00  0.00000000000E+00  0.13236113018E+04  0.13236113018E+04  0.00000000000E+00 0. -1.
          1   -1    0    0  501    0 -0.00000000000E+00 -0.00000000000E+00 -0.12458620291E+04  0.12458620291E+04  0.00000000000E+00 0. -1.
         25    2    1    2    0    0 -0.61129433685E+02 -0.12122865556E+02  0.59975874953E+02  0.15199491460E+03  0.12498630707E+03 0.  0.
          2    1    1    2  501    0  0.82353870345E+02  0.55832468414E+01 -0.11983313808E+04  0.12011708583E+04  0.00000000000E+00 0. -1.
          1    1    1    2  502    0 -0.21224436659E+02  0.65396187141E+01  0.12161047785E+04  0.12163075580E+04  0.00000000000E+00 0. -1.
         22    1    3    3    0    0  0.38250614102E+02  0.30748784076E+01  0.96591525986E+01  0.39570994242E+02  0.00000000000E+00 0. -1.
         22    1    3    3    0    0 -0.99380047787E+02 -0.15197743963E+02  0.50316722354E+02  0.11242392036E+03  0.00000000000E+00 0. -1.
</event>
<event>
 7    1  0.6089676E-006  0.1195356E+03  0.7818608E-02  0.1248935E+00
          2   -1    0    0  502    0  0.00000000000E+00  0.00000000000E+00  0.56232316249E+03  0.56232316249E+03  0.00000000000E+00 0. -1.
          1   -1    0    0  501    0 -0.00000000000E+00 -0.00000000000E+00 -0.85225668124E+03  0.85225668124E+03  0.00000000000E+00 0. -1.
         25    2    1    2    0    0 -0.16691682936E+03 -0.12499241326E+03 -0.25276502494E+03  0.35071443221E+03  0.12500449524E+03 0.  0.
          2    1    1    2  501    0  0.51366542642E+02  0.10132163967E+03 -0.53772840553E+03  0.54959661069E+03  0.00000000000E+00 0. -1.
          1    1    1    2  502    0  0.11555028672E+03  0.23670773595E+02  0.50055991172E+03  0.51426880083E+03  0.00000000000E+00 0. -1.
         22    1    3    3    0    0 -0.13158996980E+03 -0.23043399452E+02 -0.15985640566E+03  0.20832903984E+03  0.00000000000E+00 0.  1.
         22    1    3    3    0    0 -0.35326859564E+02 -0.10194901381E+03 -0.92908619280E+02  0.14238539237E+03  0.00000000000E+00 0.  1.
</event>
<event>
 7    1  0.6089676E-006  0.9785830E+02  0.7818608E-02  0.1332595E+00
          2   -1    0    0  502    0  0.00000000000E+00  0.00000000000E+00  0.31922978494E+03  0.31922978494E+03  0.00000000000E+00 0. -1.
          1   -1    0    0  501    0 -0.00000000000E+00 -0.00000000000E+00 -0.24033275287E+04  0.24033275287E+04  0.00000000000E+00 0. -1.
         25    2    1    2    0    0 -0.67355133158E+02  0.12921239341E+03  0.10897219591E+03  0.22075449684E+03  0.12500020727E+03 0.  0.
          2    1    1    2  501    0  0.12894457715E+02 -0.96760970228E+02 -0.23398665568E+04  0.23419018886E+04  0.00000000000E+00 0. -1.
          1    1    1    2  502    0  0.54460675443E+02 -0.32451423182E+02  0.14679661712E+03  0.15990092818E+03  0.00000000000E+00 0. -1.
         22    1    3    3    0    0 -0.25946343970E+02  0.27495124390E+02  0.10417977689E+03  0.11082698472E+03  0.00000000000E+00 0.  1.
         22    1    3    3    0    0 -0.41408789188E+02  0.10171726902E+03  0.47924190220E+01  0.10992751211E+03  0.00000000000E+00 0.  1.
</event>
<event>
 7    1  0.6089676E-006  0.1435740E+03  0.7818608E-02  0.1242538E+00
          2   -1    0    0  502    0  0.00000000000E+00  0.00000000000E+00  0.30010665042E+03  0.30010665042E+03  0.00000000000E+00 0. -1.
          1   -1    0    0  501    0 -0.00000000000E+00 -0.00000000000E+00 -0.16713929561E+04  0.16713929561E+04  0.00000000000E+00 0. -1.
         25    2    1    2    0    0 -0.82719480163E+02 -0.27331271690E+02 -0.52152016796E+03  0.54332053437E+03  0.12499762666E+03 0.  0.
          2    1    1    2  501    0  0.18279591577E+03  0.14745322983E+02 -0.11225048465E+04  0.11373868743E+04  0.00000000000E+00 0. -1.
          1    1    1    2  502    0 -0.10007643561E+03  0.12585948707E+02  0.27273870878E+03  0.29079219786E+03  0.00000000000E+00 0. -1.
         22    1    3    3    0    0 -0.62132719647E+02  0.29328215858E+02 -0.12860420488E+03  0.14580692922E+03  0.00000000000E+00 0.  1.
         22    1    3    3    0    0 -0.20586760516E+02 -0.56659487548E+02 -0.39291596308E+03  0.39751360515E+03  0.00000000000E+00 0.  1.
</event>
<event>
 7    1  0.6089676E-006  0.1241461E+03  0.7818608E-02  0.1319896E+00
          2   -1    0    0  502    0  0.00000000000E+00  0.00000000000E+00  0.55232056518E+03  0.55232056518E+03  0.00000000000E+00 0. -1.
          1   -1    0    0  501    0 -0.00000000000E+00 -0.00000000000E+00 -0.57140660221E+03  0.57140660221E+03  0.00000000000E+00 0. -1.
         25    2    1    2    0    0  0.32165514420E+02  0.92322895806E+02  0.26053451939E+03  0.30505977418E+03  0.12500037048E+03 0.  0.
          2    1    1    2  501    0  0.40353292048E+02  0.38704666068E+02 -0.52674680630E+03  0.52970618017E+03  0.00000000000E+00 0. -1.
          1    1    1    2  502    0 -0.72518806468E+02 -0.13102756187E+03  0.24712624989E+03  0.28896121305E+03  0.00000000000E+00 0. -1.
         22    1    3    3    0    0  0.49210676121E+02  0.94209107500E+02  0.10787474110E+03  0.15143977796E+03  0.00000000000E+00 0. -1.
         22    1    3    3    0    0 -0.17045161701E+02 -0.18862116934E+01  0.15265977829E+03  0.15361999622E+03  0.00000000000E+00 0. -1.
</event>
<event>
 7    1  0.6089676E-006  0.6972624E+02  0.7818608E-02  0.1461838E+00
          2   -1    0    0  502    0  0.00000000000E+00  0.00000000000E+00  0.31723965188E+03  0.31723965188E+03  0.00000000000E+00 0. -1.
          1   -1    0    0  501    0 -0.00000000000E+00 -0.00000000000E+00 -0.52249523009E+03  0.52249523009E+03  0.00000000000E+00 0. -1.
         25    2    1    2    0    0  0.99147486075E+02 -0.77065663870E+01 -0.88124678513E+02  0.18242869630E+03  0.12499862044E+03 0.  0.
          2    1    1    2  501    0 -0.31455588810E+02 -0.44647780982E+01 -0.38217014897E+03  0.38348847580E+03  0.00000000000E+00 0. -1.
          1    1    1    2  502    0 -0.67691897265E+02  0.12171344485E+02  0.26503924927E+03  0.27381770986E+03  0.00000000000E+00 0. -1.
         22    1    3    3    0    0  0.11630995886E+03 -0.38090878830E+02 -0.54520448681E+02  0.13398283810E+03  0.00000000000E+00 0.  1.
         22    1    3    3    0    0 -0.17162472785E+02  0.30384312443E+02 -0.33604229832E+02  0.48445858206E+02  0.00000000000E+00 0.  1.
</event>
<event>
 7    1  0.6089676E-006  0.1503116E+03  0.7818608E-02  0.1302527E+00
          2   -1    0    0  502    0  0.00000000000E+00  0.00000000000E+00  0.24814639097E+04  0.24814639097E+04  0.00000000000E+00 0. -1.
          1   -1    0    0  501    0 -0.00000000000E+00 -0.00000000000E+00 -0.13133494345E+04  0.13133494345E+04  0.00000000000E+00 0. -1.
         25    2    1    2    0    0  0.12553060004E+02  0.13023371759E+03  0.26015330286E+03  0.31689629573E+03  0.12500048299E+03 0.  0.
          2    1    1    2  501    0  0.53514388677E+02  0.75828430783E+01 -0.12817448115E+04  0.12828838806E+04  0.00000000000E+00 0. -1.
          1    1    1    2  502    0 -0.66067448681E+02 -0.13781656067E+03  0.21897059839E+04  0.21950331679E+04  0.00000000000E+00 0. -1.
         22    1    3    3    0    0 -0.47695196263E+02  0.30139499472E+02  0.45384535635E+02  0.72408405933E+02  0.00000000000E+00 0. -1.
         22    1    3    3    0    0  0.60248256267E+02  0.10009421812E+03  0.21476876722E+03  0.24448788980E+03  0.00000000000E+00 0. -1.
</event>
<event>
 7    1  0.6089676E-006  0.4762909E+02  0.7818608E-02  0.1567009E+00
          2   -1    0    0  502    0  0.00000000000E+00  0.00000000000E+00  0.10450388223E+03  0.10450388223E+03  0.00000000000E+00 0. -1.
          1   -1    0    0  501    0 -0.00000000000E+00 -0.00000000000E+00 -0.53691950488E+03  0.53691950488E+03  0.00000000000E+00 0. -1.
         25    2    1    2    0    0  0.52020275319E+02  0.18205283395E+01 -0.24193039668E+03  0.27724510495E+03  0.12500043206E+03 0.  0.
          2    1    1    2  501    0 -0.42061669278E+02 -0.22418728452E+02 -0.27372894781E+03  0.27784765660E+03  0.00000000000E+00 0. -1.
          1    1    1    2  502    0 -0.99586060404E+01  0.20598200113E+02  0.83243721843E+02  0.86330625553E+02  0.00000000000E+00 0. -1.
         22    1    3    3    0    0  0.32076522281E+02 -0.12984441053E+02 -0.24902150856E+03  0.25141442026E+03  0.00000000000E+00 0.  1.
         22    1    3    3    0    0  0.19943753037E+02  0.14804969393E+02  0.70911118767E+01  0.25830684691E+02  0.00000000000E+00 0.  1.
</event>
<event>
 7    1  0.6089676E-006  0.8462956E+02  0.7818608E-02  0.1446579E+00
          2   -1    0    0  502    0  0.00000000000E+00  0.00000000000E+00  0.13831716270E+04  0.13831716270E+04  0.00000000000E+00 0. -1.
          1   -1    0    0  501    0 -0.00000000000E+00 -0.00000000000E+00 -0.10614251907E+03  0.10614251907E+03  0.00000000000E+00 0. -1.
         25    2    1    2    0    0 -0.65333166463E+02 -0.65869933774E+02  0.24370658114E+03  0.28918155916E+03  0.12500322256E+03 0.  0.
          2    1    1    2  501    0  0.37670231826E+02  0.75437724957E+02 -0.61848045957E+02  0.10457092092E+03  0.00000000000E+00 0. -1.
          1    1    1    2  502    0  0.27662934637E+02 -0.95677911829E+01  0.10951705727E+04  0.10955616660E+04  0.00000000000E+00 0. -1.
         22    1    3    3    0    0  0.32740967971E+02 -0.42095647103E+02  0.10353699684E+03  0.11646426149E+03  0.00000000000E+00 0. -1.
         22    1    3    3    0    0 -0.98074134434E+02 -0.23774286671E+02  0.14016958430E+03  0.17271729767E+03  0.00000000000E+00 0. -1.
</event>
<event>
 7    1  0.6089676E-006  0.1284292E+03  0.7818608E-02  0.1292912E+00
          2   -1    0    0  502    0  0.00000000000E+00  0.00000000000E+00  0.35628755199E+03  0.35628755199E+03  0.00000000000E+00 0. -1.
          1   -1    0    0  501    0 -0.00000000000E+00 -0.00000000000E+00 -0.83089498029E+03  0.83089498029E+03  0.00000000000E+00 0. -1.
         25    2    1    2    0    0 -0.23132774298E+02  0.72227842828E+02 -0.98644999836E+02  0.17637300593E+03  0.12499845880E+03 0.  0.
          2    1    1    2  501    0  0.78091940426E+02 -0.11418204205E+03 -0.68259867975E+03  0.69647458495E+03  0.00000000000E+00 0. -1.
          1    1    1    2  502    0 -0.54959166128E+02  0.41954199226E+02  0.30663625129E+03  0.31433494139E+03  0.00000000000E+00 0. -1.
         22    1    3    3    0    0 -0.19140532864E+02  0.82578670705E+02 -0.81034871227E+01  0.85154350196E+02  0.00000000000E+00 0.  1.
         22    1    3    3    0    0 -0.39922414346E+01 -0.10350827877E+02 -0.90541512713E+02  0.91218655734E+02  0.00000000000E+00 0.  1.
</event>
<event>
 7    1  0.6089676E-006  0.7604251E+02  0.7818608E-02  0.1366222E+00
          2   -1    0    0  502    0  0.00000000000E+00  0.00000000000E+00  0.24537168463E+03  0.24537168463E+03  0.00000000000E+00 0. -1.
          1   -1    0    0  501    0 -0.00000000000E+00 -0.00000000000E+00 -0.15114016687E+04  0.15114016687E+04  0.00000000000E+00 0. -1.
         25    2    1    2    0    0  0.21460469232E+02  0.51132003426E+02  0.52301486459E+02  0.14641511700E+03  0.12500762972E+03 0.  0.
          2    1    1    2  501    0  0.57952481547E+02 -0.19726788399E+02 -0.14511577174E+04  0.14524484008E+04  0.00000000000E+00 0. -1.
          1    1    1    2  502    0 -0.79412950779E+02 -0.31405215027E+02  0.13282624688E+03  0.15790983549E+03  0.00000000000E+00 0. -1.
         22    1    3    3    0    0  0.43305266707E+01  0.35433754952E+01 -0.40414967056E+02  0.40800472219E+02  0.00000000000E+00 0. -1.
         22    1    3    3    0    0  0.17129942562E+02  0.47588627931E+02  0.92716453515E+02  0.10561464478E+03  0.00000000000E+00 0. -1.
</event>
<event>
 7    1  0.6089676E-006  0.3314256E+03  0.7818608E-02  0.1213761E+00
          2   -1    0    0  502    0  0.00000000000E+00  0.00000000000E+00  0.87405758654E+03  0.87405758654E+03  0.00000000000E+00 0. -1.
          1   -1    0    0  501    0 -0.00000000000E+00 -0.00000000000E+00 -0.11388589073E+04  0.11388589073E+04  0.00000000000E+00 0. -1.
         25    2    1    2    0    0 -0.16192639863E+03 -0.29576242389E+03  0.91142198247E+02  0.37098221826E+03  0.12500134399E+03 0.  0.
          2    1    1    2  501    0  0.20737960580E+03  0.25835368936E+03 -0.97002517840E+03  0.10250374512E+04  0.00000000000E+00 0. -1.
          1    1    1    2  502    0 -0.45453207171E+02  0.37408734536E+02  0.61408165940E+03  0.61689682433E+03  0.00000000000E+00 0. -1.
         22    1    3    3    0    0 -0.53642540326E+02 -0.30909476259E+02 -0.18415420272E+02  0.64591373720E+02  0.00000000000E+00 0.  1.
         22    1    3    3    0    0 -0.10828385831E+03 -0.26485294763E+03  0.10955761852E+03  0.30639084454E+03  0.00000000000E+00 0.  1.
</event>
<event>
 7    1  0.6089676E-006  0.1587144E+03  0.7818608E-02  0.1223107E+00
          2   -1    0    0  502    0  0.00000000000E+00  0.00000000000E+00  0.28812735172E+04  0.28812735172E+04  0.00000000000E+00 0. -1.
          1   -1    0    0  501    0 -0.00000000000E+00 -0.00000000000E+00 -0.19238255504E+04  0.19238255504E+04  0.00000000000E+00 0. -1.
         25    2    1    2    0    0 -0.14259586064E+03 -0.75426663191E+02  0.18820766361E+02  0.20494464512E+03  0.12500130128E+03 0.  0.
          2    1    1    2  501    0  0.58641341212E+02  0.14866382303E+03 -0.18261520119E+04  0.18331314491E+04  0.00000000000E+00 0. -1.
          1    1    1    2  502    0  0.83954519433E+02 -0.73237159842E+02  0.27647792122E+04  0.27670229734E+04  0.00000000000E+00 0. -1.
         22    1    3    3    0    0 -0.11767893462E+03 -0.10268151819E+03  0.41512717406E+02  0.16160176836E+03  0.00000000000E+00 0.  1.
         22    1    3    3    0    0 -0.24916926022E+02  0.27254854995E+02 -0.22691951045E+02  0.43342876755E+02  0.00000000000E+00 0.  1.
</event>
<event>
 7    1  0.6089676E-006  0.6488157E+02  0.7818608E-02  0.1413529E+00
          2   -1    0    0  502    0  0.00000000000E+00  0.00000000000E+00  0.17684517377E+03  0.17684517377E+03  0.00000000000E+00 0. -1.
          1   -1    0    0  501    0 -0.00000000000E+00 -0.00000000000E+00 -0.28076107808E+04  0.28076107808E+04  0.00000000000E+00 0. -1.
         25    2    1    2    0    0  0.14565857532E+02 -0.77977290642E+01 -0.53293070074E+02  0.13683672817E+03  0.12494466805E+03 0.  0.
          2    1    1    2  501    0 -0.61468805867E+02  0.22154797248E+02 -0.27076855703E+04  0.27084738132E+04  0.00000000000E+00 0. -1.
          1    1    1    2  502    0  0.46902948335E+02 -0.14357068184E+02  0.13021303334E+03  0.13914541322E+03  0.00000000000E+00 0. -1.
         22    1    3    3    0    0 -0.40255417000E+02  0.29232631143E+02  0.31850586461E+01  0.49851679209E+02  0.00000000000E+00 0.  1.
         22    1    3    3    0    0  0.54821274532E+02 -0.37030360207E+02 -0.56478128720E+02  0.86985048957E+02  0.00000000000E+00 0.  1.
</event>
<event>
 7    1  0.6089676E-006  0.1423764E+03  0.7818608E-02  0.1263481E+00
          2   -1    0    0  502    0  0.00000000000E+00  0.00000000000E+00  0.26778231896E+04  0.26778231896E+04  0.00000000000E+00 0. -1.
          1   -1    0    0  501    0 -0.00000000000E+00 -0.00000000000E+00 -0.75101963886E+02  0.75101963886E+02  0.00000000000E+00 0. -1.
         25    2    1    2    0    0  0.76404056446E+02 -0.11285322015E+02  0.47819180641E+03  0.50025783018E+03  0.12500221840E+03 0.  0.
          2    1    1    2  501    0  0.81588692384E+02 -0.12866318385E+02 -0.33205063939E+02  0.89021531917E+02  0.00000000000E+00 0. -1.
          1    1    1    2  502    0 -0.15799274883E+03  0.24151640399E+02  0.21577344832E+04  0.21636457914E+04  0.00000000000E+00 0. -1.
         22    1    3    3    0    0  0.47482018089E+02  0.21136559441E+00  0.43322364183E+02  0.64276076075E+02  0.00000000000E+00 0.  1.
         22    1    3    3    0    0  0.28922038356E+02 -0.11496687609E+02  0.43486944222E+03  0.43598175410E+03  0.00000000000E+00 0.  1.
</event>
<event>
 7    1  0.6089676E-006  0.1212955E+03  0.7818608E-02  0.1281506E+00
          2   -1    0    0  502    0  0.00000000000E+00  0.00000000000E+00  0.46749581071E+03  0.46749581071E+03  0.00000000000E+00 0. -1.
          1   -1    0    0  501    0 -0.00000000000E+00 -0.00000000000E+00 -0.79139856276E+03  0.79139856276E+03  0.00000000000E+00 0. -1.
         25    2    1    2    0    0  0.10233844129E+02 -0.14064507209E+03 -0.72055443790E+02  0.20175622934E+03  0.12501128440E+03 0.  0.
          2    1    1    2  501    0 -0.72895897693E+02  0.36448724128E+02 -0.64268122738E+03  0.64782828081E+03  0.00000000000E+00 0. -1.
          1    1    1    2  502    0  0.62662053564E+02  0.10419634796E+03  0.39083391912E+03  0.40930986333E+03  0.00000000000E+00 0. -1.
         22    1    3    3    0    0 -0.27863546585E+02  0.28512045999E+01  0.12750642675E+02  0.30774754013E+02  0.00000000000E+00 0.  1.
         22    1    3    3    0    0  0.38097390713E+02 -0.14349627669E+03 -0.84806086465E+02  0.17098147532E+03  0.00000000000E+00 0.  1.
</event>
<event>
 7    1  0.6089676E-006  0.2661366E+02  0.7818608E-02  0.1642588E+00
          2   -1    0    0  502    0  0.00000000000E+00  0.00000000000E+00  0.11902548738E+03  0.11902548738E+03  0.00000000000E+00 0. -1.
          1   -1    0    0  501    0 -0.00000000000E+00 -0.00000000000E+00 -0.24938772650E+03  0.24938772650E+03  0.00000000000E+00 0. -1.
         25    2    1    2    0    0 -0.14285471523E+02 -0.43357939953E+02  0.14475200910E+02  0.13386125779E+03  0.12500127697E+03 0.  0.
          2    1    1    2  501    0 -0.50955877030E+01  0.25949414870E+02 -0.18489038858E+03  0.18677203468E+03  0.00000000000E+00 0. -1.
          1    1    1    2  502    0  0.19381059226E+02  0.17408525083E+02  0.40052948548E+02  0.47779921408E+02  0.00000000000E+00 0. -1.
         22    1    3    3    0    0 -0.49563903146E+02  0.49571203536E+01  0.44618029123E+02  0.66872431241E+02  0.00000000000E+00 0.  1.
         22    1    3    3    0    0  0.35278431623E+02 -0.48315060306E+02 -0.30142828213E+02  0.66988826552E+02  0.00000000000E+00 0.  1.
</event>
<event>
 7    1  0.6089676E-006  0.8854467E+02  0.7818608E-02  0.1443821E+00
          2   -1    0    0  502    0  0.00000000000E+00  0.00000000000E+00  0.23371222772E+03  0.23371222772E+03  0.00000000000E+00 0. -1.
          1   -1    0    0  501    0 -0.00000000000E+00 -0.00000000000E+00 -0.28408092962E+03  0.28408092962E+03  0.00000000000E+00 0. -1.
         25    2    1    2    0    0 -0.60828832385E+02 -0.92021268872E+02  0.61077518142E+02  0.17755620144E+03  0.12501072223E+03 0.  0.
          2    1    1    2  501    0  0.35049939063E+02  0.79739933322E+02 -0.21544643093E+03  0.23238786499E+03  0.00000000000E+00 0. -1.
          1    1    1    2  502    0  0.25778893322E+02  0.12281335550E+02  0.10400021089E+03  0.10784909091E+03  0.00000000000E+00 0. -1.
         22    1    3    3    0    0  0.11585272672E+02 -0.63217619395E+02 -0.17782706096E+02  0.66685160125E+02  0.00000000000E+00 0. -1.
         22    1    3    3    0    0 -0.72414105057E+02 -0.28803649477E+02  0.78860224238E+02  0.11087104131E+03  0.00000000000E+00 0. -1.
</event>
<event>
 7    1  0.6089676E-006  0.9033529E+02  0.7818608E-02  0.1329979E+00
          2   -1    0    0  502    0  0.00000000000E+00  0.00000000000E+00  0.13632402481E+04  0.13632402481E+04  0.00000000000E+00 0. -1.
          1   -1    0    0  501    0 -0.00000000000E+00 -0.00000000000E+00 -0.17331522477E+03  0.17331522477E+03  0.00000000000E+00 0. -1.
         25    2    1    2    0    0 -0.55212548408E+02 -0.45057239940E+02  0.20178530744E+02  0.14529885815E+03  0.12500401875E+03 0.  0.
          2    1    1    2  501    0  0.52782884348E+02 -0.46389663738E+02 -0.97791982860E+02  0.12042136726E+03  0.00000000000E+00 0. -1.
          1    1    1    2  502    0  0.24296640607E+01  0.91446903677E+02  0.12675384754E+04  0.12708352474E+04  0.00000000000E+00 0. -1.
         22    1    3    3    0    0  0.10965277595E+02 -0.58190722742E+02 -0.24814539199E+02  0.64204041007E+02  0.00000000000E+00 0. -1.
         22    1    3    3    0    0 -0.66177826003E+02  0.13133482802E+02  0.44993069943E+02  0.81094817146E+02  0.00000000000E+00 0. -1.
</event>
<event>
 7    1  0.6089676E-006  0.7446385E+02  0.7818608E-02  0.1351433E+00
          2   -1    0    0  502    0  0.00000000000E+00  0.00000000000E+00  0.22305935640E+03  0.22305935640E+03  0.00000000000E+00 0. -1.
          1   -1    0    0  501    0 -0.00000000000E+00 -0.00000000000E+00 -0.11704505540E+04  0.11704505540E+04  0.00000000000E+00 0. -1.
         25    2    1    2    0    0  0.80166265266E+02 -0.65521327836E+02  0.65817712772E+02  0.17514690213E+03  0.12499916609E+03 0.  0.
          2    1    1    2  501    0 -0.98470923724E+01  0.73794822947E+02 -0.11021605114E+04  0.11046720934E+04  0.00000000000E+00 0. -1.
          1    1    1    2  502    0 -0.70319172894E+02 -0.82734951117E+01  0.88951601012E+02  0.11369091485E+03  0.00000000000E+00 0. -1.
         22    1    3    3    0    0  0.79047748406E+02 -0.95692011503E+02  0.73159365693E+02  0.14407567589E+03  0.00000000000E+00 0.  1.
         22    1    3    3    0    0  0.11185168601E+01  0.30170683667E+02 -0.73416529209E+01  0.31071226247E+02  0.00000000000E+00 0.  1.
</event>
<event>
 7    1  0.6089676E-006  0.7933714E+02  0.7818608E-02  0.1335813E+00
          2   -1    0    0  502    0  0.00000000000E+00  0.00000000000E+00  0.20419593282E+03  0.20419593282E+03  0.00000000000E+00 0. -1.
          1   -1    0    0  501    0 -0.00000000000E+00 -0.00000000000E+00 -0.43251203220E+03  0.43251203220E+03  0.00000000000E+00 0. -1.
         25    2    1    2    0    0 -0.58519629178E+02 -0.12295524120E+03 -0.11559989670E+03  0.21801770071E+03  0.12500337344E+03 0.  0.
          2    1    1    2  501    0 -0.21625074450E+01  0.75996306644E+02 -0.25006240844E+03  0.26136434948E+03  0.00000000000E+00 0. -1.
          1    1    1    2  502    0  0.60682136623E+02  0.46958934551E+02  0.13734620577E+03  0.15732591483E+03  0.00000000000E+00 0. -1.
         22    1    3    3    0    0 -0.79933024662E+02 -0.79771225932E+02 -0.12548057180E+03  0.16881383480E+03  0.00000000000E+00 0. -1.
         22    1    3    3    0    0  0.21413395484E+02 -0.43184015264E+02  0.98806751061E+01  0.49203865915E+02  0.00000000000E+00 0. -1.
</event>
<event>
 7    1  0.6089676E-006  0.1764804E+03  0.7818608E-02  0.1336332E+00
          2   -1    0    0  502    0  0.00000000000E+00  0.00000000000E+00  0.76763800412E+03  0.76763800412E+03  0.00000000000E+00 0. -1.
          1   -1    0    0  501    0 -0.00000000000E+00 -0.00000000000E+00 -0.30387985288E+03  0.30387985288E+03  0.00000000000E+00 0. -1.
         25    2    1    2    0    0 -0.12578744597E+03 -0.15739203266E+03  0.49134930728E+02  0.24214372055E+03  0.12499842588E+03 0.  0.
          2    1    1    2  501    0  0.11635912304E+03  0.12470050300E+03 -0.17172987271E+03  0.24203472921E+03  0.00000000000E+00 0. -1.
          1    1    1    2  502    0  0.94283229233E+01  0.32691529664E+02  0.58635309322E+03  0.58733940725E+03  0.00000000000E+00 0. -1.
         22    1    3    3    0    0 -0.15093988205E+03 -0.14226000262E+03  0.47259896686E+02  0.21273047308E+03  0.00000000000E+00 0.  1.
         22    1    3    3    0    0  0.25152436084E+02 -0.15132030039E+02  0.18750340424E+01  0.29413247469E+02  0.00000000000E+00 0.  1.
</event>
<event>
 7    1  0.6089676E-006  0.9321523E+02  0.7818608E-02  0.1360799E+00
          2   -1    0    0  502    0  0.00000000000E+00  0.00000000000E+00  0.78410084867E+02  0.78410084867E+02  0.00000000000E+00 0. -1.
          1   -1    0    0  501    0 -0.00000000000E+00 -0.00000000000E+00 -0.94822683072E+03  0.94822683072E+03  0.00000000000E+00 0. -1.
         25    2    1    2    0    0  0.59394288668E+02 -0.11076656731E+03 -0.33520723562E+03  0.37919063794E+03  0.12499894052E+03 0.  0.
          2    1    1    2  501    0 -0.47890238253E+02  0.20909107039E+02 -0.55261769357E+03  0.55508285951E+03  0.00000000000E+00 0. -1.
          1    1    1    2  502    0 -0.11504050414E+02  0.89857460273E+02  0.18008183334E+02  0.92363418135E+02  0.00000000000E+00 0. -1.
         22    1    3    3    0    0 -0.36447719967E+02 -0.15429708321E+02 -0.51772671480E+02  0.65168410306E+02  0.00000000000E+00 0.  1.
         22    1    3    3    0    0  0.95842008635E+02 -0.95336858990E+02 -0.28343456414E+03  0.31402222764E+03  0.00000000000E+00 0.  1.
</event>
<event>
 7    1  0.6089676E-006  0.4410596E+02  0.7818608E-02  0.1512207E+00
          2   -1    0    0  502    0  0.00000000000E+00  0.00000000000E+00  0.30973886665E+04  0.30973886665E+04  0.00000000000E+00 0. -1.
          1   -1    0    0  501    0 -0.00000000000E+00 -0.00000000000E+00 -0.53333169723E+03  0.53333169723E+03  0.00000000000E+00 0. -1.
         25    2    1    2    0    0  0.40649259587E+02  0.64257286740E+02  0.24090156053E+03  0.28185091226E+03  0.12500005470E+03 0.  0.
          2    1    1    2  501    0 -0.27202881124E+02 -0.22508106083E+02 -0.51207951743E+03  0.51329527930E+03  0.00000000000E+00 0. -1.
          1    1    1    2  502    0 -0.13446378463E+02 -0.41749180657E+02  0.28352349262E+04  0.28355741721E+04  0.00000000000E+00 0. -1.
         22    1    3    3    0    0 -0.38879423851E+02  0.16856778210E+02  0.13344097709E+03  0.14000805311E+03  0.00000000000E+00 0. -1.
         22    1    3    3    0    0  0.79528683438E+02  0.47400508530E+02  0.10746058344E+03  0.14184285915E+03  0.00000000000E+00 0. -1.
</event>
<event>
 7    1  0.6089676E-006  0.1424786E+03  0.7818608E-02  0.1217436E+00
          2   -1    0    0  502    0  0.00000000000E+00  0.00000000000E+00  0.59385405776E+03  0.59385405776E+03  0.00000000000E+00 0. -1.
          1   -1    0    0  501    0 -0.00000000000E+00 -0.00000000000E+00 -0.47043462560E+03  0.47043462560E+03  0.00000000000E+00 0. -1.
         25    2    1    2    0    0 -0.17501453829E+02 -0.93302492848E+01  0.22225436588E+02  0.12849986696E+03  0.12499956535E+03 0.  0.
          2    1    1    2  501    0 -0.14047785662E+03  0.23793065351E+02 -0.39232701157E+03  0.41739743910E+03  0.00000000000E+00 0. -1.
          1    1    1    2  502    0  0.15797931045E+03 -0.14462816066E+02  0.49352100714E+03  0.51839137730E+03  0.00000000000E+00 0. -1.
         22    1    3    3    0    0 -0.17109394414E+02 -0.51351264907E+01  0.74217679292E+02  0.76337178497E+02  0.00000000000E+00 0.  1.
         22    1    3    3    0    0 -0.39205941531E+00 -0.41951227941E+01 -0.51992242704E+02  0.52162688459E+02  0.00000000000E+00 0.  1.
</event>
<event>
 7    1  0.6089676E-006  0.2015099E+03  0.7818608E-02  0.1205767E+00
          2   -1    0    0  502    0  0.00000000000E+00  0.00000000000E+00  0.60266475689E+03  0.60266475689E+03  0.00000000000E+00 0. -1.
          1   -1    0    0  501    0 -0.00000000000E+00 -0.00000000000E+00 -0.35924119723E+04  0.35924119723E+04  0.00000000000E+00 0. -1.
         25    2    1    2    0    0  0.22704026352E+03 -0.15018476156E+03 -0.42873270821E+03  0.52301017344E+03  0.12500065028E+03 0.  0.
          2    1    1    2  501    0 -0.10517581937E+03 -0.76050513839E+01 -0.30977266347E+04  0.30995209457E+04  0.00000000000E+00 0. -1.
          1    1    1    2  502    0 -0.12186444415E+03  0.15778981294E+03  0.53671212746E+03  0.57254561004E+03  0.00000000000E+00 0. -1.
         22    1    3    3    0    0  0.32217649946E+02 -0.44782730207E+01 -0.14799232662E+03  0.15152478555E+03  0.00000000000E+00 0. -1.
         22    1    3    3    0    0  0.19482261357E+03 -0.14570648854E+03 -0.28074038159E+03  0.37148538790E+03  0.00000000000E+00 0. -1.
</event>
<event>
 7    1  0.6089676E-006  0.9073631E+02  0.7818608E-02  0.1309423E+00
          2   -1    0    0  502    0  0.00000000000E+00  0.00000000000E+00  0.75865294787E+03  0.75865294787E+03  0.00000000000E+00 0. -1.
          1   -1    0    0  501    0 -0.00000000000E+00 -0.00000000000E+00 -0.31380562760E+03  0.31380562760E+03  0.00000000000E+00 0. -1.
         25    2    1    2    0    0 -0.54229594714E+01  0.30472044448E+02  0.16007508622E+03  0.20544364882E+03  0.12500042251E+03 0.  0.
          2    1    1    2  501    0 -0.90001092042E+02 -0.11527430616E+02 -0.27978819943E+03  0.29413349821E+03  0.00000000000E+00 0. -1.
          1    1    1    2  502    0  0.95424051513E+02 -0.18944613832E+02  0.56456043348E+03  0.57288142844E+03  0.00000000000E+00 0. -1.
         22    1    3    3    0    0 -0.21274076348E+01  0.26742881902E+02 -0.14704670427E+02  0.30593053591E+02  0.00000000000E+00 0.  1.
         22    1    3    3    0    0 -0.32955518366E+01  0.37291625458E+01  0.17477975665E+03  0.17485059522E+03  0.00000000000E+00 0.  1.
</event>
<event>
 7    1  0.6089676E-006  0.4142611E+02  0.7818608E-02  0.1566913E+00
          2   -1    0    0  502    0  0.00000000000E+00  0.00000000000E+00  0.37033644909E+03  0.37033644909E+03  0.00000000000E+00 0. -1.
          1   -1    0    0  501    0 -0.00000000000E+00 -0.00000000000E+00 -0.11146648451E+04  0.11146648451E+04  0.00000000000E+00 0. -1.
         25    2    1    2    0    0 -0.16650082776E+02 -0.38763438350E+01 -0.17305548154E+03  0.21416145352E+03  0.12499870873E+03 0.  0.
          2    1    1    2  501    0  0.35895272150E+02  0.21832339303E+02 -0.92008117756E+03  0.92103989865E+03  0.00000000000E+00 0. -1.
          1    1    1    2  502    0 -0.19245189374E+02 -0.17955995468E+02  0.34880826306E+03  0.34979994206E+03  0.00000000000E+00 0. -1.
         22    1    3    3    0    0  0.34220575780E+02 -0.20325200244E+02 -0.15128824275E+03  0.15643622971E+03  0.00000000000E+00 0.  1.
         22    1    3    3    0    0 -0.50870658556E+02  0.16448856409E+02 -0.21767238790E+02  0.57725223807E+02  0.00000000000E+00 0.  1.
</event>
<event>
 7    1  0.6089676E-006  0.1196180E+03  0.7818608E-02  0.1347316E+00
          2   -1    0    0  502    0  0.00000000000E+00  0.00000000000E+00  0.56676937514E+02  0.56676937514E+02  0.00000000000E+00 0. -1.
          1   -1    0    0  501    0 -0.00000000000E+00 -0.00000000000E+00 -0.24672718835E+04  0.24672718835E+04  0.00000000000E+00 0. -1.
         25    2    1    2    0    0 -0.19026093101E+02  0.12040036121E+03 -0.48184525414E+03  0.51250171893E+03  0.12499969509E+03 0.  0.
          2    1    1    2  501    0  0.45565394009E+02 -0.28374283192E+01 -0.18814069220E+04  0.18819607494E+04  0.00000000000E+00 0. -1.
          1    1    1    2  502    0 -0.26539300908E+02 -0.11756293289E+03 -0.47342769895E+02  0.12948635273E+03  0.00000000000E+00 0. -1.
         22    1    3    3    0    0  0.21930851939E+02  0.42252325105E+02 -0.35388134449E+03  0.35706893904E+03  0.00000000000E+00 0. -1.
         22    1    3    3    0    0 -0.40956945040E+02  0.78148036104E+02 -0.12796390965E+03  0.15543277989E+03  0.00000000000E+00 0. -1.
</event>
<event>
 7    1  0.6089676E-006  0.1090991E+03  0.7818608E-02  0.1363687E+00
          2   -1    0    0  502    0  0.00000000000E+00  0.00000000000E+00  0.70809005810E+03  0.70809005810E+03  0.00000000000E+00 0. -1.
          1   -1    0    0  501    0 -0.00000000000E+00 -0.00000000000E+00 -0.89120315041E+03  0.89120315041E+03  0.00000000000E+00 0. -1.
         25    2    1    2    0    0 -0.54088682053E+02  0.64599804224E+02  0.29168206129E+02  0.15353999086E+03  0.12500009725E+03 0.  0.
          2    1    1    2  501    0  0.96308699847E+02 -0.53794232802E+02 -0.82456955516E+03  0.83191594313E+03  0.00000000000E+00 0. -1.
          1    1    1    2  502    0 -0.42220017794E+02 -0.10805571422E+02  0.61228825672E+03  0.61383727452E+03  0.00000000000E+00 0. -1.
         22    1    3    3    0    0 -0.67979434446E+02 -0.95330391736E+01  0.36528504314E+02  0.77758690646E+02  0.00000000000E+00 0. -1.
         22    1    3    3    0    0  0.13890752393E+02  0.74132843397E+02 -0.73602981849E+01  0.75781300211E+02  0.00000000000E+00 0. -1.
</event>
<event>
 7    1  0.6089676E-006  0.4579673E+02  0.7818608E-02  0.1487686E+00
          2   -1    0    0  502    0  0.00000000000E+00  0.00000000000E+00  0.31839301211E+03  0.31839301211E+03  0.00000000000E+00 0. -1.
          1   -1    0    0  501    0 -0.00000000000E+00 -0.00000000000E+00 -0.38450707628E+03  0.38450707628E+03  0.00000000000E+00 0. -1.
         25    2    1    2    0    0  0.26990908958E+02 -0.32128456364E+02 -0.11306008454E+03  0.17368971696E+03  0.12499915275E+03 0.  0.
          2    1    1    2  501    0  0.10758553071E+02  0.46079962150E+02 -0.23737993239E+03  0.24205028749E+03  0.00000000000E+00 0. -1.
          1    1    1    2  502    0 -0.37749462028E+02 -0.13951505787E+02  0.28432595275E+03  0.28716008393E+03  0.00000000000E+00 0. -1.
         22    1    3    3    0    0 -0.18194130357E+02  0.31105701501E+02 -0.82774140132E+02  0.90278177429E+02  0.00000000000E+00 0. -1.
         22    1    3    3    0    0  0.45185039315E+02 -0.63234157865E+02 -0.30285944409E+02  0.83411539534E+02  0.00000000000E+00 0. -1.
</event>
<event>
 7    1  0.6089676E-006  0.1997215E+03  0.7818608E-02  0.1243777E+00
          2   -1    0    0  502    0  0.00000000000E+00  0.00000000000E+00  0.27937847976E+04  0.27937847976E+04  0.00000000000E+00 0. -1.
          1   -1    0    0  501    0 -0.00000000000E+00 -0.00000000000E+00 -0.21612897439E+04  0.21612897439E+04  0.00000000000E+00 0. -1.
         25    2    1    2    0    0  0.17309685533E+03  0.19451582025E+03 -0.91956765194E+03  0.96386124071E+03  0.12499959674E+03 0.  0.
          2    1    1    2  501    0 -0.17716563680E+02 -0.69381098251E+02 -0.12149296294E+04  0.12170380511E+04  0.00000000000E+00 0. -1.
          1    1    1    2  502    0 -0.15538029165E+03 -0.12513472200E+03  0.27669923351E+04  0.27741752497E+04  0.00000000000E+00 0. -1.
         22    1    3    3    0    0  0.10457507139E+03  0.18121032380E+03 -0.56511713912E+03  0.60260310979E+03  0.00000000000E+00 0. -1.
         22    1    3    3    0    0  0.68521783935E+02  0.13305496456E+02 -0.35445051283E+03  0.36125813092E+03  0.00000000000E+00 0. -1.
</event>
<event>
 7    1  0.6089676E-006  0.9348436E+02  0.7818608E-02  0.1480159E+00
          2   -1    0    0  502    0  0.00000000000E+00  0.00000000000E+00  0.25289731764E+04  0.25289731764E+04  0.00000000000E+00 0. -1.
          1   -1    0    0  501    0 -0.00000000000E+00 -0.00000000000E+00 -0.24423819215E+03  0.24423819215E+03  0.00000000000E+00 0. -1.
         25    2    1    2    0    0  0.70940462369E+02  0.31079536676E+02  0.20695857476E+04  0.20748032816E+04  0.12500001566E+03 0.  0.
          2    1    1    2  501    0 -0.90451390934E+02 -0.23911187611E+02 -0.23232268419E+03  0.25045364562E+03  0.00000000000E+00 0. -1.
          1    1    1    2  502    0  0.19510928564E+02 -0.71683490650E+01  0.44747192085E+03  0.44795444133E+03  0.00000000000E+00 0. -1.
         22    1    3    3    0    0  0.93265918979E+02  0.13618494423E+02  0.19335676650E+04  0.19358636084E+04  0.00000000000E+00 0.  1.
         22    1    3    3    0    0 -0.22325456610E+02  0.17461042252E+02  0.13601808258E+03  0.13893967324E+03  0.00000000000E+00 0.  1.
</event>
<event>
 7    1  0.6089676E-006  0.7988096E+02  0.7818608E-02  0.1376073E+00
          2   -1    0    0  502    0  0.00000000000E+00  0.00000000000E+00  0.21661342526E+04  0.21661342526E+04  0.00000000000E+00 0. -1.
          1   -1    0    0  501    0 -0.00000000000E+00 -0.00000000000E+00 -0.37188755826E+02  0.37188755826E+02  0.00000000000E+00 0. -1.
         25    2    1    2    0    0 -0.12917126922E+03 -0.19993510635E+01  0.33965547805E+03  0.38429152749E+03  0.12499968054E+03 0.  0.
          2    1    1    2  501    0  0.51997511322E+02  0.13495716541E+02  0.37522581202E+02  0.65527243561E+02  0.00000000000E+00 0. -1.
          1    1    1    2  502    0  0.77173757902E+02 -0.11496365477E+02  0.17517674375E+04  0.17535042373E+04  0.00000000000E+00 0. -1.
         22    1    3    3    0    0 -0.10841653101E+03  0.53216343867E+02  0.22871730091E+03  0.25864594949E+03  0.00000000000E+00 0.  1.
         22    1    3    3    0    0 -0.20754738219E+02 -0.55215694930E+02  0.11093817714E+03  0.12564557800E+03  0.00000000000E+00 0.  1.
</event>
<event>
 7    1  0.6089676E-006  0.7484490E+02  0.7818608E-02  0.1426399E+00
          2   -1    0    0  502    0  0.00000000000E+00  0.00000000000E+00  0.95937630773E+02  0.95937630773E+02  0.00000000000E+00 0. -1.
          1   -1    0    0  501    0 -0.00000000000E+00 -0.00000000000E+00 -0.17598880846E+04  0.17598880846E+04  0.00000000000E+00 0. -1.
         25    2    1    2    0    0 -0.78550280139E+02 -0.61634175216E+02 -0.85524324829E+02  0.18140652382E+03  0.12499999473E+03 0.  0.
          2    1    1    2  501    0  0.70537256126E+02  0.23962990063E+02 -0.16176987407E+04  0.16194131484E+04  0.00000000000E+00 0. -1.
          1    1    1    2  502    0  0.80130240131E+01  0.37671185153E+02  0.39272611775E+02  0.55006043125E+02  0.00000000000E+00 0. -1.
         22    1    3    3    0    0  0.20275761558E+02  0.91511507386E+00  0.16536044681E+02  0.26179853247E+02  0.00000000000E+00 0. -1.
         22    1    3    3    0    0 -0.98826041697E+02 -0.62549290290E+02 -0.10206036951E+03  0.15522667057E+03  0.00000000000E+00 0. -1.
</event>
<event>
 7    1  0.6089676E-006  0.8412920E+02  0.7818608E-02  0.1469220E+00
          2   -1    0    0  502    0  0.00000000000E+00  0.00000000000E+00  0.13349358891E+04  0.13349358891E+04  0.00000000000E+00 0. -1.
          1   -1    0    0  501    0 -0.00000000000E+00 -0.00000000000E+00 -0.49378619510E+03  0.49378619510E+03  0.00000000000E+00 0. -1.
         25    2    1    2    0    0  0.18593729576E+02  0.57086421912E+02  0.65297877906E+02  0.15327572035E+03  0.12500018897E+03 0.  0.
          2    1    1    2  501    0  0.98071621287E+01  0.22960489210E+02 -0.44797775982E+03  0.44867297421E+03  0.00000000000E+00 0. -1.
          1    1    1    2  502    0 -0.28400891704E+02 -0.80046911122E+02  0.12238295759E+04  0.12267733896E+04  0.00000000000E+00 0. -1.
         22    1    3    3    0    0  0.63085342777E+02  0.12989921520E+02  0.23226565270E+01  0.64450704168E+02  0.00000000000E+00 0.  1.
         22    1    3    3    0    0 -0.44491613201E+02  0.44096500391E+02  0.62975221379E+02  0.88825016182E+02  0.00000000000E+00 0.  1.
</event>
<event>
 7    1  0.6089676E-006  0.3025430E+02  0.7818608E-02  0.1629440E+00
          2   -1    0    0  502    0  0.00000000000E+00  0.00000000000E+00  0.47496916390E+03  0.47496916390E+03  0.00000000000E+00 0. -1.
          1   -1    0    0  501    0 -0.00000000000E+00 -0.00000000000E+00 -0.46476295102E+03  0.46476295102E+03  0.00000000000E+00 0. -1.
         25    2    1    2    0    0 -0.98542197488E+01  0.38283391104E+01  0.42281616609E+03  0.44103817388E+03  0.12501759351E+03 0.  0.
          2    1    1    2  501    0 -0.19095235470E+02  0.23466882729E+02 -0.44583333783E+03  0.44685868877E+03  0.00000000000E+00 0. -1.
          1    1    1    2  502    0  0.28949455219E+02 -0.27295221840E+02  0.33223384630E+02  0.51835252281E+02  0.00000000000E+00 0. -1.
         22    1    3    3    0    0  0.44393843173E+02 -0.16673269133E+02  0.77284277420E+02  0.90673429138E+02  0.00000000000E+00 0.  1.
         22    1    3    3    0    0 -0.54248062922E+02  0.20501608243E+02  0.34553188867E+03  0.35036474474E+03  0.00000000000E+00 0.  1.
</event>
<event>
 7    1  0.6089676E-006  0.5834071E+03  0.7818608E-02  0.1150464E+00
          2   -1    0    0  502    0  0.00000000000E+00  0.00000000000E+00  0.23240118659E+04  0.23240118659E+04  0.00000000000E+00 0. -1.
          1   -1    0    0  501    0 -0.00000000000E+00 -0.00000000000E+00 -0.13700810154E+04  0.13700810154E+04  0.00000000000E+00 0. -1.
         25    2    1    2    0    0 -0.53618923753E+03  0.18442910676E+03  0.82603131874E+03  0.10096858079E+04  0.12499878911E+03 0.  0.
          2    1    1    2  501    0  0.57109672977E+03 -0.12610036385E+03 -0.12104475535E+04  0.13443348007E+04  0.00000000000E+00 0. -1.
          1    1    1    2  502    0 -0.34907492240E+02 -0.58328742907E+02  0.13383470853E+04  0.13400722726E+04  0.00000000000E+00 0. -1.
         22    1    3    3    0    0 -0.50412061215E+03  0.20306679863E+03  0.76959030185E+03  0.94214805047E+03  0.00000000000E+00 0. -1.
         22    1    3    3    0    0 -0.32068625374E+02 -0.18637691865E+02  0.56441016883E+02  0.67537757427E+02  0.00000000000E+00 0. -1.
</event>
<event>
 7    1  0.6089676E-006  0.3746858E+02  0.7818608E-02  0.1603511E+00
          2   -1    0    0  502    0  0.00000000000E+00  0.00000000000E+00  0.20247483454E+03  0.20247483454E+03  0.00000000000E+00 0. -1.
          1   -1    0    0  501    0 -0.00000000000E+00 -0.00000000000E+00 -0.12275448023E+04  0.12275448023E+04  0.00000000000E+00 0. -1.
         25    2    1    2    0    0  0.41064290492E+02 -0.41751041435E+02 -0.91357888276E+03  0.92394897893E+03  0.12500366088E+03 0.  0.
          2    1    1    2  501    0 -0.98829761006E+01  0.21044942050E+02 -0.30656137722E+03  0.30744176816E+03  0.00000000000E+00 0. -1.
          1    1    1    2  502    0 -0.31181314391E+02  0.20706099385E+02  0.19507029224E+03  0.19862888973E+03  0.00000000000E+00 0. -1.
         22    1    3    3    0    0  0.61318184506E+02 -0.60779780050E+02 -0.85231355887E+03  0.85667526172E+03  0.00000000000E+00 0. -1.
         22    1    3    3    0    0 -0.20253894014E+02  0.19028738615E+02 -0.61265323886E+02  0.67273717207E+02  0.00000000000E+00 0. -1.
</event>
<event>
 7    1  0.6089676E-006  0.1302948E+03  0.7818608E-02  0.1307190E+00
          2   -1    0    0  502    0  0.00000000000E+00  0.00000000000E+00  0.10840047948E+04  0.10840047948E+04  0.00000000000E+00 0. -1.
          1   -1    0    0  501    0 -0.00000000000E+00 -0.00000000000E+00 -0.45838535207E+03  0.45838535207E+03  0.00000000000E+00 0. -1.
         25    2    1    2    0    0  0.36882681326E+02 -0.11554839790E+03  0.56847833057E+03  0.59456214378E+03  0.12499906418E+03 0.  0.
          2    1    1    2  501    0 -0.53835567679E+02 -0.25915789145E+02 -0.43315177638E+03  0.43725319651E+03  0.00000000000E+00 0. -1.
          1    1    1    2  502    0  0.16952886353E+02  0.14146418704E+03  0.49029288851E+03  0.51057480656E+03  0.00000000000E+00 0. -1.
         22    1    3    3    0    0  0.89480753976E+01 -0.12043798586E+03  0.54354657868E+03  0.55680181366E+03  0.00000000000E+00 0. -1.
         22    1    3    3    0    0  0.27934605928E+02  0.48895879617E+01  0.24931751890E+02  0.37760330125E+02  0.00000000000E+00 0. -1.
</event>
<event>
 7    1  0.6089676E-006  0.2013013E+03  0.7818608E-02  0.1184719E+00
          2   -1    0    0  502    0  0.00000000000E+00  0.00000000000E+00  0.22579781529E+04  0.22579781529E+04  0.00000000000E+00 0. -1.
          1   -1    0    0  501    0 -0.00000000000E+00 -0.00000000000E+00 -0.15117105524E+04  0.15117105524E+04  0.00000000000E+00 0. -1.
         25    2    1    2    0    0 -0.22879689842E+03  0.12522139643E+03 -0.38503882791E+03  0.48156813698E+03  0.12499821081E+03 0.  0.
          2    1    1    2  501    0  0.27815216831E+02 -0.12997559083E+03 -0.10697128013E+04  0.10779391530E+04  0.00000000000E+00 0. -1.
          1    1    1    2  502    0  0.20098168159E+03  0.47541943955E+01  0.22010192297E+04  0.22101814152E+04  0.00000000000E+00 0. -1.
         22    1    3    3    0    0 -0.93201337789E+02  0.11058298164E+03 -0.25483478703E+03  0.29301169579E+03  0.00000000000E+00 0.  1.
         22    1    3    3    0    0 -0.13559556063E+03  0.14638414798E+02 -0.13020404088E+03  0.18855644118E+03  0.00000000000E+00 0.  1.
</event>
<event>
 7    1  0.6089676E-006  0.3999900E+02  0.7818608E-02  0.1519569E+00
          2   -1    0    0  502    0  0.00000000000E+00  0.00000000000E+00  0.30531814287E+04  0.30531814287E+04  0.00000000000E+00 0. -1.
          1   -1    0    0  501    0 -0.00000000000E+00 -0.00000000000E+00 -0.34978422504E+02  0.34978422504E+02  0.00000000000E+00 0. -1.
         25    2    1    2    0    0 -0.15843458892E+02 -0.40787645604E+02  0.10654744705E+04  0.10736728716E+04  0.12499176227E+03 0.  0.
          2    1    1    2  501    0  0.36586563083E+02  0.58556637069E+01 -0.19479408708E+02  0.41860634960E+02  0.00000000000E+00 0. -1.
          1    1    1    2  502    0 -0.20743104191E+02  0.34931981897E+02  0.19722079444E+04  0.19726263446E+04  0.00000000000E+00 0. -1.
         22    1    3    3    0    0  0.16378906355E+02 -0.76337391189E+02  0.80822531559E+03  0.81198757788E+03  0.00000000000E+00 0. -1.
         22    1    3    3    0    0 -0.32222365247E+02  0.35549745586E+02  0.25724915495E+03  0.26168529373E+03  0.00000000000E+00 0. -1.
</event>
<event>
 7    1  0.6089676E-006  0.3635201E+02  0.7818608E-02  0.1554972E+00
          2   -1    0    0  502    0  0.00000000000E+00  0.00000000000E+00  0.22971227515E+04  0.22971227515E+04  0.00000000000E+00 0. -1.
          1   -1    0    0  501    0 -0.00000000000E+00 -0.00000000000E+00 -0.59490235818E+03  0.59490235818E+03  0.00000000000E+00 0. -1.
         25    2    1    2    0    0  0.38883144613E+02  0.25084138414E+02  0.78804735733E+03  0.79923980528E+03  0.12499806403E+03 0.  0.
          2    1    1    2  501    0 -0.30625443313E+02  0.10421767788E+02 -0.58864097088E+03  0.58952923898E+03  0.00000000000E+00 0. -1.
          1    1    1    2  502    0 -0.82577013005E+01 -0.35505906202E+02  0.15028140069E+04  0.15032560654E+04  0.00000000000E+00 0. -1.
         22    1    3    3    0    0  0.79205477909E+02  0.97062427281E+01  0.64228930681E+03  0.64722737312E+03  0.00000000000E+00 0. -1.
         22    1    3    3    0    0 -0.40322333296E+02  0.15377895686E+02  0.14575805052E+03  0.15201243216E+03  0.00000000000E+00 0. -1.
</event>
<event>
 7    1  0.6089676E-006  0.5996756E+02  0.7818608E-02  0.1429499E+00
          2   -1    0    0  502    0  0.00000000000E+00  0.00000000000E+00  0.93547470921E+03  0.93547470921E+03  0.00000000000E+00 0. -1.
          1   -1    0    0  501    0 -0.00000000000E+00 -0.00000000000E+00 -0.96970086266E+03  0.96970086266E+03  0.00000000000E+00 0. -1.
         25    2    1    2    0    0  0.45513270292E+02 -0.39340778645E+02  0.29320339307E+03  0.32436492861E+03  0.12500089029E+03 0.  0.
          2    1    1    2  501    0 -0.59780674582E+02 -0.53882270520E+01 -0.95229457515E+03  0.95418432176E+03  0.00000000000E+00 0. -1.
          1    1    1    2  502    0  0.14267404290E+02  0.44729005697E+02  0.62486502864E+03  0.62662632149E+03  0.00000000000E+00 0. -1.
         22    1    3    3    0    0 -0.17977874928E+02  0.35633662811E+02  0.98486327476E+02  0.10626626281E+03  0.00000000000E+00 0.  1.
         22    1    3    3    0    0  0.63491145220E+02 -0.74974441456E+02  0.19471706559E+03  0.21809866580E+03  0.00000000000E+00 0.  1.
</event>
<event>
 7    1  0.6089676E-006  0.2118231E+03  0.7818608E-02  0.1259454E+00
          2   -1    0    0  502    0  0.00000000000E+00  0.00000000000E+00  0.30534200704E+04  0.30534200704E+04  0.00000000000E+00 0. -1.
          1   -1    0    0  501    0 -0.00000000000E+00 -0.00000000000E+00 -0.28870491664E+02  0.28870491664E+02  0.00000000000E+00 0. -1.
         25    2    1    2    0    0 -0.17085101762E+03 -0.73516737166E+02  0.87146316506E+03  0.89981381867E+03  0.12498831683E+03 0.  0.
          2    1    1    2  501    0  0.22749262006E+03  0.84792087006E+02  0.10427784182E+04  0.10706677448E+04  0.00000000000E+00 0. -1.
          1    1    1    2  502    0 -0.56641602441E+02 -0.11275349840E+02  0.11103079954E+04  0.11118089986E+04  0.00000000000E+00 0. -1.
         22    1    3    3    0    0 -0.16894874977E+02 -0.25197198035E+02  0.28765883396E+02  0.41806837202E+02  0.00000000000E+00 0. -1.
         22    1    3    3    0    0 -0.15395614264E+03 -0.48319539131E+02  0.84269728166E+03  0.85800698146E+03  0.00000000000E+00 0. -1.
</event>
<event>
 7    1  0.6089676E-006  0.1352330E+03  0.7818608E-02  0.1340209E+00
          2   -1    0    0  502    0  0.00000000000E+00  0.00000000000E+00  0.15948644946E+03  0.15948644946E+03  0.00000000000E+00 0. -1.
          1   -1    0    0  501    0 -0.00000000000E+00 -0.00000000000E+00 -0.14800811684E+04  0.14800811684E+04  0.00000000000E+00 0. -1.
         25    2    1    2    0    0 -0.14445261610E+03  0.95562341842E+02 -0.27357078859E+03  0.34707980166E+03  0.12499877147E+03 0.  0.
          2    1    1    2  501    0  0.39061077658E+02 -0.17814014703E+02 -0.11342955195E+04  0.11351076744E+04  0.00000000000E+00 0. -1.
          1    1    1    2  502    0  0.10539153844E+03 -0.77748327140E+02  0.87271589183E+02  0.15738014178E+03  0.00000000000E+00 0. -1.
         22    1    3    3    0    0 -0.52969481995E+02  0.96662965696E+02 -0.91262181566E+02  0.14310234360E+03  0.00000000000E+00 0. -1.
         22    1    3    3    0    0 -0.91483134107E+02 -0.11006238532E+01 -0.18230860703E+03  0.20397745806E+03  0.00000000000E+00 0. -1.
</event>
<event>
 7    1  0.6089676E-006  0.2115486E+03  0.7818608E-02  0.1287508E+00
          2   -1    0    0  502    0  0.00000000000E+00  0.00000000000E+00  0.51541918810E+02  0.51541918810E+02  0.00000000000E+00 0. -1.
          1   -1    0    0  501    0 -0.00000000000E+00 -0.00000000000E+00 -0.24921525325E+04  0.24921525325E+04  0.00000000000E+00 0. -1.
         25    2    1    2    0    0 -0.18548215222E+03  0.57374440580E+02 -0.14210921011E+04  0.14397303629E+04  0.12500121137E+03 0.  0.
          2    1    1    2  501    0 -0.28714815709E+02 -0.33541496431E+02 -0.78198182686E+03  0.78322739365E+03  0.00000000000E+00 0. -1.
          1    1    1    2  502    0  0.21419696793E+03 -0.23832944149E+02 -0.23753668575E+03  0.32073669477E+03  0.00000000000E+00 0. -1.
         22    1    3    3    0    0  0.10976467609E+02 -0.17519270838E+01 -0.14580070385E+02  0.18333863262E+02  0.00000000000E+00 0. -1.
         22    1    3    3    0    0 -0.19645861983E+03  0.59126367663E+02 -0.14065120307E+04  0.14213964996E+04  0.00000000000E+00 0. -1.
</event>
<event>
 7    1  0.6089676E-006  0.1179393E+03  0.7818608E-02  0.1382077E+00
          2   -1    0    0  502    0  0.00000000000E+00  0.00000000000E+00  0.20894273503E+04  0.20894273503E+04  0.00000000000E+00 0. -1.
          1   -1    0    0  501    0 -0.00000000000E+00 -0.00000000000E+00 -0.45621254581E+03  0.45621254581E+03  0.00000000000E+00 0. -1.
         25    2    1    2    0    0 -0.11862937278E+03 -0.77159773322E+02  0.70474862914E+03  0.72960435183E+03  0.12500128495E+03 0.  0.
          2    1    1    2  501    0  0.84341300160E+02  0.82112927854E+02 -0.43575532655E+03  0.45137422661E+03  0.00000000000E+00 0. -1.
          1    1    1    2  502    0  0.34288072616E+02 -0.49531545316E+01  0.13642215019E+04  0.13646613176E+04  0.00000000000E+00 0. -1.
         22    1    3    3    0    0  0.98478667214E+01  0.18443905658E+02  0.17314092499E+03  0.17439879025E+03  0.00000000000E+00 0.  1.
         22    1    3    3    0    0 -0.12847723950E+03 -0.95603678980E+02  0.53160770415E+03  0.55520556158E+03  0.00000000000E+00 0.  1.
</event>
<event>
 7    1  0.6089676E-006  0.3621200E+02  0.7818608E-02  0.1551337E+00
          2   -1    0    0  502    0  0.00000000000E+00  0.00000000000E+00  0.18989469103E+04  0.18989469103E+04  0.00000000000E+00 0. -1.
          1   -1    0    0  501    0 -0.00000000000E+00 -0.00000000000E+00 -0.47545891799E+02  0.47545891799E+02  0.00000000000E+00 0. -1.
         25    2    1    2    0    0  0.55659203014E+02 -0.21043391576E+02  0.24707569208E+03  0.28322214668E+03  0.12501046173E+03 0.  0.
          2    1    1    2  501    0 -0.32571640383E+02 -0.66279239381E+01 -0.19837042406E+02  0.38708518240E+02  0.00000000000E+00 0. -1.
          1    1    1    2  502    0 -0.23087562631E+02  0.27671315514E+02  0.16241623688E+04  0.16245621371E+04  0.00000000000E+00 0. -1.
         22    1    3    3    0    0 -0.13388114582E+02  0.30030868364E+01 -0.93321616133E+01  0.16593654901E+02  0.00000000000E+00 0. -1.
         22    1    3    3    0    0  0.69047317596E+02 -0.24046478413E+02  0.25640785369E+03  0.26662849178E+03  0.00000000000E+00 0. -1.
</event>
<event>
 7    1  0.6089676E-006  0.9415249E+02  0.7818608E-02  0.1300196E+00
          2   -1    0    0  502    0  0.00000000000E+00  0.00000000000E+00  0.57118766526E+03  0.57118766526E+03  0.00000000000E+00 0. -1.
          1   -1    0    0  501    0 -0.00000000000E+00 -0.00000000000E+00 -0.94188360484E+03  0.94188360484E+03  0.00000000000E+00 0. -1.
         25    2    1    2    0    0 -0.17240541578E+03 -0.32969614992E+02 -0.11497871301E+03  0.24425193412E+03  0.12501311921E+03 0.  0.
          2    1    1    2  501    0  0.90854318363E+02 -0.51481502050E+00 -0.75569085509E+03  0.76113299802E+03  0.00000000000E+00 0. -1.
          1    1    1    2  502    0  0.81551097414E+02  0.33484430012E+02  0.49997362852E+03  0.50768633797E+03  0.00000000000E+00 0. -1.
         22    1    3    3    0    0  0.96050818657E+01 -0.18090667475E+02  0.10168462865E+02  0.22867607754E+02  0.00000000000E+00 0.  1.
         22    1    3    3    0    0 -0.18201049764E+03 -0.14878947517E+02 -0.12514717588E+03  0.22138432637E+03  0.00000000000E+00 0.  1.
</event>
<event>
 7    1  0.6089676E-006  0.7819377E+02  0.7818608E-02  0.1351006E+00
          2   -1    0    0  502    0  0.00000000000E+00  0.00000000000E+00  0.16731369945E+04  0.16731369945E+04  0.00000000000E+00 0. -1.
          1   -1    0    0  501    0 -0.00000000000E+00 -0.00000000000E+00 -0.20682290380E+03  0.20682290380E+03  0.00000000000E+00 0. -1.
         25    2    1    2    0    0 -0.32387805554E+02 -0.35096297928E+02  0.29173509093E+03  0.32095947868E+03  0.12499961438E+03 0.  0.
          2    1    1    2  501    0  0.50136697995E+02 -0.45451657216E+02 -0.18496549701E+03  0.19695628122E+03  0.00000000000E+00 0. -1.
          1    1    1    2  502    0 -0.17748892441E+02  0.80547955144E+02  0.13595444968E+04  0.13620441384E+04  0.00000000000E+00 0. -1.
         22    1    3    3    0    0 -0.70640192027E+02  0.12725308566E+02  0.17471346392E+03  0.18888293910E+03  0.00000000000E+00 0.  1.
         22    1    3    3    0    0  0.38252386473E+02 -0.47821606494E+02  0.11702162701E+03  0.13207653958E+03  0.00000000000E+00 0.  1.
</event>
<event>
 7    1  0.6089676E-006  0.6641680E+02  0.7818608E-02  0.1385699E+00
          2   -1    0    0  502    0  0.00000000000E+00  0.00000000000E+00  0.16788413113E+04  0.16788413113E+04  0.00000000000E+00 0. -1.
          1   -1    0    0  501    0 -0.00000000000E+00 -0.00000000000E+00 -0.15518495893E+04  0.15518495893E+04  0.00000000000E+00 0. -1.
         25    2    1    2    0    0 -0.34979058012E+02 -0.72446781932E+02  0.22896469938E+03  0.27298780523E+03  0.12500175011E+03 0.  0.
          2    1    1    2  501    0 -0.28721216442E+02  0.52380858794E+02 -0.15284732924E+04  0.15296402414E+04  0.00000000000E+00 0. -1.
          1    1    1    2  502    0  0.63700274453E+02  0.20065923138E+02  0.14265003149E+04  0.14280628539E+04  0.00000000000E+00 0. -1.
         22    1    3    3    0    0 -0.56242488383E+01  0.35787669075E+02  0.48915922041E+02  0.60869999687E+02  0.00000000000E+00 0.  1.
         22    1    3    3    0    0 -0.29354809173E+02 -0.10823445101E+03  0.18004877734E+03  0.21211780554E+03  0.00000000000E+00 0.  1.
</event>
<event>
 7    1  0.6089676E-006  0.7950195E+02  0.7818608E-02  0.1337296E+00
          2   -1    0    0  502    0  0.00000000000E+00  0.00000000000E+00  0.73782710029E+03  0.73782710029E+03  0.00000000000E+00 0. -1.
          1   -1    0    0  501    0 -0.00000000000E+00 -0.00000000000E+00 -0.76983604706E+02  0.76983604706E+02  0.00000000000E+00 0. -1.
         25    2    1    2    0    0 -0.53000529671E+02  0.19829179287E+01  0.14516147380E+03  0.19877146741E+03  0.12500101868E+03 0.  0.
          2    1    1    2  501    0  0.39828420366E+02  0.76420246429E+02 -0.78241000126E+01  0.86530767211E+02  0.00000000000E+00 0. -1.
          1    1    1    2  502    0  0.13172109305E+02 -0.78403164357E+02  0.52350612179E+03  0.52950847038E+03  0.00000000000E+00 0. -1.
         22    1    3    3    0    0  0.29586570639E+02  0.18062170680E+02  0.46216568407E+01  0.34970943421E+02  0.00000000000E+00 0. -1.
         22    1    3    3    0    0 -0.82587100310E+02 -0.16079252751E+02  0.14053981696E+03  0.16380052399E+03  0.00000000000E+00 0. -1.
</event>
<event>
 7    1  0.6089676E-006  0.6316743E+02  0.7818608E-02  0.1398582E+00
          2   -1    0    0  502    0  0.00000000000E+00  0.00000000000E+00  0.15052702080E+04  0.15052702080E+04  0.00000000000E+00 0. -1.
          1   -1    0    0  501    0 -0.00000000000E+00 -0.00000000000E+00 -0.75254441986E+03  0.75254441986E+03  0.00000000000E+00 0. -1.
         25    2    1    2    0    0 -0.75090840332E+02  0.62705108350E+02 -0.33872664882E+02  0.16230511480E+03  0.12500011180E+03 0.  0.
          2    1    1    2  501    0  0.62259751558E+02 -0.75242013727E+01 -0.65239450645E+03  0.65540177168E+03  0.00000000000E+00 0. -1.
          1    1    1    2  502    0  0.12831088773E+02 -0.55180906978E+02  0.14389929594E+04  0.14401077413E+04  0.00000000000E+00 0. -1.
         22    1    3    3    0    0 -0.48652407881E+02  0.77155071821E+02 -0.70206593535E+02  0.11510398636E+03  0.00000000000E+00 0. -1.
         22    1    3    3    0    0 -0.26438432451E+02 -0.14449963471E+02  0.36333928652E+02  0.47201128440E+02  0.00000000000E+00 0. -1.
</event>
<event>
 7    1  0.6089676E-006  0.1462596E+03  0.7818608E-02  0.1326883E+00
          2   -1    0    0  502    0  0.00000000000E+00  0.00000000000E+00  0.12252045593E+03  0.12252045593E+03  0.00000000000E+00 0. -1.
          1   -1    0    0  501    0 -0.00000000000E+00 -0.00000000000E+00 -0.27707250599E+04  0.27707250599E+04  0.00000000000E+00 0. -1.
         25    2    1    2    0    0  0.63752106751E+02  0.10866090791E+03 -0.47095877731E+03  0.50329223653E+03  0.12501752440E+03 0.  0.
          2    1    1    2  501    0 -0.26854113016E+02  0.35613386550E+02 -0.22311379844E+04  0.22315837789E+04  0.00000000000E+00 0. -1.
          1    1    1    2  502    0 -0.36897993735E+02 -0.14427429447E+03  0.53892157766E+02  0.15836950039E+03  0.00000000000E+00 0. -1.
         22    1    3    3    0    0  0.19514290259E+02  0.19620862540E+02 -0.66538402444E+01  0.28461541791E+02  0.00000000000E+00 0.  1.
         22    1    3    3    0    0  0.44237816492E+02  0.89040045374E+02 -0.46430493706E+03  0.47483069474E+03  0.00000000000E+00 0.  1.
</event>
<event>
 7    1  0.6089676E-006  0.1012129E+03  0.7818608E-02  0.1348400E+00
          2   -1    0    0  502    0  0.00000000000E+00  0.00000000000E+00  0.12017989671E+04  0.12017989671E+04  0.00000000000E+00 0. -1.
          1   -1    0    0  501    0 -0.00000000000E+00 -0.00000000000E+00 -0.10781436007E+03  0.10781436007E+03  0.00000000000E+00 0. -1.
         25    2    1    2    0    0 -0.69452576240E+02  0.95324901528E+02  0.29036254164E+03  0.33741491931E+03  0.12501169939E+03 0.  0.
          2    1    1    2  501    0 -0.20057656923E+02 -0.49551911949E+02 -0.72638749815E+02  0.90189187566E+02  0.00000000000E+00 0. -1.
          1    1    1    2  502    0  0.89510233163E+02 -0.45772989579E+02  0.87626081517E+03  0.88200922026E+03  0.00000000000E+00 0. -1.
         22    1    3    3    0    0 -0.62079311592E+02  0.30350887416E+02  0.25264760486E+03  0.26192714548E+03  0.00000000000E+00 0.  1.
         22    1    3    3    0    0 -0.73732646482E+01  0.64974014113E+02  0.37714936777E+02  0.75487773828E+02  0.00000000000E+00 0.  1.
</event>
<event>
 7    1  0.6089676E-006  0.6109600E+02  0.7818608E-02  0.1458636E+00
          2   -1    0    0  502    0  0.00000000000E+00  0.00000000000E+00  0.75101743274E+03  0.75101743274E+03  0.00000000000E+00 0. -1.
          1   -1    0    0  501    0 -0.00000000000E+00 -0.00000000000E+00 -0.79727014102E+03  0.79727014102E+03  0.00000000000E+00 0. -1.
         25    2    1    2    0    0 -0.57999372134E+01  0.34147343521E+02  0.15812052041E+03  0.20448504850E+03  0.12494941273E+03 0.  0.
          2    1    1    2  501    0  0.26751756088E+02  0.25722017314E+02 -0.77187517230E+03  0.77276682139E+03  0.00000000000E+00 0. -1.
          1    1    1    2  502    0 -0.20951818875E+02 -0.59869360836E+02  0.56750194361E+03  0.57103570386E+03  0.00000000000E+00 0. -1.
         22    1    3    3    0    0 -0.43580565012E+02 -0.30650642014E+02  0.51317903587E+02  0.73974689801E+02  0.00000000000E+00 0. -1.
         22    1    3    3    0    0  0.37780627799E+02  0.64797985536E+02  0.10680261683E+03  0.13051035870E+03  0.00000000000E+00 0. -1.
</event>
<event>
 7    1  0.6089676E-006  0.4064003E+02  0.7818608E-02  0.1525960E+00
          2   -1    0    0  502    0  0.00000000000E+00  0.00000000000E+00  0.16794545341E+04  0.16794545341E+04  0.00000000000E+00 0. -1.
          1   -1    0    0  501    0 -0.00000000000E+00 -0.00000000000E+00 -0.16526606418E+02  0.16526606418E+02  0.00000000000E+00 0. -1.
         25    2    1    2    0    0 -0.21522708270E+02  0.35136438216E+01  0.74322319828E+03  0.75397728293E+03  0.12500179214E+03 0.  0.
          2    1    1    2  501    0  0.17779999377E+02 -0.38260366854E+02  0.30372700107E+02  0.51985430281E+02  0.00000000000E+00 0. -1.
          1    1    1    2  502    0  0.37427088925E+01  0.34746723032E+02  0.88933202931E+03  0.89001842733E+03  0.00000000000E+00 0. -1.
         22    1    3    3    0    0  0.14369403760E+02  0.56977527774E+02  0.26490944133E+03  0.27134835644E+03  0.00000000000E+00 0.  1.
         22    1    3    3    0    0 -0.35892112030E+02 -0.53463883952E+02  0.47831375695E+03  0.48262892648E+03  0.00000000000E+00 0.  1.
</event>
<event>
 7    1  0.6089676E-006  0.6258881E+02  0.7818608E-02  0.1471313E+00
          2   -1    0    0  502    0  0.00000000000E+00  0.00000000000E+00  0.63843252295E+03  0.63843252295E+03  0.00000000000E+00 0. -1.
          1   -1    0    0  501    0 -0.00000000000E+00 -0.00000000000E+00 -0.28090325541E+03  0.28090325541E+03  0.00000000000E+00 0. -1.
         25    2    1    2    0    0 -0.45981127799E+02 -0.19808406679E+02 -0.37189721954E+02  0.13969693882E+03  0.12500208881E+03 0.  0.
          2    1    1    2  501    0 -0.16350173347E+02  0.28734786004E+02 -0.18933530353E+03  0.19220008652E+03  0.00000000000E+00 0. -1.
          1    1    1    2  502    0  0.62331301147E+02 -0.89263793253E+01  0.58405429302E+03  0.58743875302E+03  0.00000000000E+00 0. -1.
         22    1    3    3    0    0  0.47263524344E+01  0.47471817865E+02 -0.25416020542E+00  0.47707195434E+02  0.00000000000E+00 0.  1.
         22    1    3    3    0    0 -0.50707480234E+02 -0.67280224544E+02 -0.36935561749E+02  0.91989743385E+02  0.00000000000E+00 0.  1.
</event>
<event>
 7    1  0.6089676E-006  0.1297621E+03  0.7818608E-02  0.1347384E+00
          2   -1    0    0  502    0  0.00000000000E+00  0.00000000000E+00  0.92416618020E+03  0.92416618020E+03  0.00000000000E+00 0. -1.
          1   -1    0    0  501    0 -0.00000000000E+00 -0.00000000000E+00 -0.28191655919E+03  0.28191655919E+03  0.00000000000E+00 0. -1.
         25    2    1    2    0    0  0.84062098702E+02  0.14168317998E+03  0.77229409460E+02  0.22076833108E+03  0.12503485273E+03 0.  0.
          2    1    1    2  501    0 -0.52160522637E+01 -0.41735534277E+02 -0.20274743209E+03  0.20706420077E+03  0.00000000000E+00 0. -1.
          1    1    1    2  502    0 -0.78846046438E+02 -0.99947645699E+02  0.76776764364E+03  0.77825020754E+03  0.00000000000E+00 0. -1.
         22    1    3    3    0    0 -0.40745083068E+01 -0.59615596964E+01  0.45307960513E+02  0.45879767848E+02  0.00000000000E+00 0. -1.
         22    1    3    3    0    0  0.88136607009E+02  0.14764473967E+03  0.31921448947E+02  0.17488856324E+03  0.00000000000E+00 0. -1.
</event>
<event>
 7    1  0.6089676E-006  0.1128866E+03  0.7818608E-02  0.1352015E+00
          2   -1    0    0  502    0  0.00000000000E+00  0.00000000000E+00  0.73596089929E+03  0.73596089929E+03  0.00000000000E+00 0. -1.
          1   -1    0    0  501    0 -0.00000000000E+00 -0.00000000000E+00 -0.16435528745E+04  0.16435528745E+04  0.00000000000E+00 0. -1.
         25    2    1    2    0    0  0.26276689773E+02  0.14627559383E+03 -0.14819211776E+03  0.24428132119E+03  0.12500178534E+03 0.  0.
          2    1    1    2  501    0  0.17521027531E+02 -0.43044699211E+02 -0.14423695013E+04  0.14431180169E+04  0.00000000000E+00 0. -1.
          1    1    1    2  502    0 -0.43797717304E+02 -0.10323089461E+03  0.68296964385E+03  0.69211443567E+03  0.00000000000E+00 0. -1.
         22    1    3    3    0    0  0.98056510884E+01  0.15128916070E+03 -0.16224726337E+03  0.22205570340E+03  0.00000000000E+00 0. -1.
         22    1    3    3    0    0  0.16471038685E+02 -0.50135668753E+01  0.14055145607E+02  0.22225617791E+02  0.00000000000E+00 0. -1.
</event>
<event>
 7    1  0.6089676E-006  0.9492782E+02  0.7818608E-02  0.1300416E+00
          2   -1    0    0  502    0  0.00000000000E+00  0.00000000000E+00  0.66806202068E+03  0.66806202068E+03  0.00000000000E+00 0. -1.
          1   -1    0    0  501    0 -0.00000000000E+00 -0.00000000000E+00 -0.16320092948E+03  0.16320092948E+03  0.00000000000E+00 0. -1.
         25    2    1    2    0    0 -0.15420229537E+02 -0.54228391487E+01  0.35034724305E+02  0.13084911273E+03  0.12500747070E+03 0.  0.
          2    1    1    2  501    0  0.10937960069E+03  0.18947907969E+02 -0.83560892964E+02  0.13894366879E+03  0.00000000000E+00 0. -1.
          1    1    1    2  502    0 -0.93959371155E+02 -0.13525068821E+02  0.55338725985E+03  0.56147016865E+03  0.00000000000E+00 0. -1.
         22    1    3    3    0    0  0.88312724054E+01  0.57726883258E+02  0.14886452348E+02  0.60266001082E+02  0.00000000000E+00 0.  1.
         22    1    3    3    0    0 -0.24251501942E+02 -0.63149722406E+02  0.20148271956E+02  0.70583111643E+02  0.00000000000E+00 0.  1.
</event>
<event>
 7    1  0.6089676E-006  0.1493176E+03  0.7818608E-02  0.1274605E+00
          2   -1    0    0  502    0  0.00000000000E+00  0.00000000000E+00  0.97482599227E+03  0.97482599227E+03  0.00000000000E+00 0. -1.
          1   -1    0    0  501    0 -0.00000000000E+00 -0.00000000000E+00 -0.56710631837E+03  0.56710631837E+03  0.00000000000E+00 0. -1.
         25    2    1    2    0    0  0.21661906002E+03  0.17704550385E+02 -0.60268567713E+02  0.25786532579E+03  0.12499983089E+03 0.  0.
          2    1    1    2  501    0 -0.70253158309E+02 -0.80585297299E+01 -0.39876658679E+03  0.40498794661E+03  0.00000000000E+00 0. -1.
          1    1    1    2  502    0 -0.14636590171E+03 -0.96460206552E+01  0.86675482841E+03  0.87907903824E+03  0.00000000000E+00 0. -1.
         22    1    3    3    0    0  0.11457174896E+03 -0.51980161227E+02 -0.17084206932E+02  0.12696650325E+03  0.00000000000E+00 0. -1.
         22    1    3    3    0    0  0.10204731106E+03  0.69684711612E+02 -0.43184360781E+02  0.13089882254E+03  0.00000000000E+00 0. -1.
</event>
<event>
 7    1  0.6089676E-006  0.7201565E+02  0.7818608E-02  0.1406282E+00
          2   -1    0    0  502    0  0.00000000000E+00  0.00000000000E+00  0.14367340504E+04  0.14367340504E+04  0.00000000000E+00 0. -1.
          1   -1    0    0  501    0 -0.00000000000E+00 -0.00000000000E+00 -0.57211494950E+02  0.57211494950E+02  0.00000000000E+00 0. -1.
         25    2    1    2    0    0 -0.25792585986E+02  0.39990943159E+02  0.66198295970E+03  0.67536387494E+03  0.12502156461E+03 0.  0.
          2    1    1    2  501    0 -0.72795549379E+01 -0.73051979289E+02 -0.22717998653E+02  0.76848494200E+02  0.00000000000E+00 0. -1.
          1    1    1    2  502    0  0.33072140924E+02  0.33061036130E+02  0.74025759444E+03  0.74173317625E+03  0.00000000000E+00 0. -1.
         22    1    3    3    0    0 -0.21653276106E+02 -0.42749327117E+02  0.31525836173E+03  0.31887960734E+03  0.00000000000E+00 0. -1.
         22    1    3    3    0    0 -0.41393098802E+01  0.82740270276E+02  0.34672459796E+03  0.35648426760E+03  0.00000000000E+00 0. -1.
</event>
<event>
 7    1  0.6089676E-006  0.1658178E+03  0.7818608E-02  0.1312134E+00
          2   -1    0    0  502    0  0.00000000000E+00  0.00000000000E+00  0.30471396590E+04  0.30471396590E+04  0.00000000000E+00 0. -1.
          1   -1    0    0  501    0 -0.00000000000E+00 -0.00000000000E+00 -0.50930680442E+02  0.50930680442E+02  0.00000000000E+00 0. -1.
         25    2    1    2    0    0 -0.75706201316E+02  0.15242619444E+03  0.88458130209E+03  0.90943659242E+03  0.12500264774E+03 0.  0.
          2    1    1    2  501    0 -0.34653996933E+02 -0.28531145539E+02 -0.21002943705E+02  0.49558545312E+02  0.00000000000E+00 0. -1.
          1    1    1    2  502    0  0.11036019825E+03 -0.12389504890E+03  0.21326306202E+04  0.21390752017E+04  0.00000000000E+00 0. -1.
         22    1    3    3    0    0 -0.65241484774E+02  0.69270501370E+02  0.70342425800E+03  0.70983134647E+03  0.00000000000E+00 0.  1.
         22    1    3    3    0    0 -0.10464716542E+02  0.83155693071E+02  0.18115704410E+03  0.19960524595E+03  0.00000000000E+00 0.  1.
</event>
<event>
 7    1  0.6089676E-006  0.5712427E+02  0.7818608E-02  0.1411440E+00
          2   -1    0    0  502    0  0.00000000000E+00  0.00000000000E+00  0.46425585389E+03  0.46425585389E+03  0.00000000000E+00 0. -1.
          1   -1    0    0  501    0 -0.00000000000E+00 -0.00000000000E+00 -0.12896544505E+03  0.12896544505E+03  0.00000000000E+00 0. -1.
         25    2    1    2    0    0 -0.35111455567E+02 -0.15901547118E+02  0.10146487072E+03  0.16554595208E+03  0.12499867498E+03 0.  0.
          2    1    1    2  501    0 -0.18199230107E+01  0.59481990827E+02 -0.85006305304E+02  0.10376652299E+03  0.00000000000E+00 0. -1.
          1    1    1    2  502    0  0.36931378578E+02 -0.43580443709E+02  0.31883184343E+03  0.32390882387E+03  0.00000000000E+00 0. -1.
         22    1    3    3    0    0 -0.49302955048E+02  0.45736589072E+02  0.57929762994E+02  0.88760770596E+02  0.00000000000E+00 0. -1.
         22    1    3    3    0    0  0.14191499481E+02 -0.61638136189E+02  0.43535107730E+02  0.76785181483E+02  0.00000000000E+00 0. -1.
</event>
<event>
 7    1  0.6089676E-006  0.3455106E+03  0.7818608E-02  0.1208426E+00
          2   -1    0    0  502    0  0.00000000000E+00  0.00000000000E+00  0.12039834420E+04  0.12039834420E+04  0.00000000000E+00 0. -1.
          1   -1    0    0  501    0 -0.00000000000E+00 -0.00000000000E+00 -0.94314818690E+03  0.94314818690E+03  0.00000000000E+00 0. -1.
         25    2    1    2    0    0 -0.40555506647E+02 -0.31119595688E+03  0.20748718025E+03  0.39643835436E+03  0.12499906455E+03 0.  0.
          2    1    1    2  501    0 -0.52394274366E+01  0.34960783710E+03 -0.81158433990E+03  0.88369804353E+03  0.00000000000E+00 0. -1.
          1    1    1    2  502    0  0.45794934083E+02 -0.38411880222E+02  0.86493241478E+03  0.86699523105E+03  0.00000000000E+00 0. -1.
         22    1    3    3    0    0 -0.76128325624E+02 -0.25733438097E+03  0.19224977110E+03  0.33011585857E+03  0.00000000000E+00 0.  1.
         22    1    3    3    0    0  0.35572818978E+02 -0.53861575910E+02  0.15237409152E+02  0.66322495785E+02  0.00000000000E+00 0.  1.
</event>
<event>
 7    1  0.6089676E-006  0.9566804E+02  0.7818608E-02  0.1382231E+00
          2   -1    0    0  502    0  0.00000000000E+00  0.00000000000E+00  0.40844323086E+03  0.40844323086E+03  0.00000000000E+00 0. -1.
          1   -1    0    0  501    0 -0.00000000000E+00 -0.00000000000E+00 -0.42677635213E+03  0.42677635213E+03  0.00000000000E+00 0. -1.
         25    2    1    2    0    0 -0.12938963724E+02  0.75150671816E+02  0.17180101041E+03  0.22573306799E+03  0.12499916220E+03 0.  0.
          2    1    1    2  501    0 -0.38225730788E+02  0.18928955733E+02 -0.38488036396E+03  0.38723688670E+03  0.00000000000E+00 0. -1.
          1    1    1    2  502    0  0.51164694512E+02 -0.94079627549E+02  0.19474623228E+03  0.22224962828E+03  0.00000000000E+00 0. -1.
         22    1    3    3    0    0 -0.19449948456E+02 -0.24949766557E+02  0.92810041998E+02  0.98053532531E+02  0.00000000000E+00 0.  1.
         22    1    3    3    0    0  0.65109847324E+01  0.10010043837E+03  0.78990968417E+02  0.12767953546E+03  0.00000000000E+00 0.  1.
</event>
<event>
 7    1  0.6089676E-006  0.8051585E+02  0.7818608E-02  0.1361888E+00
          2   -1    0    0  502    0  0.00000000000E+00  0.00000000000E+00  0.11996614973E+04  0.11996614973E+04  0.00000000000E+00 0. -1.
          1   -1    0    0  501    0 -0.00000000000E+00 -0.00000000000E+00 -0.13364371577E+03  0.13364371577E+03  0.00000000000E+00 0. -1.
         25    2    1    2    0    0 -0.50999358553E+02  0.34506783112E+02  0.75833289456E+03  0.77102976300E+03  0.12500585508E+03 0.  0.
          2    1    1    2  501    0  0.12251003607E+02 -0.80248676237E+02 -0.11200289725E+03  0.13832782121E+03  0.00000000000E+00 0. -1.
          1    1    1    2  502    0  0.38748354946E+02  0.45741893125E+02  0.41968778421E+03  0.42394762885E+03  0.00000000000E+00 0. -1.
         22    1    3    3    0    0 -0.73539933327E+01  0.35494070019E+02  0.52214348589E+02  0.63562948508E+02  0.00000000000E+00 0.  1.
         22    1    3    3    0    0 -0.43645365220E+02 -0.98728690627E+00  0.70611854597E+03  0.70746681449E+03  0.00000000000E+00 0.  1.
</event>
<event>
 7    1  0.6089676E-006  0.4878651E+02  0.7818608E-02  0.1481445E+00
          2   -1    0    0  502    0  0.00000000000E+00  0.00000000000E+00  0.30457579920E+04  0.30457579920E+04  0.00000000000E+00 0. -1.
          1   -1    0    0  501    0 -0.00000000000E+00 -0.00000000000E+00 -0.13505980547E+03  0.13505980547E+03  0.00000000000E+00 0. -1.
         25    2    1    2    0    0 -0.28580413508E+02 -0.13174278315E+02  0.41434146212E+03  0.43392732093E+03  0.12499468376E+03 0.  0.
          2    1    1    2  501    0  0.10135586103E+02  0.48069827434E+02 -0.12029571566E+03  0.12994036178E+03  0.00000000000E+00 0. -1.
          1    1    1    2  502    0  0.18444827405E+02 -0.34895549119E+02  0.26166524400E+04  0.26169501147E+04  0.00000000000E+00 0. -1.
         22    1    3    3    0    0  0.27756325625E+02  0.39191261782E+02  0.21414016604E+03  0.21945928853E+03  0.00000000000E+00 0. -1.
         22    1    3    3    0    0 -0.56336739133E+02 -0.52365540096E+02  0.20020129608E+03  0.21446803239E+03  0.00000000000E+00 0. -1.
</event>
<event>
 7    1  0.6089676E-006  0.2117092E+03  0.7818608E-02  0.1224216E+00
          2   -1    0    0  502    0  0.00000000000E+00  0.00000000000E+00  0.21116813089E+04  0.21116813089E+04  0.00000000000E+00 0. -1.
          1   -1    0    0  501    0 -0.00000000000E+00 -0.00000000000E+00 -0.62894938484E+03  0.62894938484E+03  0.00000000000E+00 0. -1.
         25    2    1    2    0    0  0.15555178370E+03  0.23800698643E+03  0.24566841944E+03  0.39600791475E+03  0.12500245292E+03 0.  0.
          2    1    1    2  501    0 -0.13404509766E+03 -0.15829659758E+03 -0.53336009121E+03  0.57227518547E+03  0.00000000000E+00 0. -1.
          1    1    1    2  502    0 -0.21506686040E+02 -0.79710388850E+02  0.17704235958E+04  0.17723475935E+04  0.00000000000E+00 0. -1.
         22    1    3    3    0    0  0.16541029496E+03  0.16273205439E+03  0.20631442830E+03  0.31049626493E+03  0.00000000000E+00 0. -1.
         22    1    3    3    0    0 -0.98585112686E+01  0.75274932032E+02  0.39353991136E+02  0.85511649821E+02  0.00000000000E+00 0. -1.
</event>
<event>
 7    1  0.6089676E-006  0.5594660E+02  0.7818608E-02  0.1471121E+00
          2   -1    0    0  502    0  0.00000000000E+00  0.00000000000E+00  0.98579530397E+02  0.98579530397E+02  0.00000000000E+00 0. -1.
          1   -1    0    0  501    0 -0.00000000000E+00 -0.00000000000E+00 -0.13594110741E+04  0.13594110741E+04  0.00000000000E+00 0. -1.
         25    2    1    2    0    0 -0.10622613697E+02  0.23626746933E+02 -0.65507371025E+03  0.66739503319E+03  0.12499400539E+03 0.  0.
          2    1    1    2  501    0  0.28334364845E+02 -0.56153691441E+02 -0.69298378875E+03  0.69583231081E+03  0.00000000000E+00 0. -1.
          1    1    1    2  502    0 -0.17711751148E+02  0.32526944508E+02  0.87225955336E+02  0.94763260455E+02  0.00000000000E+00 0. -1.
         22    1    3    3    0    0 -0.54529826665E+02 -0.85858245097E+01 -0.49999332119E+03  0.50303135053E+03  0.00000000000E+00 0. -1.
         22    1    3    3    0    0  0.43907212969E+02  0.32212571442E+02 -0.15508038906E+03  0.16436368266E+03  0.00000000000E+00 0. -1.
</event>
<event>
 7    1  0.6089676E-006  0.1823697E+03  0.7818608E-02  0.1302898E+00
          2   -1    0    0  502    0  0.00000000000E+00  0.00000000000E+00  0.22519806212E+04  0.22519806212E+04  0.00000000000E+00 0. -1.
          1   -1    0    0  501    0 -0.00000000000E+00 -0.00000000000E+00 -0.41943899300E+03  0.41943899300E+03  0.00000000000E+00 0. -1.
         25    2    1    2    0    0  0.27701910667E+02 -0.21460958319E+03  0.70584747936E+03  0.74878695048E+03  0.12504624757E+03 0.  0.
          2    1    1    2  501    0 -0.47833835358E+02  0.17504015080E+03 -0.37694010550E+03  0.41834312870E+03  0.00000000000E+00 0. -1.
          1    1    1    2  502    0  0.20131924691E+02  0.39569432386E+02  0.15036342544E+04  0.15042895351E+04  0.00000000000E+00 0. -1.
         22    1    3    3    0    0 -0.36138387099E+02 -0.16540855884E+03  0.47470410492E+03  0.50399400948E+03  0.00000000000E+00 0.  1.
         22    1    3    3    0    0  0.63840297766E+02 -0.49201024350E+02  0.23114337444E+03  0.24479294100E+03  0.00000000000E+00 0.  1.
</event>
<event>
 7    1  0.6089676E-006  0.5418968E+02  0.7818608E-02  0.1540395E+00
          2   -1    0    0  502    0  0.00000000000E+00  0.00000000000E+00  0.88174137205E+03  0.88174137205E+03  0.00000000000E+00 0. -1.
          1   -1    0    0  501    0 -0.00000000000E+00 -0.00000000000E+00 -0.53949021092E+02  0.53949021092E+02  0.00000000000E+00 0. -1.
         25    2    1    2    0    0 -0.19925229412E+02  0.39153480907E+02  0.23896637208E+03  0.27324201969E+03  0.12500505792E+03 0.  0.
          2    1    1    2  501    0  0.43296016614E+02 -0.34455003415E+02 -0.15649491670E+02  0.57503033873E+02  0.00000000000E+00 0. -1.
          1    1    1    2  502    0 -0.23370787203E+02 -0.46984774914E+01  0.60447547054E+03  0.60494533958E+03  0.00000000000E+00 0. -1.
         22    1    3    3    0    0 -0.16335108663E+02  0.24094570446E+02  0.25158888192E+03  0.25326734808E+03  0.00000000000E+00 0. -1.
         22    1    3    3    0    0 -0.35901207484E+01  0.15058910461E+02 -0.12622509837E+02  0.19974671608E+02  0.00000000000E+00 0. -1.
</event>
<event>
 7    1  0.6089676E-006  0.2121669E+03  0.7818608E-02  0.1264996E+00
          2   -1    0    0  502    0  0.00000000000E+00  0.00000000000E+00  0.12071788719E+04  0.12071788719E+04  0.00000000000E+00 0. -1.
          1   -1    0    0  501    0 -0.00000000000E+00 -0.00000000000E+00 -0.10384369380E+04  0.10384369380E+04  0.00000000000E+00 0. -1.
         25    2    1    2    0    0 -0.12064798986E+03  0.13417564254E+03 -0.29483526627E+03  0.36757192502E+03  0.12498898079E+03 0.  0.
          2    1    1    2  501    0  0.13067269094E+03 -0.18786128819E+03 -0.68805797915E+03  0.72511447264E+03  0.00000000000E+00 0. -1.
          1    1    1    2  502    0 -0.10024701075E+02  0.53685645647E+02  0.11516351794E+04  0.11529294122E+04  0.00000000000E+00 0. -1.
         22    1    3    3    0    0 -0.10659035835E+03  0.68456048407E+02 -0.99760298206E+02  0.16124469652E+03  0.00000000000E+00 0.  1.
         22    1    3    3    0    0 -0.14057631506E+02  0.65719594134E+02 -0.19507496806E+03  0.20632722850E+03  0.00000000000E+00 0.  1.
</event>
<event>
 7    1  0.6089676E-006  0.1281490E+03  0.7818608E-02  0.1388568E+00
          2   -1    0    0  502    0  0.00000000000E+00  0.00000000000E+00  0.24848988074E+04  0.24848988074E+04  0.00000000000E+00 0. -1.
          1   -1    0    0  501    0 -0.00000000000E+00 -0.00000000000E+00 -0.37155813588E+03  0.37155813588E+03  0.00000000000E+00 0. -1.
         25    2    1    2    0    0  0.94712619096E+01  0.11372898366E+03  0.86992811051E+03  0.88624100281E+03  0.12499684423E+03 0.  0.
          2    1    1    2  501    0 -0.38431375557E+02 -0.12247753015E+03 -0.35191805959E+03  0.37459850065E+03  0.00000000000E+00 0. -1.
          1    1    1    2  502    0  0.28960113647E+02  0.87485464841E+01  0.15953306206E+04  0.15956174398E+04  0.00000000000E+00 0. -1.
         22    1    3    3    0    0  0.10529202982E+02  0.31529773771E+02  0.65932557066E+03  0.66016300932E+03  0.00000000000E+00 0. -1.
         22    1    3    3    0    0 -0.10579410726E+01  0.82199209893E+02  0.21060253986E+03  0.22607799349E+03  0.00000000000E+00 0. -1.
</event>
<event>
 7    1  0.6089676E-006  0.1086583E+03  0.7818608E-02  0.1432558E+00
          2   -1    0    0  502    0  0.00000000000E+00  0.00000000000E+00  0.13768457751E+04  0.13768457751E+04  0.00000000000E+00 0. -1.
          1   -1    0    0  501    0 -0.00000000000E+00 -0.00000000000E+00 -0.82917852676E+03  0.82917852676E+03  0.00000000000E+00 0. -1.
         25    2    1    2    0    0  0.66224995569E+02  0.10621536271E+03  0.19102658317E+03  0.26035879347E+03  0.12501236957E+03 0.  0.
          2    1    1    2  501    0 -0.24282782681E+02 -0.71653322548E+01 -0.79179693476E+03  0.79220160402E+03  0.00000000000E+00 0. -1.
          1    1    1    2  502    0 -0.41942212888E+02 -0.99050030452E+02  0.11484375999E+04  0.11534639044E+04  0.00000000000E+00 0. -1.
         22    1    3    3    0    0 -0.11065447596E+02  0.73644158044E+02  0.33002956124E+02  0.81456130877E+02  0.00000000000E+00 0. -1.
         22    1    3    3    0    0  0.77290443165E+02  0.32571204662E+02  0.15802362705E+03  0.17890266259E+03  0.00000000000E+00 0. -1.
</event>
<event>
 7    1  0.6089676E-006  0.1427755E+03  0.7818608E-02  0.1327775E+00
          2   -1    0    0  502    0  0.00000000000E+00  0.00000000000E+00  0.32061545573E+03  0.32061545573E+03  0.00000000000E+00 0. -1.
          1   -1    0    0  501    0 -0.00000000000E+00 -0.00000000000E+00 -0.92394387443E+03  0.92394387443E+03  0.00000000000E+00 0. -1.
         25    2    1    2    0    0 -0.92088669361E+02 -0.53484102991E+02 -0.21519464044E+03  0.27068736033E+03  0.12498816532E+03 0.  0.
          2    1    1    2  501    0 -0.45093543892E+02  0.46546073986E+01 -0.66208013262E+03  0.66363031507E+03  0.00000000000E+00 0. -1.
          1    1    1    2  502    0  0.13718221325E+03  0.48829495592E+02  0.27394635437E+03  0.31024165475E+03  0.00000000000E+00 0. -1.
         22    1    3    3    0    0 -0.10783897768E+03 -0.78930665947E+02 -0.16604664004E+03  0.21314497837E+03  0.00000000000E+00 0. -1.
         22    1    3    3    0    0  0.15750308324E+02  0.25446562956E+02 -0.49148000400E+02  0.57542381962E+02  0.00000000000E+00 0. -1.
</event>
<event>
 7    1  0.6089676E-006  0.3390060E+03  0.7818608E-02  0.1155444E+00
          2   -1    0    0  502    0  0.00000000000E+00  0.00000000000E+00  0.10551690008E+04  0.10551690008E+04  0.00000000000E+00 0. -1.
          1   -1    0    0  501    0 -0.00000000000E+00 -0.00000000000E+00 -0.82152555919E+03  0.82152555919E+03  0.00000000000E+00 0. -1.
         25    2    1    2    0    0 -0.35636807776E+03 -0.10615820777E+03  0.25801253392E+03  0.46953582967E+03  0.12500262300E+03 0.  0.
          2    1    1    2  501    0  0.80088732443E+02 -0.75862523582E+02 -0.67142349141E+03  0.68042547892E+03  0.00000000000E+00 0. -1.
          1    1    1    2  502    0  0.27627934532E+03  0.18202073135E+03  0.64705439907E+03  0.72673325137E+03  0.00000000000E+00 0. -1.
         22    1    3    3    0    0 -0.16602318389E+03  0.65222651936E+01  0.74343886388E+02  0.18202541299E+03  0.00000000000E+00 0. -1.
         22    1    3    3    0    0 -0.19034489388E+03 -0.11268047296E+03  0.18366864753E+03  0.28751041668E+03  0.00000000000E+00 0. -1.
</event>
<event>
 7    1  0.6089676E-006  0.1652943E+03  0.7818608E-02  0.1379320E+00
          2   -1    0    0  502    0  0.00000000000E+00  0.00000000000E+00  0.23595861298E+04  0.23595861298E+04  0.00000000000E+00 0. -1.
          1   -1    0    0  501    0 -0.00000000000E+00 -0.00000000000E+00 -0.61021362854E+02  0.61021362854E+02  0.00000000000E+00 0. -1.
         25    2    1    2    0    0  0.12493143591E+03  0.14100881929E+03  0.29749341440E+03  0.37365648039E+03  0.12500193171E+03 0.  0.
          2    1    1    2  501    0 -0.18757559275E+02 -0.16948313100E+02 -0.11495148802E+02  0.27771024340E+02  0.00000000000E+00 0. -1.
          1    1    1    2  502    0 -0.10617387664E+03 -0.12406050619E+03  0.20125665013E+04  0.20191799879E+04  0.00000000000E+00 0. -1.
         22    1    3    3    0    0  0.63470959171E+02  0.14901825542E+03  0.23689923116E+03  0.28697778456E+03  0.00000000000E+00 0.  1.
         22    1    3    3    0    0  0.61460476740E+02 -0.80094361347E+01  0.60594183232E+02  0.86678695825E+02  0.00000000000E+00 0.  1.
</event>
<event>
 7    1  0.6089676E-006  0.1044810E+03  0.7818608E-02  0.1294756E+00
          2   -1    0    0  502    0  0.00000000000E+00  0.00000000000E+00  0.22416685292E+03  0.22416685292E+03  0.00000000000E+00 0. -1.
          1   -1    0    0  501    0 -0.00000000000E+00 -0.00000000000E+00 -0.88795887805E+03  0.88795887805E+03  0.00000000000E+00 0. -1.
         25    2    1    2    0    0  0.60553930009E+01 -0.14584682749E+03 -0.30125008652E+03  0.35732916299E+03  0.12499820487E+03 0.  0.
          2    1    1    2  501    0  0.52471068693E+02  0.86228761407E+02 -0.54492214293E+03  0.55419198316E+03  0.00000000000E+00 0. -1.
          1    1    1    2  502    0 -0.58526461693E+02  0.59618066080E+02  0.18238020432E+03  0.20060458482E+03  0.00000000000E+00 0. -1.
         22    1    3    3    0    0 -0.28464669494E+02  0.53701548653E+00 -0.11217752378E+03  0.11573384395E+03  0.00000000000E+00 0. -1.
         22    1    3    3    0    0  0.34520062495E+02 -0.14638384297E+03 -0.18907256274E+03  0.24159531903E+03  0.00000000000E+00 0. -1.
</event>
<event>
 7    1  0.6089676E-006  0.4215784E+02  0.7818608E-02  0.1524350E+00
          2   -1    0    0  502    0  0.00000000000E+00  0.00000000000E+00  0.69961076541E+02  0.69961076541E+02  0.00000000000E+00 0. -1.
          1   -1    0    0  501    0 -0.00000000000E+00 -0.00000000000E+00 -0.43551949416E+03  0.43551949416E+03  0.00000000000E+00 0. -1.
         25    2    1    2    0    0 -0.31749289434E+00 -0.63201932968E+02 -0.30372755067E+02  0.14332075596E+03  0.12499499872E+03 0.  0.
          2    1    1    2  501    0  0.16260519192E+02  0.29918377021E+02 -0.32071754796E+03  0.32252016888E+03  0.00000000000E+00 0. -1.
          1    1    1    2  502    0 -0.15943026297E+02  0.33283555947E+02 -0.14468114598E+02  0.39639645861E+02  0.00000000000E+00 0. -1.
         22    1    3    3    0    0 -0.43210993055E+02 -0.46884210319E+02  0.27519256639E+02  0.69445148024E+02  0.00000000000E+00 0. -1.
         22    1    3    3    0    0  0.42893500161E+02 -0.16317722649E+02 -0.57892011706E+02  0.73875607936E+02  0.00000000000E+00 0. -1.
</event>
<event>
 7    1  0.6089676E-006  0.1566056E+03  0.7818608E-02  0.1339875E+00
          2   -1    0    0  502    0  0.00000000000E+00  0.00000000000E+00  0.44703479021E+03  0.44703479021E+03  0.00000000000E+00 0. -1.
          1   -1    0    0  501    0 -0.00000000000E+00 -0.00000000000E+00 -0.91491967880E+03  0.91491967880E+03  0.00000000000E+00 0. -1.
         25    2    1    2    0    0 -0.73710322654E+02  0.10684560696E+03  0.13759639001E+03  0.22673093070E+03  0.12499981199E+03 0.  0.
          2    1    1    2  501    0  0.11043965964E+03 -0.11261553615E+03 -0.86185412630E+03  0.87616876937E+03  0.00000000000E+00 0. -1.
          1    1    1    2  502    0 -0.36729336984E+02  0.57699291865E+01  0.25637284769E+03  0.25905476894E+03  0.00000000000E+00 0. -1.
         22    1    3    3    0    0  0.28516673021E+02  0.45451119648E+02  0.74528004543E+02  0.91833699581E+02  0.00000000000E+00 0.  1.
         22    1    3    3    0    0 -0.10222699568E+03  0.61394487314E+02  0.63068385468E+02  0.13489723112E+03  0.00000000000E+00 0.  1.
</event>
<event>
 7    1  0.6089676E-006  0.6303726E+02  0.7818608E-02  0.1456758E+00
          2   -1    0    0  502    0  0.00000000000E+00  0.00000000000E+00  0.13113472047E+04  0.13113472047E+04  0.00000000000E+00 0. -1.
          1   -1    0    0  501    0 -0.00000000000E+00 -0.00000000000E+00 -0.19623484148E+04  0.19623484148E+04  0.00000000000E+00 0. -1.
         25    2    1    2    0    0 -0.23069558395E+02 -0.31606110515E+02  0.12661091397E+03  0.18217381511E+03  0.12500329847E+03 0.  0.
          2    1    1    2  501    0 -0.35847334018E+02  0.66805825809E+01 -0.19335106030E+04  0.19338544189E+04  0.00000000000E+00 0. -1.
          1    1    1    2  502    0  0.58916892413E+02  0.24925527934E+02  0.11558984788E+04  0.11576673855E+04  0.00000000000E+00 0. -1.
         22    1    3    3    0    0  0.42741455103E+02 -0.33683599186E+02  0.22280296110E+02  0.58803302911E+02  0.00000000000E+00 0. -1.
         22    1    3    3    0    0 -0.65811013498E+02  0.20774886711E+01  0.10433061786E+03  0.12337051220E+03  0.00000000000E+00 0. -1.
</event>
<event>
 7    1  0.6089676E-006  0.1310172E+03  0.7818608E-02  0.1230064E+00
          2   -1    0    0  502    0  0.00000000000E+00  0.00000000000E+00  0.90683087681E+03  0.90683087681E+03  0.00000000000E+00 0. -1.
          1   -1    0    0  501    0 -0.00000000000E+00 -0.00000000000E+00 -0.11206922848E+04  0.11206922848E+04  0.00000000000E+00 0. -1.
         25    2    1    2    0    0 -0.20297674876E+03  0.17896369266E+02 -0.28973914088E+03  0.37562542820E+03  0.12500340790E+03 0.  0.
          2    1    1    2  501    0  0.95440746487E+02 -0.82707268566E+02 -0.77833122504E+03  0.78851057331E+03  0.00000000000E+00 0. -1.
          1    1    1    2  502    0  0.10753600227E+03  0.64810899300E+02  0.85420895791E+03  0.86338716010E+03  0.00000000000E+00 0. -1.
         22    1    3    3    0    0 -0.17202063176E+03  0.58769753304E+02 -0.18695582904E+03  0.26076323296E+03  0.00000000000E+00 0. -1.
         22    1    3    3    0    0 -0.30956116998E+02 -0.40873384038E+02 -0.10278331184E+03  0.11486219524E+03  0.00000000000E+00 0. -1.
</event>
<event>
 7    1  0.6089676E-006  0.8343984E+02  0.7818608E-02  0.1447208E+00
          2   -1    0    0  502    0  0.00000000000E+00  0.00000000000E+00  0.59053018132E+02  0.59053018132E+02  0.00000000000E+00 0. -1.
          1   -1    0    0  501    0 -0.00000000000E+00 -0.00000000000E+00 -0.10036683000E+04  0.10036683000E+04  0.00000000000E+00 0. -1.
         25    2    1    2    0    0  0.77580650585E+02  0.48900989186E+02 -0.20433589543E+03  0.25649089743E+03  0.12499743284E+03 0.  0.
          2    1    1    2  501    0 -0.80779596564E+02 -0.19524340335E+02 -0.76389539038E+03  0.76840270076E+03  0.00000000000E+00 0. -1.
          1    1    1    2  502    0  0.31989459787E+01 -0.29376648851E+02  0.23616003947E+02  0.37827719936E+02  0.00000000000E+00 0. -1.
         22    1    3    3    0    0  0.12761567872E+02 -0.52204064346E+01 -0.16097724976E+03  0.16156665869E+03  0.00000000000E+00 0.  1.
         22    1    3    3    0    0  0.64819082713E+02  0.54121395621E+02 -0.43358645667E+02  0.94924238748E+02  0.00000000000E+00 0.  1.
</event>
<event>
 7    1  0.6089676E-006  0.6941950E+02  0.7818608E-02  0.1377648E+00
          2   -1    0    0  502    0  0.00000000000E+00  0.00000000000E+00  0.94094298941E+03  0.94094298941E+03  0.00000000000E+00 0. -1.
          1   -1    0    0  501    0 -0.00000000000E+00 -0.00000000000E+00 -0.53071603455E+02  0.53071603455E+02  0.00000000000E+00 0. -1.
         25    2    1    2    0    0 -0.33124841365E+02 -0.17121140979E+02  0.38940304438E+03  0.41067065019E+03  0.12500105346E+03 0.  0.
          2    1    1    2  501    0  0.67460314425E+01 -0.60649296450E+02 -0.15414912546E+02  0.62940174999E+02  0.00000000000E+00 0. -1.
          1    1    1    2  502    0  0.26378809922E+02  0.77770437429E+02  0.51388325412E+03  0.52040376768E+03  0.00000000000E+00 0. -1.
         22    1    3    3    0    0 -0.56564380511E+01  0.20093703156E+02  0.34790084214E+03  0.34852653868E+03  0.00000000000E+00 0.  1.
         22    1    3    3    0    0 -0.27468403314E+02 -0.37214844134E+02  0.41502202238E+02  0.62144111508E+02  0.00000000000E+00 0.  1.
</event>
<event>
 7    1  0.6089676E-006  0.1249931E+03  0.7818608E-02  0.1289814E+00
          2   -1    0    0  502    0  0.00000000000E+00  0.00000000000E+00  0.13089659773E+04  0.13089659773E+04  0.00000000000E+00 0. -1.
          1   -1    0    0  501    0 -0.00000000000E+00 -0.00000000000E+00 -0.33251769763E+03  0.33251769763E+03  0.00000000000E+00 0. -1.
         25    2    1    2    0    0 -0.85088100275E+01 -0.63534060682E+02  0.52849175603E+03  0.54684332801E+03  0.12500044995E+03 0.  0.
          2    1    1    2  501    0 -0.36537508910E+02  0.12114394044E+03 -0.30913300162E+03  0.33402702968E+03  0.00000000000E+00 0. -1.
          1    1    1    2  502    0  0.45046318937E+02 -0.57609879758E+02  0.75708952526E+03  0.76061331723E+03  0.00000000000E+00 0. -1.
         22    1    3    3    0    0 -0.43947192708E+02  0.17933196938E+02  0.12552482960E+03  0.13419924793E+03  0.00000000000E+00 0.  1.
         22    1    3    3    0    0  0.35438382680E+02 -0.81467257620E+02  0.40296692643E+03  0.41264408008E+03  0.00000000000E+00 0.  1.
</event>
<event>
 7    1  0.6089676E-006  0.1132180E+03  0.7818608E-02  0.1330001E+00
          2   -1    0    0  502    0  0.00000000000E+00  0.00000000000E+00  0.11371423975E+04  0.11371423975E+04  0.00000000000E+00 0. -1.
          1   -1    0    0  501    0 -0.00000000000E+00 -0.00000000000E+00 -0.83435116128E+03  0.83435116128E+03  0.00000000000E+00 0. -1.
         25    2    1    2    0    0 -0.40455370161E+02 -0.45367085283E+02  0.47281119239E+03  0.49281924490E+03  0.12500230037E+03 0.  0.
          2    1    1    2  501    0  0.92636226687E+02  0.65850741972E+02 -0.81921593076E+03  0.82706259251E+03  0.00000000000E+00 0. -1.
          1    1    1    2  502    0 -0.52180856526E+02 -0.20483656689E+02  0.64919597462E+03  0.65161172138E+03  0.00000000000E+00 0. -1.
         22    1    3    3    0    0 -0.28466557162E+02  0.26879469796E+02  0.48967113096E+02  0.62694728152E+02  0.00000000000E+00 0.  1.
         22    1    3    3    0    0 -0.11988812999E+02 -0.72246555080E+02  0.42384407929E+03  0.43012451675E+03  0.00000000000E+00 0.  1.
</event>
<event>
 7    1  0.6089676E-006  0.2496834E+03  0.7818608E-02  0.1332621E+00
          2   -1    0    0  502    0  0.00000000000E+00  0.00000000000E+00  0.74751313659E+03  0.74751313659E+03  0.00000000000E+00 0. -1.
          1   -1    0    0  501    0 -0.00000000000E+00 -0.00000000000E+00 -0.39041124401E+03  0.39041124401E+03  0.00000000000E+00 0. -1.
         25    2    1    2    0    0 -0.19599073227E+03  0.12825696896E+03  0.16846136061E+03  0.31442909414E+03  0.12499683195E+03 0.  0.
          2    1    1    2  501    0  0.22048094336E+03 -0.12409703499E+03 -0.26662031666E+03  0.36755722511E+03  0.00000000000E+00 0. -1.
          1    1    1    2  502    0 -0.24490211085E+02 -0.41599339686E+01  0.45526084863E+03  0.45593806135E+03  0.00000000000E+00 0. -1.
         22    1    3    3    0    0 -0.20103586582E+03  0.13312944683E+03  0.18002008751E+03  0.30090879161E+03  0.00000000000E+00 0. -1.
         22    1    3    3    0    0  0.50451335498E+01 -0.48724778715E+01 -0.11558726893E+02  0.13520302531E+02  0.00000000000E+00 0. -1.
</event>
<event>
 7    1  0.6089676E-006  0.2451947E+02  0.7818608E-02  0.1690377E+00
          2   -1    0    0  502    0  0.00000000000E+00  0.00000000000E+00  0.69391600695E+03  0.69391600695E+03  0.00000000000E+00 0. -1.
          1   -1    0    0  501    0 -0.00000000000E+00 -0.00000000000E+00 -0.29429648083E+02  0.29429648083E+02  0.00000000000E+00 0. -1.
         25    2    1    2    0    0 -0.18722848909E+02  0.25299487786E+02  0.20782186612E+03  0.24455163733E+03  0.12499986452E+03 0.  0.
          2    1    1    2  501    0  0.21686325979E+02 -0.93268016690E+00  0.23771707452E+00  0.21707674591E+02  0.00000000000E+00 0. -1.
          1    1    1    2  502    0 -0.29634770690E+01 -0.24366807619E+02  0.45642677567E+03  0.45708634311E+03  0.00000000000E+00 0. -1.
         22    1    3    3    0    0 -0.27547763077E+02 -0.47840465430E+02  0.91459528579E+02  0.10682899771E+03  0.00000000000E+00 0. -1.
         22    1    3    3    0    0  0.88249141676E+01  0.73139953216E+02  0.11636233754E+03  0.13772263962E+03  0.00000000000E+00 0. -1.
</event>
<event>
 7    1  0.6089676E-006  0.1151828E+03  0.7818608E-02  0.1297122E+00
          2   -1    0    0  502    0  0.00000000000E+00  0.00000000000E+00  0.16165894554E+04  0.16165894554E+04  0.00000000000E+00 0. -1.
          1   -1    0    0  501    0 -0.00000000000E+00 -0.00000000000E+00 -0.10886359373E+04  0.10886359373E+04  0.00000000000E+00 0. -1.
         25    2    1    2    0    0  0.24770034560E+02  0.11090775407E+03  0.15195872748E+03  0.22722312349E+03  0.12499923386E+03 0.  0.
          2    1    1    2  501    0  0.49102654719E+02 -0.10465488740E+03 -0.10468569597E+04  0.10532203996E+04  0.00000000000E+00 0. -1.
          1    1    1    2  502    0 -0.73872689279E+02 -0.62528666695E+01  0.14228517503E+04  0.14247818696E+04  0.00000000000E+00 0. -1.
         22    1    3    3    0    0 -0.64977800836E+01 -0.21913709525E+02  0.55779942648E+02  0.60281289079E+02  0.00000000000E+00 0.  1.
         22    1    3    3    0    0  0.31267814644E+02  0.13282146359E+03  0.96178784832E+02  0.16694183441E+03  0.00000000000E+00 0.  1.
</event>
<event>
 7    1  0.6089676E-006  0.2144094E+03  0.7818608E-02  0.1230611E+00
          2   -1    0    0  502    0  0.00000000000E+00  0.00000000000E+00  0.30751477854E+03  0.30751477854E+03  0.00000000000E+00 0. -1.
          1   -1    0    0  501    0 -0.00000000000E+00 -0.00000000000E+00 -0.15248683668E+04  0.15248683668E+04  0.00000000000E+00 0. -1.
         25    2    1    2    0    0  0.72569470202E+02  0.24707691327E+03  0.90957499829E+02  0.30035543664E+03  0.12500716967E+03 0.  0.
          2    1    1    2  501    0 -0.43408716543E+01 -0.21294234572E+03 -0.13980852299E+04  0.14142155408E+04  0.00000000000E+00 0. -1.
          1    1    1    2  502    0 -0.68228598548E+02 -0.34134567552E+02  0.89774141832E+02  0.11781216789E+03  0.00000000000E+00 0. -1.
         22    1    3    3    0    0  0.17987191995E+02  0.15400373727E+03  0.11090177700E+03  0.19063025550E+03  0.00000000000E+00 0. -1.
         22    1    3    3    0    0  0.54582278207E+02  0.93073175998E+02 -0.19944277172E+02  0.10972518114E+03  0.00000000000E+00 0. -1.
</event>
<event>
 7    1  0.6089676E-006  0.1041634E+03  0.7818608E-02  0.1393003E+00
          2   -1    0    0  502    0  0.00000000000E+00  0.00000000000E+00  0.13158739755E+04  0.13158739755E+04  0.00000000000E+00 0. -1.
          1   -1    0    0  501    0 -0.00000000000E+00 -0.00000000000E+00 -0.46771332695E+03  0.46771332695E+03  0.00000000000E+00 0. -1.
         25    2    1    2    0    0 -0.20047761669E+01 -0.85259112641E+02  0.12296006529E+03  0.19497811013E+03  0.12499660138E+03 0.  0.
          2    1    1    2  501    0 -0.32850986439E+02 -0.14521327470E+02 -0.42853746336E+03  0.43004001414E+03  0.00000000000E+00 0. -1.
          1    1    1    2  502    0  0.34855762606E+02  0.99780440111E+02  0.11537380466E+04  0.11585691782E+04  0.00000000000E+00 0. -1.
         22    1    3    3    0    0 -0.26424701619E+02 -0.34510662127E+02  0.13106075851E+03  0.13808031387E+03  0.00000000000E+00 0. -1.
         22    1    3    3    0    0  0.24419925452E+02 -0.50748450514E+02 -0.81006932176E+01  0.56897796260E+02  0.00000000000E+00 0. -1.
</event>
<event>
 7    1  0.8289549E-006  0.6811142E+02  0.7818608E-02  0.1374024E+00
          2   -1    0    0  502    0  0.00000000000E+00  0.00000000000E+00  0.67295117521E+03  0.67295117521E+03  0.00000000000E+00 0. -1.
          1   -1    0    0  501    0 -0.00000000000E+00 -0.00000000000E+00 -0.75056547927E+03  0.75056547927E+03  0.00000000000E+00 0. -1.
         25    2    1    2    0    0 -0.36498608851E+01  0.12758901061E+02 -0.25410652267E+03  0.28349873188E+03  0.12500118029E+03 0.  0.
          2    1    1    2  501    0 -0.64039065990E+02 -0.20710332569E+01 -0.47783523785E+03  0.48211181866E+03  0.00000000000E+00 0. -1.
          1    1    1    2  502    0  0.67688926875E+02 -0.10687867804E+02  0.65432745646E+03  0.65790610395E+03  0.00000000000E+00 0. -1.
         22    1    3    3    0    0  0.11826241063E+02  0.25842867076E+02  0.16510203645E+00  0.28420784913E+02  0.00000000000E+00 0.  1.
         22    1    3    3    0    0 -0.15476101948E+02 -0.13083966015E+02 -0.25427162470E+03  0.25507794696E+03  0.00000000000E+00 0.  1.
</event>
<event>
 7    1  0.6089676E-006  0.6301109E+02  0.7818608E-02  0.1413966E+00
          2   -1    0    0  502    0  0.00000000000E+00  0.00000000000E+00  0.25775390596E+03  0.25775390596E+03  0.00000000000E+00 0. -1.
          1   -1    0    0  501    0 -0.00000000000E+00 -0.00000000000E+00 -0.64148396056E+03  0.64148396056E+03  0.00000000000E+00 0. -1.
         25    2    1    2    0    0  0.81164421662E+02 -0.10366470252E+02 -0.68819773447E+02  0.16448821417E+03  0.12500033733E+03 0.  0.
          2    1    1    2  501    0 -0.54122836429E+02 -0.32089090481E+02 -0.51988811218E+03  0.52368181212E+03  0.00000000000E+00 0. -1.
          1    1    1    2  502    0 -0.27041585233E+02  0.42455560732E+02  0.20497783103E+03  0.21106784024E+03  0.00000000000E+00 0. -1.
         22    1    3    3    0    0 -0.14903525168E+02 -0.25336706132E+02  0.17722327530E+02  0.34324111542E+02  0.00000000000E+00 0.  1.
         22    1    3    3    0    0  0.96067946830E+02  0.14970235881E+02 -0.86542100977E+02  0.13016410262E+03  0.00000000000E+00 0.  1.
</event>
<event>
 7    1  0.6089676E-006  0.7197924E+02  0.7818608E-02  0.1497833E+00
          2   -1    0    0  502    0  0.00000000000E+00  0.00000000000E+00  0.17205167110E+02  0.17205167110E+02  0.00000000000E+00 0. -1.
          1   -1    0    0  501    0 -0.00000000000E+00 -0.00000000000E+00 -0.23864885339E+04  0.23864885339E+04  0.00000000000E+00 0. -1.
         25    2    1    2    0    0  0.76472503759E+02  0.48157027495E+02 -0.98726330961E+03  0.99924039865E+03  0.12500155465E+03 0.  0.
          2    1    1    2  501    0 -0.12088655251E+02 -0.20576347321E+02 -0.12826868011E+04  0.12829087853E+04  0.00000000000E+00 0. -1.
          1    1    1    2  502    0 -0.64383848508E+02 -0.27580680173E+02 -0.99333256104E+02  0.12154451709E+03  0.00000000000E+00 0. -1.
         22    1    3    3    0    0 -0.89310839368E+01 -0.12887639561E+02 -0.52388921065E+03  0.52412380269E+03  0.00000000000E+00 0.  1.
         22    1    3    3    0    0  0.85403587696E+02  0.61044667055E+02 -0.46337409897E+03  0.47511659596E+03  0.00000000000E+00 0.  1.
</event>
<event>
 7    1  0.6089676E-006  0.3209539E+02  0.7818608E-02  0.1590467E+00
          2   -1    0    0  502    0  0.00000000000E+00  0.00000000000E+00  0.12503982458E+04  0.12503982458E+04  0.00000000000E+00 0. -1.
          1   -1    0    0  501    0 -0.00000000000E+00 -0.00000000000E+00 -0.48019237408E+02  0.48019237408E+02  0.00000000000E+00 0. -1.
         25    2    1    2    0    0  0.12958854284E+01  0.53086418485E+01  0.53659887555E+03  0.55099296924E+03  0.12500015164E+03 0.  0.
          2    1    1    2  501    0 -0.13771676618E+02  0.25937888643E+02 -0.35084261341E+02  0.45753016709E+02  0.00000000000E+00 0. -1.
          1    1    1    2  502    0  0.12475791190E+02 -0.31246530492E+02  0.70086439422E+03  0.70167149730E+03  0.00000000000E+00 0. -1.
         22    1    3    3    0    0 -0.19855370006E+02 -0.49099030666E+02  0.13238685948E+03  0.14258762601E+03  0.00000000000E+00 0.  1.
         22    1    3    3    0    0  0.21151255434E+02  0.54407672515E+02  0.40421201608E+03  0.40840534323E+03  0.00000000000E+00 0.  1.
</event>
<event>
 7    1  0.6089676E-006  0.1407122E+03  0.7818608E-02  0.1308446E+00
          2   -1    0    0  502    0  0.00000000000E+00  0.00000000000E+00  0.14828930848E+03  0.14828930848E+03  0.00000000000E+00 0. -1.
          1   -1    0    0  501    0 -0.00000000000E+00 -0.00000000000E+00 -0.26501366299E+04  0.26501366299E+04  0.00000000000E+00 0. -1.
         25    2    1    2    0    0 -0.88303513293E+02  0.37323640279E+01 -0.50104155001E+02  0.16108017737E+03  0.12499982477E+03 0.  0.
          2    1    1    2  501    0  0.14257623191E+03  0.30603944674E+01 -0.25343025645E+04  0.25383118084E+04  0.00000000000E+00 0. -1.
          1    1    1    2  502    0 -0.54272718620E+02 -0.67927584953E+01  0.82559398119E+02  0.99033952623E+02  0.00000000000E+00 0. -1.
         22    1    3    3    0    0 -0.42588610621E+02 -0.48157888014E+02 -0.63810093766E+02  0.90579799067E+02  0.00000000000E+00 0.  1.
         22    1    3    3    0    0 -0.45714902672E+02  0.51890252042E+02  0.13705938765E+02  0.70500378302E+02  0.00000000000E+00 0.  1.
</event>
<event>
 7    1  0.6089676E-006  0.1016995E+03  0.7818608E-02  0.1459737E+00
          2   -1    0    0  502    0  0.00000000000E+00  0.00000000000E+00  0.10218989631E+04  0.10218989631E+04  0.00000000000E+00 0. -1.
          1   -1    0    0  501    0 -0.00000000000E+00 -0.00000000000E+00 -0.57774144744E+03  0.57774144744E+03  0.00000000000E+00 0. -1.
         25    2    1    2    0    0 -0.45897292478E+02 -0.10367056974E+03  0.62893982697E+03  0.65118707490E+03  0.12500060834E+03 0.  0.
          2    1    1    2  501    0  0.56675755276E+02  0.84357624165E+02 -0.56173405443E+03  0.57085330681E+03  0.00000000000E+00 0. -1.
          1    1    1    2  502    0 -0.10778462798E+02  0.19312945571E+02  0.37695174315E+03  0.37760002886E+03  0.00000000000E+00 0. -1.
         22    1    3    3    0    0  0.43408498254E+02 -0.40042129825E+02  0.21286848752E+03  0.22090872065E+03  0.00000000000E+00 0. -1.
         22    1    3    3    0    0 -0.89305790732E+02 -0.63628439911E+02  0.41607133945E+03  0.43027835425E+03  0.00000000000E+00 0. -1.
</event>
<event>
 7    1  0.6089676E-006  0.1952502E+03  0.7818608E-02  0.1318065E+00
          2   -1    0    0  502    0  0.00000000000E+00  0.00000000000E+00  0.25860632904E+03  0.25860632904E+03  0.00000000000E+00 0. -1.
          1   -1    0    0  501    0 -0.00000000000E+00 -0.00000000000E+00 -0.10335118672E+04  0.10335118672E+04  0.00000000000E+00 0. -1.
         25    2    1    2    0    0 -0.14888510644E+02  0.20755862375E+03 -0.26438194901E+03  0.35892184043E+03  0.12499929014E+03 0.  0.
          2    1    1    2  501    0 -0.30611834367E+02 -0.19208582291E+02 -0.67686138457E+03  0.67782548489E+03  0.00000000000E+00 0. -1.
          1    1    1    2  502    0  0.45500345011E+02 -0.18835004146E+03  0.16633779543E+03  0.25537087090E+03  0.00000000000E+00 0. -1.
         22    1    3    3    0    0 -0.31789873796E+02  0.21841346520E+03 -0.22779721849E+03  0.31718545144E+03  0.00000000000E+00 0. -1.
         22    1    3    3    0    0  0.16901363152E+02 -0.10854841442E+02 -0.36584730516E+02  0.41736388991E+02  0.00000000000E+00 0. -1.
</event>
<event>
 7    1  0.6089676E-006  0.8567390E+02  0.7818608E-02  0.1360569E+00
          2   -1    0    0  502    0  0.00000000000E+00  0.00000000000E+00  0.16908873414E+04  0.16908873414E+04  0.00000000000E+00 0. -1.
          1   -1    0    0  501    0 -0.00000000000E+00 -0.00000000000E+00 -0.26436810466E+03  0.26436810466E+03  0.00000000000E+00 0. -1.
         25    2    1    2    0    0 -0.12017363717E+03 -0.58155154164E+02  0.76569730252E+02  0.19827102040E+03  0.12499899565E+03 0.  0.
          2    1    1    2  501    0  0.36559648686E+02  0.43686103970E+02 -0.19834652389E+03  0.20636479140E+03  0.00000000000E+00 0. -1.
          1    1    1    2  502    0  0.83613988484E+02  0.14469050194E+02  0.15482960304E+04  0.15506196342E+04  0.00000000000E+00 0. -1.
         22    1    3    3    0    0 -0.12996602041E+02 -0.65553193090E+02  0.59525432399E+02  0.89495306532E+02  0.00000000000E+00 0. -1.
         22    1    3    3    0    0 -0.10717703513E+03  0.73980389265E+01  0.17044297853E+02  0.10877571387E+03  0.00000000000E+00 0. -1.
</event>
<event>
 7    1  0.6089676E-006  0.3314923E+02  0.7818608E-02  0.1586812E+00
          2   -1    0    0  502    0  0.00000000000E+00  0.00000000000E+00  0.10555360067E+02  0.10555360067E+02  0.00000000000E+00 0. -1.
          1   -1    0    0  501    0 -0.00000000000E+00 -0.00000000000E+00 -0.23646977011E+04  0.23646977011E+04  0.00000000000E+00 0. -1.
         25    2    1    2    0    0 -0.40419149113E+02  0.62186761838E+01 -0.14807767438E+04  0.14866072783E+04  0.12501622023E+03 0.  0.
          2    1    1    2  501    0  0.20626486677E+02  0.20491799779E+02 -0.84336468692E+03  0.84386572448E+03  0.00000000000E+00 0. -1.
          1    1    1    2  502    0  0.19792662437E+02 -0.26710475963E+02 -0.30000910372E+02  0.44780058460E+02  0.00000000000E+00 0. -1.
         22    1    3    3    0    0 -0.66434421275E+01  0.45423666861E+02 -0.21850909173E+03  0.22327934970E+03  0.00000000000E+00 0. -1.
         22    1    3    3    0    0 -0.33775706986E+02 -0.39204990677E+02 -0.12622676520E+04  0.12633279286E+04  0.00000000000E+00 0. -1.
</event>
<event>
 7    1  0.6089676E-006  0.1289190E+03  0.7818608E-02  0.1237435E+00
          2   -1    0    0  502    0  0.00000000000E+00  0.00000000000E+00  0.68389646395E+03  0.68389646395E+03  0.00000000000E+00 0. -1.
          1   -1    0    0  501    0 -0.00000000000E+00 -0.00000000000E+00 -0.31295375473E+04  0.31295375473E+04  0.00000000000E+00 0. -1.
         25    2    1    2    0    0 -0.36062215854E+02  0.10167751064E+03 -0.27925870005E+03  0.32440950072E+03  0.12496920830E+03 0.  0.
          2    1    1    2  501    0  0.13030045162E+03 -0.30155971894E+02 -0.28208153179E+04  0.28239841799E+04  0.00000000000E+00 0. -1.
          1    1    1    2  502    0 -0.94238235770E+02 -0.71521538747E+02  0.65443293458E+03  0.66504033070E+03  0.00000000000E+00 0. -1.
         22    1    3    3    0    0  0.86069691375E+01  0.10664140686E+03 -0.12910657967E+03  0.16767521728E+03  0.00000000000E+00 0.  1.
         22    1    3    3    0    0 -0.44669184991E+02 -0.49638962172E+01 -0.15015212038E+03  0.15673428345E+03  0.00000000000E+00 0.  1.
</event>
<event>
 7    1  0.6089676E-006  0.4722054E+02  0.7818608E-02  0.1534311E+00
          2   -1    0    0  502    0  0.00000000000E+00  0.00000000000E+00  0.36392975957E+03  0.36392975957E+03  0.00000000000E+00 0. -1.
          1   -1    0    0  501    0 -0.00000000000E+00 -0.00000000000E+00 -0.35822248433E+03  0.35822248433E+03  0.00000000000E+00 0. -1.
         25    2    1    2    0    0  0.66291202104E+02  0.20443946920E+02 -0.20690245252E+03  0.25148423864E+03  0.12499287572E+03 0.  0.
          2    1    1    2  501    0 -0.43632436039E+02 -0.32137927518E+01 -0.12470364674E+03  0.13215565614E+03  0.00000000000E+00 0. -1.
          1    1    1    2  502    0 -0.22658766064E+02 -0.17230154168E+02  0.33731337451E+03  0.33851234913E+03  0.00000000000E+00 0. -1.
         22    1    3    3    0    0  0.71827114133E+02 -0.26053381579E+02 -0.18425591992E+03  0.19946968953E+03  0.00000000000E+00 0.  1.
         22    1    3    3    0    0 -0.55359120290E+01  0.46497328499E+02 -0.22646532597E+02  0.52014549101E+02  0.00000000000E+00 0.  1.
</event>
<event>
 7    1  0.6089676E-006  0.1041941E+03  0.7818608E-02  0.1303390E+00
          2   -1    0    0  502    0  0.00000000000E+00  0.00000000000E+00  0.22114008277E+04  0.22114008277E+04  0.00000000000E+00 0. -1.
          1   -1    0    0  501    0 -0.00000000000E+00 -0.00000000000E+00 -0.49986929578E+03  0.49986929578E+03  0.00000000000E+00 0. -1.
         25    2    1    2    0    0 -0.78470406267E+02  0.71939811128E+02  0.72759326176E+03  0.74588829402E+03  0.12499780603E+03 0.  0.
          2    1    1    2  501    0 -0.30290827881E+02 -0.71179522435E+02 -0.48565099475E+03  0.49177326826E+03  0.00000000000E+00 0. -1.
          1    1    1    2  502    0  0.10876123415E+03 -0.76028869298E+00  0.14695892649E+04  0.14736085612E+04  0.00000000000E+00 0. -1.
         22    1    3    3    0    0 -0.67040240093E+02  0.82082733275E+02  0.72181005046E+03  0.72954898248E+03  0.00000000000E+00 0. -1.
         22    1    3    3    0    0 -0.11430166175E+02 -0.10142922148E+02  0.57832112937E+01  0.16339311532E+02  0.00000000000E+00 0. -1.
</event>
<event>
 7    1  0.6089676E-006  0.1033927E+03  0.7818608E-02  0.1298870E+00
          2   -1    0    0  502    0  0.00000000000E+00  0.00000000000E+00  0.89381358758E+03  0.89381358758E+03  0.00000000000E+00 0. -1.
          1   -1    0    0  501    0 -0.00000000000E+00 -0.00000000000E+00 -0.38331675566E+03  0.38331675566E+03  0.00000000000E+00 0. -1.
         25    2    1    2    0    0  0.36613037384E+01  0.11302810019E+03  0.18563127857E+03  0.25077099269E+03  0.12505343902E+03 0.  0.
          2    1    1    2  501    0 -0.74338235889E+02 -0.72914135547E+02 -0.34049146063E+03  0.35605769089E+03  0.00000000000E+00 0. -1.
          1    1    1    2  502    0  0.70676932151E+02 -0.40113964645E+02  0.66535701398E+03  0.67030165967E+03  0.00000000000E+00 0. -1.
         22    1    3    3    0    0  0.55470678210E+02  0.48237428068E+02  0.41355647292E+02  0.84345332832E+02  0.00000000000E+00 0. -1.
         22    1    3    3    0    0 -0.51809374471E+02  0.64790672124E+02  0.14427563128E+03  0.16642565986E+03  0.00000000000E+00 0. -1.
</event>
<event>
 7    1  0.6089676E-006  0.7269450E+02  0.7818608E-02  0.1369734E+00
          2   -1    0    0  502    0  0.00000000000E+00  0.00000000000E+00  0.12940016831E+03  0.12940016831E+03  0.00000000000E+00 0. -1.
          1   -1    0    0  501    0 -0.00000000000E+00 -0.00000000000E+00 -0.28979440162E+03  0.28979440162E+03  0.00000000000E+00 0. -1.
         25    2    1    2    0    0 -0.94791662120E+02 -0.97878345924E+01 -0.14542447707E+03  0.21412894146E+03  0.12498665579E+03 0.  0.
          2    1    1    2  501    0  0.35247868202E+02  0.51244857669E+02 -0.84267074131E+02  0.10473484345E+03  0.00000000000E+00 0. -1.
          1    1    1    2  502    0  0.59543793919E+02 -0.41457023077E+02  0.69297317886E+02  0.10033078502E+03  0.00000000000E+00 0. -1.
         22    1    3    3    0    0 -0.74527042083E+01  0.83280278632E+01  0.21859060801E+02  0.24550303200E+02  0.00000000000E+00 0. -1.
         22    1    3    3    0    0 -0.87338957912E+02 -0.18115862456E+02 -0.16728353787E+03  0.18957863826E+03  0.00000000000E+00 0. -1.
</event>
<event>
 7    1  0.6089676E-006  0.7412704E+02  0.7818608E-02  0.1361340E+00
          2   -1    0    0  502    0  0.00000000000E+00  0.00000000000E+00  0.14732780074E+04  0.14732780074E+04  0.00000000000E+00 0. -1.
          1   -1    0    0  501    0 -0.00000000000E+00 -0.00000000000E+00 -0.18606121451E+03  0.18606121451E+03  0.00000000000E+00 0. -1.
         25    2    1    2    0    0 -0.12795948115E+03  0.23051263354E+02  0.52355214643E+03  0.55374774889E+03  0.12499891925E+03 0.  0.
          2    1    1    2  501    0  0.58589904326E+02 -0.29091255064E+02 -0.16335220650E+03  0.17596312505E+03  0.00000000000E+00 0. -1.
          1    1    1    2  502    0  0.69369576823E+02  0.60399917099E+01  0.92701685300E+03  0.92962834802E+03  0.00000000000E+00 0. -1.
         22    1    3    3    0    0 -0.83731813639E+01  0.15801843934E+02  0.29638629363E+03  0.29692531635E+03  0.00000000000E+00 0.  1.
         22    1    3    3    0    0 -0.11958629979E+03  0.72494194192E+01  0.22716585280E+03  0.25682243255E+03  0.00000000000E+00 0.  1.
</event>
<event>
 7    1  0.6089676E-006  0.1090563E+03  0.7818608E-02  0.1287197E+00
          2   -1    0    0  502    0  0.00000000000E+00  0.00000000000E+00  0.14920597966E+04  0.14920597966E+04  0.00000000000E+00 0. -1.
          1   -1    0    0  501    0 -0.00000000000E+00 -0.00000000000E+00 -0.12566097476E+03  0.12566097476E+03  0.00000000000E+00 0. -1.
         25    2    1    2    0    0  0.14942411450E+03  0.10058996652E+03  0.11692993476E+03  0.24848269942E+03  0.12500053964E+03 0.  0.
          2    1    1    2  501    0 -0.79320049421E+02 -0.50946450648E+02 -0.20410812866E+02  0.96456271728E+02  0.00000000000E+00 0. -1.
          1    1    1    2  502    0 -0.70104065082E+02 -0.49643515873E+02  0.12698796999E+04  0.12727818002E+04  0.00000000000E+00 0. -1.
         22    1    3    3    0    0  0.17040608125E+03  0.79239228490E+02  0.90651581387E+02  0.20864993905E+03  0.00000000000E+00 0.  1.
         22    1    3    3    0    0 -0.20981966745E+02  0.21350738031E+02  0.26278353372E+02  0.39832760373E+02  0.00000000000E+00 0.  1.
</event>
<event>
 7    1  0.6089676E-006  0.9023523E+02  0.7818608E-02  0.1316938E+00
          2   -1    0    0  502    0  0.00000000000E+00  0.00000000000E+00  0.28351582376E+04  0.28351582376E+04  0.00000000000E+00 0. -1.
          1   -1    0    0  501    0 -0.00000000000E+00 -0.00000000000E+00 -0.80946570149E+02  0.80946570149E+02  0.00000000000E+00 0. -1.
         25    2    1    2    0    0  0.23147975953E+02 -0.19789650316E+02  0.41211464278E+03  0.43172888257E+03  0.12499556073E+03 0.  0.
          2    1    1    2  501    0 -0.98786098251E+00  0.95609872281E+02 -0.38057750735E+02  0.10291071828E+03  0.00000000000E+00 0. -1.
          1    1    1    2  502    0 -0.22160114970E+02 -0.75820221965E+02  0.23801547754E+04  0.23814652069E+04  0.00000000000E+00 0. -1.
         22    1    3    3    0    0  0.40658141048E+02 -0.36396829439E+02  0.40179213126E+03  0.40548086313E+03  0.00000000000E+00 0. -1.
         22    1    3    3    0    0 -0.17510165095E+02  0.16607179123E+02  0.10322511516E+02  0.26248019432E+02  0.00000000000E+00 0. -1.
</event>
<event>
 7    1  0.6089676E-006  0.8194256E+02  0.7818608E-02  0.1458241E+00
          2   -1    0    0  502    0  0.00000000000E+00  0.00000000000E+00  0.19748865381E+04  0.19748865381E+04  0.00000000000E+00 0. -1.
          1   -1    0    0  501    0 -0.00000000000E+00 -0.00000000000E+00 -0.11232255048E+04  0.11232255048E+04  0.00000000000E+00 0. -1.
         25    2    1    2    0    0 -0.14130288230E+02  0.93512068601E+02 -0.69409549886E+02  0.17142713592E+03  0.12500162117E+03 0.  0.
          2    1    1    2  501    0 -0.20099659697E+02 -0.19132673414E+02 -0.10017437778E+04  0.10021280617E+04  0.00000000000E+00 0. -1.
          1    1    1    2  502    0  0.34229947928E+02 -0.74379395187E+02  0.19228143611E+04  0.19245568453E+04  0.00000000000E+00 0. -1.
         22    1    3    3    0    0  0.48961613570E+02  0.15314177129E+02 -0.44493466193E+02  0.67907526522E+02  0.00000000000E+00 0.  1.
         22    1    3    3    0    0 -0.63091901800E+02  0.78197891472E+02 -0.24916083693E+02  0.10351960940E+03  0.00000000000E+00 0.  1.
</event>
<event>
 7    1  0.6089676E-006  0.8509429E+02  0.7818608E-02  0.1377262E+00
          2   -1    0    0  502    0  0.00000000000E+00  0.00000000000E+00  0.15810183908E+03  0.15810183908E+03  0.00000000000E+00 0. -1.
          1   -1    0    0  501    0 -0.00000000000E+00 -0.00000000000E+00 -0.18215832209E+03  0.18215832209E+03  0.00000000000E+00 0. -1.
         25    2    1    2    0    0 -0.54219845851E+02 -0.61355492517E+02 -0.71206664865E+01  0.14954856587E+03  0.12493911124E+03 0.  0.
          2    1    1    2  501    0  0.12258045746E+02  0.88433462043E+02 -0.73221450632E+02  0.11546478999E+03  0.00000000000E+00 0. -1.
          1    1    1    2  502    0  0.41961800105E+02 -0.27077969526E+02  0.56285634108E+02  0.75246805305E+02  0.00000000000E+00 0. -1.
         22    1    3    3    0    0 -0.67272401633E+02 -0.73927614304E+02  0.33215146941E+02  0.10532860089E+03  0.00000000000E+00 0. -1.
         22    1    3    3    0    0  0.13052555782E+02  0.12572121787E+02 -0.40335813428E+02  0.44219964988E+02  0.00000000000E+00 0. -1.
</event>
<event>
 7    1  0.6089676E-006  0.5944979E+02  0.7818608E-02  0.1415677E+00
          2   -1    0    0  502    0  0.00000000000E+00  0.00000000000E+00  0.22775959952E+04  0.22775959952E+04  0.00000000000E+00 0. -1.
          1   -1    0    0  501    0 -0.00000000000E+00 -0.00000000000E+00 -0.98352796199E+03  0.98352796199E+03  0.00000000000E+00 0. -1.
         25    2    1    2    0    0 -0.17757911681E+02  0.29418723312E+02 -0.70772804556E+03  0.71950280309E+03  0.12499796991E+03 0.  0.
          2    1    1    2  501    0  0.47900737288E+02  0.21850037135E+02 -0.26695172153E+03  0.27209396609E+03  0.00000000000E+00 0. -1.
          1    1    1    2  502    0 -0.30142825607E+02 -0.51268760447E+02  0.22687478003E+04  0.22695271880E+04  0.00000000000E+00 0. -1.
         22    1    3    3    0    0  0.18942458059E+02 -0.11177184684E+02 -0.58157635171E+03  0.58199209534E+03  0.00000000000E+00 0.  1.
         22    1    3    3    0    0 -0.36700369740E+02  0.40595907996E+02 -0.12615169385E+03  0.13751070775E+03  0.00000000000E+00 0.  1.
</event>
<event>
 7    1  0.6089676E-006  0.1394080E+03  0.7818608E-02  0.1262406E+00
          2   -1    0    0  502    0  0.00000000000E+00  0.00000000000E+00  0.78407900760E+03  0.78407900760E+03  0.00000000000E+00 0. -1.
          1   -1    0    0  501    0 -0.00000000000E+00 -0.00000000000E+00 -0.15639445347E+03  0.15639445347E+03  0.00000000000E+00 0. -1.
         25    2    1    2    0    0  0.86144727237E+02 -0.82694831135E+02 -0.23715869395E+02  0.17448766603E+03  0.12499661599E+03 0.  0.
          2    1    1    2  501    0 -0.17136204431E+03  0.80424886734E+02  0.11211995167E+03  0.22000908208E+03  0.00000000000E+00 0. -1.
          1    1    1    2  502    0  0.85217317071E+02  0.22699444008E+01  0.53928047185E+03  0.54597671296E+03  0.00000000000E+00 0. -1.
         22    1    3    3    0    0  0.63193653009E+02 -0.29425950678E+02 -0.71113939165E+02  0.99581708649E+02  0.00000000000E+00 0. -1.
         22    1    3    3    0    0  0.22951074228E+02 -0.53268880457E+02  0.47398069769E+02  0.74905957381E+02  0.00000000000E+00 0. -1.
</event>
<event>
 7    1  0.6089676E-006  0.2730918E+02  0.7818608E-02  0.1633127E+00
          2   -1    0    0  502    0  0.00000000000E+00  0.00000000000E+00  0.11181815510E+03  0.11181815510E+03  0.00000000000E+00 0. -1.
          1   -1    0    0  501    0 -0.00000000000E+00 -0.00000000000E+00 -0.69851379805E+03  0.69851379805E+03  0.00000000000E+00 0. -1.
         25    2    1    2    0    0 -0.49145251982E+01 -0.21939883372E+00 -0.12029084720E+03  0.17354952084E+03  0.12500139028E+03 0.  0.
          2    1    1    2  501    0  0.83261815087E+01 -0.26365771503E+02 -0.54912885996E+03  0.54982450295E+03  0.00000000000E+00 0. -1.
          1    1    1    2  502    0 -0.34116563105E+01  0.26585170337E+02  0.82724064200E+02  0.86957929359E+02  0.00000000000E+00 0. -1.
         22    1    3    3    0    0 -0.35878531215E+02  0.24971107740E+02  0.31391921078E+01  0.43825560476E+02  0.00000000000E+00 0.  1.
         22    1    3    3    0    0  0.30964006017E+02 -0.25190506573E+02 -0.12343003931E+03  0.12972396037E+03  0.00000000000E+00 0.  1.
</event>
<event>
 7    1  0.6089676E-006  0.3519474E+02  0.7818608E-02  0.1567495E+00
          2   -1    0    0  502    0  0.00000000000E+00  0.00000000000E+00  0.97205568137E+03  0.97205568137E+03  0.00000000000E+00 0. -1.
          1   -1    0    0  501    0 -0.00000000000E+00 -0.00000000000E+00 -0.38016588437E+03  0.38016588437E+03  0.00000000000E+00 0. -1.
         25    2    1    2    0    0 -0.65023013184E+02  0.10735600689E+01  0.98293706617E+01  0.14124353658E+03  0.12499590122E+03 0.  0.
          2    1    1    2  501    0  0.34431197545E+02 -0.51945681778E+01 -0.31322804265E+03  0.31515757583E+03  0.00000000000E+00 0. -1.
          1    1    1    2  502    0  0.30591815640E+02  0.41210081089E+01  0.89528846899E+03  0.89582045333E+03  0.00000000000E+00 0. -1.
         22    1    3    3    0    0 -0.15135202569E+01  0.33026537668E+02 -0.41862279289E+02  0.53343166022E+02  0.00000000000E+00 0. -1.
         22    1    3    3    0    0 -0.63509492927E+02 -0.31952977599E+02  0.51691649951E+02  0.87900370557E+02  0.00000000000E+00 0. -1.
</event>
<event>
 7    1  0.6089676E-006  0.8390899E+02  0.7818608E-02  0.1337805E+00
          2   -1    0    0  502    0  0.00000000000E+00  0.00000000000E+00  0.13857288349E+04  0.13857288349E+04  0.00000000000E+00 0. -1.
          1   -1    0    0  501    0 -0.00000000000E+00 -0.00000000000E+00 -0.60501267777E+03  0.60501267777E+03  0.00000000000E+00 0. -1.
         25    2    1    2    0    0  0.88989539892E+01  0.27695132276E+02 -0.28693859367E+03  0.31433100892E+03  0.12499605954E+03 0.  0.
          2    1    1    2  501    0  0.70648960671E+02 -0.10963400008E+00 -0.29896521752E+03  0.30719942863E+03  0.00000000000E+00 0. -1.
          1    1    1    2  502    0 -0.79547914661E+02 -0.27585498276E+02  0.13666199683E+04  0.13692110751E+04  0.00000000000E+00 0. -1.
         22    1    3    3    0    0 -0.39128997716E+02  0.30129341355E+02 -0.42341034640E+02  0.65050894591E+02  0.00000000000E+00 0. -1.
         22    1    3    3    0    0  0.48027951705E+02 -0.24342090785E+01 -0.24459755903E+03  0.24928011433E+03  0.00000000000E+00 0. -1.
</event>
<event>
 7    1  0.6089676E-006  0.2434456E+03  0.7818608E-02  0.1318771E+00
          2   -1    0    0  502    0  0.00000000000E+00  0.00000000000E+00  0.14409824376E+03  0.14409824376E+03  0.00000000000E+00 0. -1.
          1   -1    0    0  501    0 -0.00000000000E+00 -0.00000000000E+00 -0.10020716665E+04  0.10020716665E+04  0.00000000000E+00 0. -1.
         25    2    1    2    0    0  0.18412821209E+03 -0.12935184050E+03 -0.22687707245E+03  0.34312585602E+03  0.12500819946E+03 0.  0.
          2    1    1    2  501    0 -0.19653073667E+03  0.15534685695E+03 -0.69185047918E+03  0.73580844108E+03  0.00000000000E+00 0. -1.
          1    1    1    2  502    0  0.12402524582E+02 -0.25995016454E+02  0.60754128912E+02  0.67235613154E+02  0.00000000000E+00 0. -1.
         22    1    3    3    0    0  0.18066569070E+02 -0.74330629914E+02 -0.37092526455E+02  0.85013522337E+02  0.00000000000E+00 0.  1.
         22    1    3    3    0    0  0.16606164302E+03 -0.55021210584E+02 -0.18978454600E+03  0.25811233368E+03  0.00000000000E+00 0.  1.
</event>
<event>
 7    1  0.6089676E-006  0.5795438E+02  0.7818608E-02  0.1429952E+00
          2   -1    0    0  502    0  0.00000000000E+00  0.00000000000E+00  0.69856657745E+02  0.69856657745E+02  0.00000000000E+00 0. -1.
          1   -1    0    0  501    0 -0.00000000000E+00 -0.00000000000E+00 -0.63389758210E+03  0.63389758210E+03  0.00000000000E+00 0. -1.
         25    2    1    2    0    0  0.52469672038E+02 -0.45192878348E+02 -0.21685289253E+03  0.25968835001E+03  0.12496959388E+03 0.  0.
          2    1    1    2  501    0 -0.58572771831E+01  0.58275658454E+02 -0.38070404041E+03  0.38518297788E+03  0.00000000000E+00 0. -1.
          1    1    1    2  502    0 -0.46612394855E+02 -0.13082780106E+02  0.33516008582E+02  0.58882911958E+02  0.00000000000E+00 0. -1.
         22    1    3    3    0    0  0.48413436742E+02 -0.77446200202E+02 -0.88114437886E+02  0.12690913658E+03  0.00000000000E+00 0. -1.
         22    1    3    3    0    0  0.40562352958E+01  0.32253321854E+02 -0.12873845465E+03  0.13277921343E+03  0.00000000000E+00 0. -1.
</event>
<event>
 7    1  0.6089676E-006  0.5058764E+02  0.7818608E-02  0.1494071E+00
          2   -1    0    0  502    0  0.00000000000E+00  0.00000000000E+00  0.53488459521E+03  0.53488459521E+03  0.00000000000E+00 0. -1.
          1   -1    0    0  501    0 -0.00000000000E+00 -0.00000000000E+00 -0.38842397018E+03  0.38842397018E+03  0.00000000000E+00 0. -1.
         25    2    1    2    0    0 -0.11070348153E+02  0.12967058356E+02 -0.20271601839E+03  0.23876265270E+03  0.12499249178E+03 0.  0.
          2    1    1    2  501    0 -0.31807926677E+02  0.14240942677E+02 -0.16460848690E+03  0.16825725127E+03  0.00000000000E+00 0. -1.
          1    1    1    2  502    0  0.42878274830E+02 -0.27208001033E+02  0.51378513032E+03  0.51628866142E+03  0.00000000000E+00 0. -1.
         22    1    3    3    0    0  0.29621065367E+01 -0.24748674348E+02  0.64617004103E+01  0.25749262695E+02  0.00000000000E+00 0. -1.
         22    1    3    3    0    0 -0.14032454690E+02  0.37715732704E+02 -0.20917771880E+03  0.21301339000E+03  0.00000000000E+00 0. -1.
</event>
<event>
 7    1  0.6089676E-006  0.1769930E+03  0.7818608E-02  0.1288574E+00
          2   -1    0    0  502    0  0.00000000000E+00  0.00000000000E+00  0.38129184434E+03  0.38129184434E+03  0.00000000000E+00 0. -1.
          1   -1    0    0  501    0 -0.00000000000E+00 -0.00000000000E+00 -0.82531153403E+03  0.82531153403E+03  0.00000000000E+00 0. -1.
         25    2    1    2    0    0 -0.12359063027E+03 -0.53470935418E+02 -0.59420622365E+03  0.62196360593E+03  0.12499562409E+03 0.  0.
          2    1    1    2  501    0 -0.50475242314E+02  0.13496767124E+02 -0.19182030005E+03  0.19880880343E+03  0.00000000000E+00 0. -1.
          1    1    1    2  502    0  0.17406587258E+03  0.39974168294E+02  0.34200683402E+03  0.38583096901E+03  0.00000000000E+00 0. -1.
         22    1    3    3    0    0 -0.82287172582E+02  0.89289497725E+01 -0.46781752318E+03  0.47508329786E+03  0.00000000000E+00 0.  1.
         22    1    3    3    0    0 -0.41303457686E+02 -0.62399885190E+02 -0.12638870048E+03  0.14688030806E+03  0.00000000000E+00 0.  1.
</event>
<event>
 7    1  0.6089676E-006  0.1302912E+03  0.7818608E-02  0.1325337E+00
          2   -1    0    0  502    0  0.00000000000E+00  0.00000000000E+00  0.13223071904E+04  0.13223071904E+04  0.00000000000E+00 0. -1.
          1   -1    0    0  501    0 -0.00000000000E+00 -0.00000000000E+00 -0.40329477684E+02  0.40329477684E+02  0.00000000000E+00 0. -1.
         25    2    1    2    0    0  0.27156426519E+01 -0.16178667319E+03  0.38233753269E+03  0.43357880101E+03  0.12500514168E+03 0.  0.
          2    1    1    2  501    0 -0.12581492549E+02  0.11199515258E+03  0.21688397918E+03  0.24441740646E+03  0.00000000000E+00 0. -1.
          1    1    1    2  502    0  0.98658498967E+01  0.49791520609E+02  0.68275620084E+03  0.68464046061E+03  0.00000000000E+00 0. -1.
         22    1    3    3    0    0  0.15496534741E+02 -0.17665048380E+03  0.29607833217E+03  0.34512014546E+03  0.00000000000E+00 0.  1.
         22    1    3    3    0    0 -0.12780892089E+02  0.14863810616E+02  0.86259200517E+02  0.88458655554E+02  0.00000000000E+00 0.  1.
</event>
<event>
 7    1  0.6089676E-006  0.5488974E+02  0.7818608E-02  0.1535789E+00
          2   -1    0    0  502    0  0.00000000000E+00  0.00000000000E+00  0.36224331166E+04  0.36224331166E+04  0.00000000000E+00 0. -1.
          1   -1    0    0  501    0 -0.00000000000E+00 -0.00000000000E+00 -0.99976848701E+03  0.99976848701E+03  0.00000000000E+00 0. -1.
         25    2    1    2    0    0 -0.70602787825E+02  0.33138925989E+02  0.71877960917E+03  0.73372439454E+03  0.12499767406E+03 0.  0.
          2    1    1    2  501    0  0.20222597118E+02 -0.13387730602E+02 -0.99189508559E+03  0.99219153674E+03  0.00000000000E+00 0. -1.
          1    1    1    2  502    0  0.50380190707E+02 -0.19751195387E+02  0.28957801060E+04  0.28962856723E+04  0.00000000000E+00 0. -1.
         22    1    3    3    0    0 -0.94442528754E+02  0.54988495560E+02  0.45354243539E+03  0.46652316832E+03  0.00000000000E+00 0.  1.
         22    1    3    3    0    0  0.23839740930E+02 -0.21849569571E+02  0.26523717378E+03  0.26720122622E+03  0.00000000000E+00 0.  1.
</event>
<event>
 7    1  0.6089676E-006  0.1764562E+03  0.7818608E-02  0.1287970E+00
          2   -1    0    0  502    0  0.00000000000E+00  0.00000000000E+00  0.29348845716E+03  0.29348845716E+03  0.00000000000E+00 0. -1.
          1   -1    0    0  501    0 -0.00000000000E+00 -0.00000000000E+00 -0.34215162771E+03  0.34215162771E+03  0.00000000000E+00 0. -1.
         25    2    1    2    0    0  0.34406960451E+02  0.12800323322E+03 -0.13160600556E+03  0.22475392360E+03  0.12500207531E+03 0.  0.
          2    1    1    2  501    0  0.16121725624E+02  0.50179742577E+02 -0.12305720296E+03  0.13386930867E+03  0.00000000000E+00 0. -1.
          1    1    1    2  502    0 -0.50528686075E+02 -0.17818297579E+03  0.20600003798E+03  0.27701685261E+03  0.00000000000E+00 0. -1.
         22    1    3    3    0    0 -0.23890103805E+01  0.71709690989E+02  0.55840393904E+01  0.71966441125E+02  0.00000000000E+00 0.  1.
         22    1    3    3    0    0  0.36795970831E+02  0.56293542229E+02 -0.13719004496E+03  0.15278748247E+03  0.00000000000E+00 0.  1.
</event>
<event>
 7    1  0.6089676E-006  0.5135294E+02  0.7818608E-02  0.1514548E+00
          2   -1    0    0  502    0  0.00000000000E+00  0.00000000000E+00  0.22172945256E+03  0.22172945256E+03  0.00000000000E+00 0. -1.
          1   -1    0    0  501    0 -0.00000000000E+00 -0.00000000000E+00 -0.13806268918E+03  0.13806268918E+03  0.00000000000E+00 0. -1.
         25    2    1    2    0    0 -0.35525823326E+02 -0.29320414243E+02  0.60925329862E+02  0.14648678694E+03  0.12499884845E+03 0.  0.
          2    1    1    2  501    0 -0.17357324912E+02  0.24284203435E+02 -0.86677211416E+02  0.91672996261E+02  0.00000000000E+00 0. -1.
          1    1    1    2  502    0  0.52883148238E+02  0.50362108081E+01  0.10941864493E+03  0.12163235854E+03  0.00000000000E+00 0. -1.
         22    1    3    3    0    0 -0.43715432365E+02  0.41304501746E+02  0.40518621481E+02  0.72517994857E+02  0.00000000000E+00 0.  1.
         22    1    3    3    0    0  0.81896090391E+01 -0.70624915989E+02  0.20406708381E+02  0.73968792079E+02  0.00000000000E+00 0.  1.
</event>
<event>
 7    1  0.6089676E-006  0.2760846E+02  0.7818608E-02  0.1665169E+00
          2   -1    0    0  502    0  0.00000000000E+00  0.00000000000E+00  0.24022617601E+03  0.24022617601E+03  0.00000000000E+00 0. -1.
          1   -1    0    0  501    0 -0.00000000000E+00 -0.00000000000E+00 -0.95331127442E+03  0.95331127442E+03  0.00000000000E+00 0. -1.
         25    2    1    2    0    0  0.47351534494E+01  0.47213990884E+01 -0.48593683485E+03  0.50180016647E+03  0.12499634522E+03 0.  0.
          2    1    1    2  501    0 -0.21145408143E+02 -0.19553728549E+02 -0.45846329079E+03  0.45936702710E+03  0.00000000000E+00 0. -1.
          1    1    1    2  502    0  0.16410254694E+02  0.14832329460E+02  0.23131502723E+03  0.23237025687E+03  0.00000000000E+00 0. -1.
         22    1    3    3    0    0 -0.35478907353E+02  0.36736394220E+02 -0.98350902769E+02  0.11082064610E+03  0.00000000000E+00 0.  1.
         22    1    3    3    0    0  0.40214060802E+02 -0.32014995132E+02 -0.38758593208E+03  0.39097952036E+03  0.00000000000E+00 0.  1.
</event>
<event>
 7    1  0.6089676E-006  0.5289605E+02  0.7818608E-02  0.1433652E+00
          2   -1    0    0  502    0  0.00000000000E+00  0.00000000000E+00  0.47540968037E+03  0.47540968037E+03  0.00000000000E+00 0. -1.
          1   -1    0    0  501    0 -0.00000000000E+00 -0.00000000000E+00 -0.51752331464E+03  0.51752331464E+03  0.00000000000E+00 0. -1.
         25    2    1    2    0    0 -0.30794579472E+02  0.15359633913E+02  0.58000521658E+02  0.14203273661E+03  0.12500005311E+03 0.  0.
          2    1    1    2  501    0  0.33390336728E+02  0.39314118771E+02 -0.47209980628E+03  0.47490919301E+03  0.00000000000E+00 0. -1.
          1    1    1    2  502    0 -0.25957572565E+01 -0.54673752684E+02  0.37198565034E+03  0.37599106538E+03  0.00000000000E+00 0. -1.
         22    1    3    3    0    0 -0.53470363433E+02  0.37565092031E+02 -0.10829329227E+02  0.66238133099E+02  0.00000000000E+00 0. -1.
         22    1    3    3    0    0  0.22675783961E+02 -0.22205458118E+02  0.68829850885E+02  0.75794603511E+02  0.00000000000E+00 0. -1.
</event>
<event>
 7    1  0.6089676E-006  0.1102258E+03  0.7818608E-02  0.1452773E+00
          2   -1    0    0  502    0  0.00000000000E+00  0.00000000000E+00  0.16053872725E+03  0.16053872725E+03  0.00000000000E+00 0. -1.
          1   -1    0    0  501    0 -0.00000000000E+00 -0.00000000000E+00 -0.13172346867E+04  0.13172346867E+04  0.00000000000E+00 0. -1.
         25    2    1    2    0    0 -0.35686281263E+02 -0.83798767069E+02 -0.20175841649E+03  0.25422211399E+03  0.12500672214E+03 0.  0.
          2    1    1    2  501    0 -0.12186473245E+02 -0.17677214687E+02 -0.10656838035E+04  0.10659000718E+04  0.00000000000E+00 0. -1.
          1    1    1    2  502    0  0.47872754508E+02  0.10147598176E+03  0.11074626057E+03  0.15765122812E+03  0.00000000000E+00 0. -1.
         22    1    3    3    0    0  0.21763153429E+02 -0.92291091397E+02 -0.14321296072E+03  0.17175922833E+03  0.00000000000E+00 0. -1.
         22    1    3    3    0    0 -0.57449434693E+02  0.84923243281E+01 -0.58545455772E+02  0.82462885655E+02  0.00000000000E+00 0. -1.
</event>
<event>
 7    1  0.6089676E-006  0.8453631E+02  0.7818608E-02  0.1495055E+00
          2   -1    0    0  502    0  0.00000000000E+00  0.00000000000E+00  0.16365630355E+04  0.16365630355E+04  0.00000000000E+00 0. -1.
          1   -1    0    0  501    0 -0.00000000000E+00 -0.00000000000E+00 -0.22092136757E+03  0.22092136757E+03  0.00000000000E+00 0. -1.
         25    2    1    2    0    0  0.44032154375E+02  0.82714076479E+02  0.37070259787E+03  0.40227654709E+03  0.12500222081E+03 0.  0.
          2    1    1    2  501    0 -0.54197258635E+02 -0.64666608175E+02 -0.19636817670E+03  0.21372780324E+03  0.00000000000E+00 0. -1.
          1    1    1    2  502    0  0.10165104260E+02 -0.18047468304E+02  0.12413072467E+04  0.12414800527E+04  0.00000000000E+00 0. -1.
         22    1    3    3    0    0  0.28354545036E+02  0.52764452463E+02  0.45244472663E+02  0.75067502785E+02  0.00000000000E+00 0.  1.
         22    1    3    3    0    0  0.15677609339E+02  0.29949624016E+02  0.32545812520E+03  0.32720904431E+03  0.00000000000E+00 0.  1.
</event>
<event>
 7    1  0.6089676E-006  0.1355925E+03  0.7818608E-02  0.1302214E+00
          2   -1    0    0  502    0  0.00000000000E+00  0.00000000000E+00  0.19251261487E+04  0.19251261487E+04  0.00000000000E+00 0. -1.
          1   -1    0    0  501    0 -0.00000000000E+00 -0.00000000000E+00 -0.66002806872E+02  0.66002806872E+02  0.00000000000E+00 0. -1.
         25    2    1    2    0    0  0.14924336461E+02 -0.18816071089E+03  0.81339907038E+03  0.84431630295E+03  0.12499913119E+03 0.  0.
          2    1    1    2  501    0 -0.21359722989E+02  0.12841743748E+03  0.35680214472E+02  0.13498279046E+03  0.00000000000E+00 0. -1.
          1    1    1    2  502    0  0.64353865277E+01  0.59743273402E+02  0.10100440570E+04  0.10118298622E+04  0.00000000000E+00 0. -1.
         22    1    3    3    0    0 -0.32192869992E+02 -0.19964232593E+02  0.60182746521E+02  0.71111985208E+02  0.00000000000E+00 0.  1.
         22    1    3    3    0    0  0.47117206454E+02 -0.16819647829E+03  0.75321632386E+03  0.77320431774E+03  0.00000000000E+00 0.  1.
</event>
<event>
 7    1  0.6089676E-006  0.8207762E+02  0.7818608E-02  0.1347181E+00
          2   -1    0    0  502    0  0.00000000000E+00  0.00000000000E+00  0.27969656982E+03  0.27969656982E+03  0.00000000000E+00 0. -1.
          1   -1    0    0  501    0 -0.00000000000E+00 -0.00000000000E+00 -0.20640350542E+03  0.20640350542E+03  0.00000000000E+00 0. -1.
         25    2    1    2    0    0 -0.65530668372E+02  0.50751619160E+02  0.47336433230E+02  0.15727678718E+03  0.12500101811E+03 0.  0.
          2    1    1    2  501    0 -0.19817413755E+02 -0.63595504090E+02 -0.13254739762E+03  0.14834396059E+03  0.00000000000E+00 0. -1.
          1    1    1    2  502    0  0.85348082127E+02  0.12843884930E+02  0.15850402879E+03  0.18047932747E+03  0.00000000000E+00 0. -1.
         22    1    3    3    0    0 -0.95684192960E+02  0.14205679073E+02  0.10577352652E+02  0.97309539561E+02  0.00000000000E+00 0.  1.
         22    1    3    3    0    0  0.30153524588E+02  0.36545940087E+02  0.36759080578E+02  0.59967247618E+02  0.00000000000E+00 0.  1.
</event>
<event>
 7    1  0.6089676E-006  0.6459481E+02  0.7818608E-02  0.1424153E+00
          2   -1    0    0  502    0  0.00000000000E+00  0.00000000000E+00  0.17917668029E+04  0.17917668029E+04  0.00000000000E+00 0. -1.
          1   -1    0    0  501    0 -0.00000000000E+00 -0.00000000000E+00 -0.79974444187E+03  0.79974444187E+03  0.00000000000E+00 0. -1.
         25    2    1    2    0    0  0.62516771115E+02 -0.57654369424E+02  0.59644273800E+03  0.61530608549E+03  0.12500106457E+03 0.  0.
          2    1    1    2  501    0 -0.17348070311E+02  0.62204086277E+02 -0.78855789920E+03  0.79119774032E+03  0.00000000000E+00 0. -1.
          1    1    1    2  502    0 -0.45168700803E+02 -0.45497168528E+01  0.11841375222E+04  0.11850074189E+04  0.00000000000E+00 0. -1.
         22    1    3    3    0    0 -0.24015867107E+02 -0.41213919641E+01  0.31663532211E+03  0.31757152730E+03  0.00000000000E+00 0. -1.
         22    1    3    3    0    0  0.86532638221E+02 -0.53532977460E+02  0.27980741589E+03  0.29773455819E+03  0.00000000000E+00 0. -1.
</event>
<event>
 7    1  0.6089676E-006  0.8626350E+02  0.7818608E-02  0.1399479E+00
          2   -1    0    0  502    0  0.00000000000E+00  0.00000000000E+00  0.10661067964E+04  0.10661067964E+04  0.00000000000E+00 0. -1.
          1   -1    0    0  501    0 -0.00000000000E+00 -0.00000000000E+00 -0.11272424203E+04  0.11272424203E+04  0.00000000000E+00 0. -1.
         25    2    1    2    0    0 -0.58308233762E+02  0.66451906740E+02  0.92664873594E+02  0.17896247388E+03  0.12500032890E+03 0.  0.
          2    1    1    2  501    0  0.80348692484E+02 -0.31653788741E+02 -0.10819162533E+04  0.10853573853E+04  0.00000000000E+00 0. -1.
          1    1    1    2  502    0 -0.22040458722E+02 -0.34798118000E+02  0.92811575583E+03  0.92902935748E+03  0.00000000000E+00 0. -1.
         22    1    3    3    0    0 -0.13177290979E+02 -0.36357701706E+02  0.37481483835E+02  0.53855223530E+02  0.00000000000E+00 0.  1.
         22    1    3    3    0    0 -0.45130942783E+02  0.10280960845E+03  0.55183389759E+02  0.12510725035E+03  0.00000000000E+00 0.  1.
</event>
<event>
 7    1  0.6089676E-006  0.1670282E+03  0.7818608E-02  0.1360202E+00
          2   -1    0    0  502    0  0.00000000000E+00  0.00000000000E+00  0.10878338848E+04  0.10878338848E+04  0.00000000000E+00 0. -1.
          1   -1    0    0  501    0 -0.00000000000E+00 -0.00000000000E+00 -0.24137427889E+03  0.24137427889E+03  0.00000000000E+00 0. -1.
         25    2    1    2    0    0  0.13899369699E+03  0.20606569603E+02  0.51719694648E+02  0.19504613227E+03  0.12499675349E+03 0.  0.
          2    1    1    2  501    0  0.29157160294E+02  0.29837972995E+01 -0.16090348255E+03  0.16355113494E+03  0.00000000000E+00 0. -1.
          1    1    1    2  502    0 -0.16815085729E+03 -0.23590366902E+02  0.95564339382E+03  0.97061089648E+03  0.00000000000E+00 0. -1.
         22    1    3    3    0    0  0.32461574043E+02  0.17057696131E+02 -0.40115199683E+02  0.54350234887E+02  0.00000000000E+00 0. -1.
         22    1    3    3    0    0  0.10653212295E+03  0.35488734714E+01  0.91834894331E+02  0.14069589738E+03  0.00000000000E+00 0. -1.
</event>
<event>
 7    1  0.6089676E-006  0.5987966E+02  0.7818608E-02  0.1420072E+00
          2   -1    0    0  502    0  0.00000000000E+00  0.00000000000E+00  0.33618427326E+03  0.33618427326E+03  0.00000000000E+00 0. -1.
          1   -1    0    0  501    0 -0.00000000000E+00 -0.00000000000E+00 -0.14729485969E+04  0.14729485969E+04  0.00000000000E+00 0. -1.
         25    2    1    2    0    0 -0.20491367109E+02  0.77637830613E+01  0.13450005156E+03  0.18491812705E+03  0.12499710952E+03 0.  0.
          2    1    1    2  501    0  0.15457513716E+02 -0.58040743489E+02 -0.14434853509E+04  0.14447344465E+04  0.00000000000E+00 0. -1.
          1    1    1    2  502    0  0.50338533926E+01  0.50276960427E+02  0.17222097567E+03  0.17948029666E+03  0.00000000000E+00 0. -1.
         22    1    3    3    0    0 -0.38106440507E+02  0.37960558913E+02  0.13958638337E+03  0.14959098658E+03  0.00000000000E+00 0.  1.
         22    1    3    3    0    0  0.17615073398E+02 -0.30196775852E+02 -0.50863318184E+01  0.35327140473E+02  0.00000000000E+00 0.  1.
</event>
<event>
 7    1  0.6089676E-006  0.2994194E+03  0.7818608E-02  0.1170775E+00
          2   -1    0    0  502    0  0.00000000000E+00  0.00000000000E+00  0.34634992139E+03  0.34634992139E+03  0.00000000000E+00 0. -1.
          1   -1    0    0  501    0 -0.00000000000E+00 -0.00000000000E+00 -0.25974839646E+04  0.25974839646E+04  0.00000000000E+00 0. -1.
         25    2    1    2    0    0  0.19042206134E+03  0.10915358557E+03 -0.26616228567E+03  0.36693818730E+03  0.12500481712E+03 0.  0.
          2    1    1    2  501    0 -0.29462678288E+03 -0.11810466177E+03 -0.22602443347E+04  0.22824237347E+04  0.00000000000E+00 0. -1.
          1    1    1    2  502    0  0.10420472154E+03  0.89510762026E+01  0.27527257721E+03  0.29447196389E+03  0.00000000000E+00 0. -1.
         22    1    3    3    0    0  0.17072763903E+03  0.38508036690E+02 -0.21637272287E+03  0.27829471936E+03  0.00000000000E+00 0. -1.
         22    1    3    3    0    0  0.19694422306E+02  0.70645548878E+02 -0.49789562793E+02  0.88643467945E+02  0.00000000000E+00 0. -1.
</event>
<event>
 7    1  0.6089676E-006  0.2482619E+02  0.7818608E-02  0.1675646E+00
          2   -1    0    0  502    0  0.00000000000E+00  0.00000000000E+00  0.19022368020E+04  0.19022368020E+04  0.00000000000E+00 0. -1.
          1   -1    0    0  501    0 -0.00000000000E+00 -0.00000000000E+00 -0.90388886910E+03  0.90388886910E+03  0.00000000000E+00 0. -1.
         25    2    1    2    0    0  0.56939506757E+00  0.20139479487E+01  0.18981934188E+03  0.22728672710E+03  0.12499397412E+03 0.  0.
          2    1    1    2  501    0 -0.81079268879E+01  0.21758711099E+02 -0.88491106131E+03  0.88521566096E+03  0.00000000000E+00 0. -1.
          1    1    1    2  502    0  0.75385318204E+01 -0.23772659048E+02  0.16934396523E+04  0.16936232830E+04  0.00000000000E+00 0. -1.
         22    1    3    3    0    0 -0.48000212581E+02  0.32734667653E+02  0.52025503419E+02  0.77988665075E+02  0.00000000000E+00 0.  1.
         22    1    3    3    0    0  0.48569607649E+02 -0.30720719704E+02  0.13779383847E+03  0.14929806203E+03  0.00000000000E+00 0.  1.
</event>
<event>
 7    1  0.6089676E-006  0.3985985E+02  0.7818608E-02  0.1566801E+00
          2   -1    0    0  502    0  0.00000000000E+00  0.00000000000E+00  0.20120640640E+03  0.20120640640E+03  0.00000000000E+00 0. -1.
          1   -1    0    0  501    0 -0.00000000000E+00 -0.00000000000E+00 -0.11818287434E+04  0.11818287434E+04  0.00000000000E+00 0. -1.
         25    2    1    2    0    0 -0.25327377788E+02  0.33418046335E+02 -0.26732072759E+03  0.29806677214E+03  0.12500074946E+03 0.  0.
          2    1    1    2  501    0  0.38886528148E+02 -0.96376516430E+01 -0.89767768241E+03  0.89857123696E+03  0.00000000000E+00 0. -1.
          1    1    1    2  502    0 -0.13559150360E+02 -0.23780394692E+02  0.18437607305E+03  0.18639714066E+03  0.00000000000E+00 0. -1.
         22    1    3    3    0    0 -0.36370141333E+01 -0.25713872707E+02 -0.21392229617E+03  0.21549287672E+03  0.00000000000E+00 0. -1.
         22    1    3    3    0    0 -0.21690363654E+02  0.59131919043E+02 -0.53398431423E+02  0.82573895412E+02  0.00000000000E+00 0. -1.
</event>
<event>
 7    1  0.6089676E-006  0.6294225E+02  0.7818608E-02  0.1452941E+00
          2   -1    0    0  502    0  0.00000000000E+00  0.00000000000E+00  0.30028465627E+03  0.30028465627E+03  0.00000000000E+00 0. -1.
          1   -1    0    0  501    0 -0.00000000000E+00 -0.00000000000E+00 -0.26508364623E+04  0.26508364623E+04  0.00000000000E+00 0. -1.
         25    2    1    2    0    0 -0.60751881192E+02  0.69827692810E+02 -0.65903799480E+02  0.16892330063E+03  0.12500029184E+03 0.  0.
          2    1    1    2  501    0  0.53367139919E+02 -0.33007319366E+02 -0.25316146981E+04  0.25323922513E+04  0.00000000000E+00 0. -1.
          1    1    1    2  502    0  0.73847412730E+01 -0.36820373444E+02  0.24696669164E+03  0.24980556656E+03  0.00000000000E+00 0. -1.
         22    1    3    3    0    0 -0.15923294045E+02 -0.20362957410E+02  0.22985259955E+02  0.34590800842E+02  0.00000000000E+00 0. -1.
         22    1    3    3    0    0 -0.44828587147E+02  0.90190650220E+02 -0.88889059435E+02  0.13433249979E+03  0.00000000000E+00 0. -1.
</event>
<event>
 7    1  0.9328665E-006  0.5617694E+02  0.7818608E-02  0.1430345E+00
          2   -1    0    0  502    0  0.00000000000E+00  0.00000000000E+00  0.23221654601E+04  0.23221654601E+04  0.00000000000E+00 0. -1.
          1   -1    0    0  501    0 -0.00000000000E+00 -0.00000000000E+00 -0.21083314233E+04  0.21083314233E+04  0.00000000000E+00 0. -1.
         25    2    1    2    0    0  0.52209847203E+02  0.40925859429E+02 -0.41544150089E+03  0.43887646485E+03  0.12498046495E+03 0.  0.
          2    1    1    2  501    0 -0.47465465534E+02  0.15059186464E+02 -0.16804619755E+04  0.16811996313E+04  0.00000000000E+00 0. -1.
          1    1    1    2  502    0 -0.47443816690E+01 -0.55985045893E+02  0.23097375131E+04  0.23104207872E+04  0.00000000000E+00 0. -1.
         22    1    3    3    0    0  0.30779179107E+02  0.23178356396E+02 -0.21834204921E+02  0.44286866860E+02  0.00000000000E+00 0.  1.
         22    1    3    3    0    0  0.21430668095E+02  0.17747503034E+02 -0.39360729597E+03  0.39458959799E+03  0.00000000000E+00 0.  1.
</event>
<event>
 7    1  0.6089676E-006  0.7990346E+02  0.7818608E-02  0.1449806E+00
          2   -1    0    0  502    0  0.00000000000E+00  0.00000000000E+00  0.32890129489E+03  0.32890129489E+03  0.00000000000E+00 0. -1.
          1   -1    0    0  501    0 -0.00000000000E+00 -0.00000000000E+00 -0.88695632781E+03  0.88695632781E+03  0.00000000000E+00 0. -1.
         25    2    1    2    0    0  0.28981019681E+02  0.65825975370E+02  0.20103188345E+03  0.24741263671E+03  0.12500494432E+03 0.  0.
          2    1    1    2  501    0  0.30265827563E+02 -0.60839081022E+00 -0.84490549554E+03  0.84544762514E+03  0.00000000000E+00 0. -1.
          1    1    1    2  502    0 -0.59246847244E+02 -0.65217584560E+02  0.85818579169E+02  0.12299736084E+03  0.00000000000E+00 0. -1.
         22    1    3    3    0    0 -0.10117358941E+02 -0.47681708387E+01  0.15319183937E+03  0.15359959653E+03  0.00000000000E+00 0.  1.
         22    1    3    3    0    0  0.39098378622E+02  0.70594146209E+02  0.47840044079E+02  0.93813040177E+02  0.00000000000E+00 0.  1.
</event>
<event>
 7    1  0.6089676E-006  0.1769528E+03  0.7818608E-02  0.1190773E+00
          2   -1    0    0  502    0  0.00000000000E+00  0.00000000000E+00  0.83419132573E+03  0.83419132573E+03  0.00000000000E+00 0. -1.
          1   -1    0    0  501    0 -0.00000000000E+00 -0.00000000000E+00 -0.98516466706E+03  0.98516466706E+03  0.00000000000E+00 0. -1.
         25    2    1    2    0    0 -0.53995533676E+02  0.28632181617E+02  0.22547458898E+02  0.14094582660E+03  0.12498807404E+03 0.  0.
          2    1    1    2  501    0  0.10610888827E+03 -0.16006786186E+03 -0.90920336754E+03  0.92926399914E+03  0.00000000000E+00 0. -1.
          1    1    1    2  502    0 -0.52113354592E+02  0.13143568024E+03  0.73568256730E+03  0.74914616705E+03  0.00000000000E+00 0. -1.
         22    1    3    3    0    0 -0.44128521011E+02 -0.34243405368E+02 -0.25302138594E+02  0.61319942884E+02  0.00000000000E+00 0. -1.
         22    1    3    3    0    0 -0.98670126645E+01  0.62875586986E+02  0.47849597491E+02  0.79625883717E+02  0.00000000000E+00 0. -1.
</event>
<event>
 7    1  0.6089676E-006  0.6383518E+02  0.7818608E-02  0.1499303E+00
          2   -1    0    0  502    0  0.00000000000E+00  0.00000000000E+00  0.98765378004E+03  0.98765378004E+03  0.00000000000E+00 0. -1.
          1   -1    0    0  501    0 -0.00000000000E+00 -0.00000000000E+00 -0.60341652809E+02  0.60341652809E+02  0.00000000000E+00 0. -1.
         25    2    1    2    0    0 -0.33412020773E+02  0.31582174743E+02  0.37728618047E+03  0.40010393794E+03  0.12499800912E+03 0.  0.
          2    1    1    2  501    0  0.59488033026E+02 -0.26137244363E+02 -0.26918809643E+02  0.70332097429E+02  0.00000000000E+00 0. -1.
          1    1    1    2  502    0 -0.26076012253E+02 -0.54449303806E+01  0.57694475640E+03  0.57755939748E+03  0.00000000000E+00 0. -1.
         22    1    3    3    0    0 -0.71954667324E+00  0.63226076045E+02  0.94639781271E+02  0.11381890282E+03  0.00000000000E+00 0. -1.
         22    1    3    3    0    0 -0.32692474099E+02 -0.31643901302E+02  0.28264639920E+03  0.28628503512E+03  0.00000000000E+00 0. -1.
</event>
<event>
 7    1  0.6089676E-006  0.1360689E+03  0.7818608E-02  0.1263701E+00
          2   -1    0    0  502    0  0.00000000000E+00  0.00000000000E+00  0.85119511647E+02  0.85119511647E+02  0.00000000000E+00 0. -1.
          1   -1    0    0  501    0 -0.00000000000E+00 -0.00000000000E+00 -0.73012236040E+03  0.73012236040E+03  0.00000000000E+00 0. -1.
         25    2    1    2    0    0 -0.43045178732E+02  0.73242283227E+02 -0.88449972348E+02  0.17512267397E+03  0.12500893515E+03 0.  0.
          2    1    1    2  501    0  0.12917128587E+03 -0.77668099332E+02 -0.52828366966E+03  0.54936435121E+03  0.00000000000E+00 0. -1.
          1    1    1    2  502    0 -0.86126107140E+02  0.44258161051E+01 -0.28269206741E+02  0.90754846863E+02  0.00000000000E+00 0. -1.
         22    1    3    3    0    0 -0.85086836604E+02  0.46103379833E+02 -0.77295587188E+02  0.12385434669E+03  0.00000000000E+00 0. -1.
         22    1    3    3    0    0  0.42041657872E+02  0.27138903394E+02 -0.11154385160E+02  0.51268327283E+02  0.00000000000E+00 0. -1.
</event>
<event>
 7    1  0.6089676E-006  0.9900596E+02  0.7818608E-02  0.1344476E+00
          2   -1    0    0  502    0  0.00000000000E+00  0.00000000000E+00  0.13982029655E+03  0.13982029655E+03  0.00000000000E+00 0. -1.
          1   -1    0    0  501    0 -0.00000000000E+00 -0.00000000000E+00 -0.95211159403E+03  0.95211159403E+03  0.00000000000E+00 0. -1.
         25    2    1    2    0    0 -0.95718783420E+02 -0.11469407886E+03 -0.15956738339E+03  0.25179933981E+03  0.12499736183E+03 0.  0.
          2    1    1    2  501    0  0.31942066470E+02  0.46628342019E+02 -0.72183420716E+03  0.72404359020E+03  0.00000000000E+00 0. -1.
          1    1    1    2  502    0  0.63776716950E+02  0.68065736839E+02  0.69110293071E+02  0.11608896056E+03  0.00000000000E+00 0. -1.
         22    1    3    3    0    0 -0.10843426701E+03 -0.96926280528E+02 -0.73413024607E+02  0.16291766725E+03  0.00000000000E+00 0. -1.
         22    1    3    3    0    0  0.12715483591E+02 -0.17767798330E+02 -0.86154358787E+02  0.88881672568E+02  0.00000000000E+00 0. -1.
</event>
<event>
 7    1  0.6089676E-006  0.9416394E+02  0.7818608E-02  0.1381469E+00
          2   -1    0    0  502    0  0.00000000000E+00  0.00000000000E+00  0.14045748828E+04  0.14045748828E+04  0.00000000000E+00 0. -1.
          1   -1    0    0  501    0 -0.00000000000E+00 -0.00000000000E+00 -0.32794255370E+03  0.32794255370E+03  0.00000000000E+00 0. -1.
         25    2    1    2    0    0 -0.11555421968E+03 -0.20243568070E+02  0.40521708507E+03  0.43998682863E+03  0.12499977440E+03 0.  0.
          2    1    1    2  501    0  0.35556210911E+02 -0.25244249297E+02 -0.30685677313E+03  0.30993966425E+03  0.00000000000E+00 0. -1.
          1    1    1    2  502    0  0.79998008766E+02  0.45487817367E+02  0.97827201714E+03  0.98259094361E+03  0.00000000000E+00 0. -1.
         22    1    3    3    0    0 -0.49228364674E+02 -0.67278215242E+02  0.26607158432E+03  0.27882589212E+03  0.00000000000E+00 0.  1.
         22    1    3    3    0    0 -0.66325855002E+02  0.47034647172E+02  0.13914550075E+03  0.16116093651E+03  0.00000000000E+00 0.  1.
</event>
<event>
 7    1  0.6089676E-006  0.8811435E+02  0.7818608E-02  0.1315542E+00
          2   -1    0    0  502    0  0.00000000000E+00  0.00000000000E+00  0.96503693516E+03  0.96503693516E+03  0.00000000000E+00 0. -1.
          1   -1    0    0  501    0 -0.00000000000E+00 -0.00000000000E+00 -0.12325973383E+04  0.12325973383E+04  0.00000000000E+00 0. -1.
         25    2    1    2    0    0 -0.16497158950E+02 -0.31090478048E+02  0.49742338223E+02  0.13906054939E+03  0.12499904842E+03 0.  0.
          2    1    1    2  501    0  0.89183959238E+02 -0.66813516606E+01 -0.11843217207E+04  0.11876937135E+04  0.00000000000E+00 0. -1.
          1    1    1    2  502    0 -0.72686800288E+02  0.37771829709E+02  0.86701897938E+03  0.87088001049E+03  0.00000000000E+00 0. -1.
         22    1    3    3    0    0 -0.18908431784E+02 -0.39072870201E+01  0.89099593031E+02  0.91167610272E+02  0.00000000000E+00 0.  1.
         22    1    3    3    0    0  0.24112728339E+01 -0.27183191028E+02 -0.39357254808E+02  0.47892939116E+02  0.00000000000E+00 0.  1.
</event>
<event>
 7    1  0.6089676E-006  0.4783047E+02  0.7818608E-02  0.1519685E+00
          2   -1    0    0  502    0  0.00000000000E+00  0.00000000000E+00  0.14581094202E+04  0.14581094202E+04  0.00000000000E+00 0. -1.
          1   -1    0    0  501    0 -0.00000000000E+00 -0.00000000000E+00 -0.38695922154E+02  0.38695922154E+02  0.00000000000E+00 0. -1.
         25    2    1    2    0    0 -0.65264172268E+02  0.35222848473E+02  0.13140234162E+03  0.19593763504E+03  0.12499968082E+03 0.  0.
          2    1    1    2  501    0  0.30862672102E+02 -0.24707450456E+01  0.34106345302E+02  0.46063563694E+02  0.00000000000E+00 0. -1.
          1    1    1    2  502    0  0.34401500165E+02 -0.32752103428E+02  0.12539048112E+04  0.12548041437E+04  0.00000000000E+00 0. -1.
         22    1    3    3    0    0 -0.49161070651E+02  0.45678895474E+02  0.15298172978E+03  0.16705323105E+03  0.00000000000E+00 0. -1.
         22    1    3    3    0    0 -0.16103101617E+02 -0.10456047001E+02 -0.21579388155E+02  0.28884403987E+02  0.00000000000E+00 0. -1.
</event>
<event>
 7    1  0.6089676E-006  0.4003865E+02  0.7818608E-02  0.1512415E+00
          2   -1    0    0  502    0  0.00000000000E+00  0.00000000000E+00  0.30641054368E+04  0.30641054368E+04  0.00000000000E+00 0. -1.
          1   -1    0    0  501    0 -0.00000000000E+00 -0.00000000000E+00 -0.59726309450E+01  0.59726309450E+01  0.00000000000E+00 0. -1.
         25    2    1    2    0    0  0.64851335264E+01 -0.11785862631E+02  0.75246277842E+03  0.76289095737E+03  0.12498566486E+03 0.  0.
          2    1    1    2  501    0  0.34590495335E+02  0.20164098910E+02  0.13583704390E+04  0.13589603904E+04  0.00000000000E+00 0. -1.
          1    1    1    2  502    0 -0.41075628861E+02 -0.83782362792E+01  0.94729958850E+03  0.94822671999E+03  0.00000000000E+00 0. -1.
         22    1    3    3    0    0 -0.31259959870E+02 -0.21110484038E+02  0.71682430323E+02  0.81001286683E+02  0.00000000000E+00 0.  1.
         22    1    3    3    0    0  0.37745093396E+02  0.93246214078E+01  0.68078034809E+03  0.68188967069E+03  0.00000000000E+00 0.  1.
</event>
<event>
 7    1  0.6089676E-006  0.2819626E+03  0.7818608E-02  0.1144306E+00
          2   -1    0    0  502    0  0.00000000000E+00  0.00000000000E+00  0.19308399938E+04  0.19308399938E+04  0.00000000000E+00 0. -1.
          1   -1    0    0  501    0 -0.00000000000E+00 -0.00000000000E+00 -0.34173184680E+03  0.34173184680E+03  0.00000000000E+00 0. -1.
         25    2    1    2    0    0  0.30492369822E+03  0.17407616623E+03  0.31390353259E+02  0.37402303468E+03  0.12500761100E+03 0.  0.
          2    1    1    2  501    0 -0.14188117414E+03  0.52681097709E+02 -0.12285133461E+03  0.19493079810E+03  0.00000000000E+00 0. -1.
          1    1    1    2  502    0 -0.16304252408E+03 -0.22675726394E+03  0.16805691284E+04  0.17036180079E+04  0.00000000000E+00 0. -1.
         22    1    3    3    0    0  0.78244782684E+02  0.93479775932E+02 -0.30391931007E+02  0.12563591841E+03  0.00000000000E+00 0.  1.
         22    1    3    3    0    0  0.22667891554E+03  0.80596390297E+02  0.61782284266E+02  0.24838711626E+03  0.00000000000E+00 0.  1.
</event>
<event>
 7    1  0.6089676E-006  0.7589696E+02  0.7818608E-02  0.1483202E+00
          2   -1    0    0  502    0  0.00000000000E+00  0.00000000000E+00  0.13246060376E+03  0.13246060376E+03  0.00000000000E+00 0. -1.
          1   -1    0    0  501    0 -0.00000000000E+00 -0.00000000000E+00 -0.42692424261E+03  0.42692424261E+03  0.00000000000E+00 0. -1.
         25    2    1    2    0    0  0.46021434052E+02  0.62919699684E+02  0.25667914834E+02  0.14953338364E+03  0.12499811987E+03 0.  0.
          2    1    1    2  501    0 -0.22850854174E+02 -0.72464794110E+02 -0.35715306029E+03  0.36514602065E+03  0.00000000000E+00 0. -1.
          1    1    1    2  502    0 -0.23170579879E+02  0.95450944263E+01  0.37021506610E+02  0.44705442076E+02  0.00000000000E+00 0. -1.
         22    1    3    3    0    0 -0.15542689696E+02  0.67744852028E+02 -0.20460410202E+02  0.72453906485E+02  0.00000000000E+00 0.  1.
         22    1    3    3    0    0  0.61564123748E+02 -0.48251523440E+01  0.46128325037E+02  0.77079477157E+02  0.00000000000E+00 0.  1.
</event>
<event>
 7    1  0.6089676E-006  0.7362854E+02  0.7818608E-02  0.1486970E+00
          2   -1    0    0  502    0  0.00000000000E+00  0.00000000000E+00  0.17175937760E+04  0.17175937760E+04  0.00000000000E+00 0. -1.
          1   -1    0    0  501    0 -0.00000000000E+00 -0.00000000000E+00 -0.19301441706E+03  0.19301441706E+03  0.00000000000E+00 0. -1.
         25    2    1    2    0    0  0.50783126181E+02  0.12550778360E+02  0.10879172302E+04  0.10963236955E+04  0.12500119033E+03 0.  0.
          2    1    1    2  501    0 -0.66307598399E+02 -0.32347480767E+02 -0.18133846242E+03  0.19577204875E+03  0.00000000000E+00 0. -1.
          1    1    1    2  502    0  0.15524472218E+02  0.19796702407E+02  0.61800059108E+03  0.61851244873E+03  0.00000000000E+00 0. -1.
         22    1    3    3    0    0  0.85418765178E+02 -0.19616139643E+02  0.75428072039E+03  0.75935536050E+03  0.00000000000E+00 0. -1.
         22    1    3    3    0    0 -0.34635638997E+02  0.32166918003E+02  0.33363650986E+03  0.33696833503E+03  0.00000000000E+00 0. -1.
</event>
<event>
 7    1  0.6089676E-006  0.5589301E+02  0.7818608E-02  0.1526752E+00
          2   -1    0    0  502    0  0.00000000000E+00  0.00000000000E+00  0.14854230179E+03  0.14854230179E+03  0.00000000000E+00 0. -1.
          1   -1    0    0  501    0 -0.00000000000E+00 -0.00000000000E+00 -0.68634911290E+03  0.68634911290E+03  0.00000000000E+00 0. -1.
         25    2    1    2    0    0  0.25601383108E+02  0.21658209650E+02 -0.80887043080E+02  0.15262117612E+03  0.12500400314E+03 0.  0.
          2    1    1    2  501    0  0.10178808152E+02  0.23137696305E+02 -0.56199962510E+03  0.56256780901E+03  0.00000000000E+00 0. -1.
          1    1    1    2  502    0 -0.35780191260E+02 -0.44795905955E+02  0.10507985707E+03  0.11970242954E+03  0.00000000000E+00 0. -1.
         22    1    3    3    0    0  0.75669814609E+02  0.19820271134E+02 -0.58843048295E+02  0.97883953350E+02  0.00000000000E+00 0. -1.
         22    1    3    3    0    0 -0.50068431501E+02  0.18379385160E+01 -0.22043994785E+02  0.54737222774E+02  0.00000000000E+00 0. -1.
</event>
<event>
 7    1  0.6089676E-006  0.6047044E+02  0.7818608E-02  0.1446719E+00
          2   -1    0    0  502    0  0.00000000000E+00  0.00000000000E+00  0.70876964485E+03  0.70876964485E+03  0.00000000000E+00 0. -1.
          1   -1    0    0  501    0 -0.00000000000E+00 -0.00000000000E+00 -0.64342197635E+02  0.64342197635E+02  0.00000000000E+00 0. -1.
         25    2    1    2    0    0  0.15896292536E+02 -0.41895094926E+02  0.19702937971E+03  0.23759913486E+03  0.12499952529E+03 0.  0.
          2    1    1    2  501    0 -0.55249740435E+02  0.30670984702E+02 -0.20034686990E+02  0.66292019154E+02  0.00000000000E+00 0. -1.
          1    1    1    2  502    0  0.39353447899E+02  0.11224110224E+02  0.46743275450E+03  0.46922068848E+03  0.00000000000E+00 0. -1.
         22    1    3    3    0    0  0.53570449884E+02 -0.58626326724E+02  0.76709760065E+02  0.11041388760E+03  0.00000000000E+00 0.  1.
         22    1    3    3    0    0 -0.37674157348E+02  0.16731231799E+02  0.12031961964E+03  0.12718524726E+03  0.00000000000E+00 0.  1.
</event>
<event>
 7    1  0.6089676E-006  0.5156415E+02  0.7818608E-02  0.1483692E+00
          2   -1    0    0  502    0  0.00000000000E+00  0.00000000000E+00  0.19004776285E+04  0.19004776285E+04  0.00000000000E+00 0. -1.
          1   -1    0    0  501    0 -0.00000000000E+00 -0.00000000000E+00 -0.35720432967E+02  0.35720432967E+02  0.00000000000E+00 0. -1.
         25    2    1    2    0    0 -0.54703783028E+01 -0.16379970425E+02  0.67705105622E+03  0.68871014726E+03  0.12500122294E+03 0.  0.
          2    1    1    2  501    0  0.31467969634E+02  0.42366310331E+02 -0.60912349988E+01  0.53124763602E+02  0.00000000000E+00 0. -1.
          1    1    1    2  502    0 -0.25997591332E+02 -0.25986339906E+02  0.11937973743E+04  0.11943631506E+04  0.00000000000E+00 0. -1.
         22    1    3    3    0    0 -0.46265149009E+02 -0.41600201216E+01  0.58974569261E+03  0.59157227093E+03  0.00000000000E+00 0.  1.
         22    1    3    3    0    0  0.40794770707E+02 -0.12219950304E+02  0.87305363609E+02  0.97137876327E+02  0.00000000000E+00 0.  1.
</event>
<event>
 7    1  0.9190873E-006  0.9523731E+02  0.7818608E-02  0.1321842E+00
          2   -1    0    0  502    0  0.00000000000E+00  0.00000000000E+00  0.16466866290E+04  0.16466866290E+04  0.00000000000E+00 0. -1.
          1   -1    0    0  501    0 -0.00000000000E+00 -0.00000000000E+00 -0.84700222078E+03  0.84700222078E+03  0.00000000000E+00 0. -1.
         25    2    1    2    0    0 -0.11876131155E+03  0.68779394162E+02 -0.15455271432E+03  0.24153466084E+03  0.12497038329E+03 0.  0.
          2    1    1    2  501    0  0.47994816534E+02 -0.79884190168E+02 -0.64480682479E+03  0.65150658289E+03  0.00000000000E+00 0. -1.
          1    1    1    2  502    0  0.70766495018E+02  0.11104796006E+02  0.15990439474E+04  0.16006476061E+04  0.00000000000E+00 0. -1.
         22    1    3    3    0    0 -0.85390546419E+02 -0.14671626893E+02 -0.11333221275E+03  0.14265690484E+03  0.00000000000E+00 0.  1.
         22    1    3    3    0    0 -0.33370765132E+02  0.83451021054E+02 -0.41220501570E+02  0.98877755993E+02  0.00000000000E+00 0.  1.
</event>
<event>
 7    1  0.6089676E-006  0.1194090E+03  0.7818608E-02  0.1276714E+00
          2   -1    0    0  502    0  0.00000000000E+00  0.00000000000E+00  0.17999537642E+04  0.17999537642E+04  0.00000000000E+00 0. -1.
          1   -1    0    0  501    0 -0.00000000000E+00 -0.00000000000E+00 -0.85913431810E+03  0.85913431810E+03  0.00000000000E+00 0. -1.
         25    2    1    2    0    0 -0.17710943762E+03 -0.49643924560E+02  0.11001656567E+04  0.11224174854E+04  0.12499706954E+03 0.  0.
          2    1    1    2  501    0  0.85954258682E+02  0.11006332590E+02 -0.84221532757E+03  0.84666163958E+03  0.00000000000E+00 0. -1.
          1    1    1    2  502    0  0.91155178935E+02  0.38637591971E+02  0.68286911698E+03  0.69000895725E+03  0.00000000000E+00 0. -1.
         22    1    3    3    0    0 -0.11076805013E+03 -0.40611175780E+02  0.35164534321E+03  0.37090871644E+03  0.00000000000E+00 0. -1.
         22    1    3    3    0    0 -0.66341387486E+02 -0.90327487803E+01  0.74852031345E+03  0.75150876901E+03  0.00000000000E+00 0. -1.
</event>
<event>
 7    1  0.6089676E-006  0.9964817E+02  0.7818608E-02  0.1417490E+00
          2   -1    0    0  502    0  0.00000000000E+00  0.00000000000E+00  0.25370617616E+04  0.25370617616E+04  0.00000000000E+00 0. -1.
          1   -1    0    0  501    0 -0.00000000000E+00 -0.00000000000E+00 -0.83993975316E+03  0.83993975316E+03  0.00000000000E+00 0. -1.
         25    2    1    2    0    0  0.46906745824E+02 -0.12067960648E+03  0.44733222936E+03  0.48217643836E+03  0.12499673621E+03 0.  0.
          2    1    1    2  501    0 -0.42181678926E+02  0.90068941502E+02 -0.81939478983E+03  0.82540870474E+03  0.00000000000E+00 0. -1.
          1    1    1    2  502    0 -0.47250668976E+01  0.30610664979E+02  0.20691845690E+04  0.20694163717E+04  0.00000000000E+00 0. -1.
         22    1    3    3    0    0  0.19989706959E+02 -0.45945805802E+01  0.25565585702E+03  0.25647732022E+03  0.00000000000E+00 0.  1.
         22    1    3    3    0    0  0.26917038865E+02 -0.11608502590E+03  0.19167637234E+03  0.22569911814E+03  0.00000000000E+00 0.  1.
</event>
<event>
 7    1  0.6089676E-006  0.9594773E+02  0.7818608E-02  0.1468389E+00
          2   -1    0    0  502    0  0.00000000000E+00  0.00000000000E+00  0.89649669333E+03  0.89649669333E+03  0.00000000000E+00 0. -1.
          1   -1    0    0  501    0 -0.00000000000E+00 -0.00000000000E+00 -0.59978515555E+03  0.59978515555E+03  0.00000000000E+00 0. -1.
         25    2    1    2    0    0 -0.93214812416E+02  0.49974550278E+02  0.49846574212E+02  0.17116057056E+03  0.12499921209E+03 0.  0.
          2    1    1    2  501    0  0.73953707630E+02 -0.60652317066E+02 -0.53472986779E+03  0.54321624235E+03  0.00000000000E+00 0. -1.
          1    1    1    2  502    0  0.19261104786E+02  0.10677766788E+02  0.78159483137E+03  0.78190503598E+03  0.00000000000E+00 0. -1.
         22    1    3    3    0    0 -0.87518375430E+02  0.69863172295E+02 -0.54545181798E+01  0.11211637102E+03  0.00000000000E+00 0.  1.
         22    1    3    3    0    0 -0.56964369862E+01 -0.19888622018E+02  0.55301092392E+02  0.59044199544E+02  0.00000000000E+00 0.  1.
</event>
<event>
 7    1  0.6089676E-006  0.1498120E+03  0.7818608E-02  0.1319900E+00
          2   -1    0    0  502    0  0.00000000000E+00  0.00000000000E+00  0.12985122520E+04  0.12985122520E+04  0.00000000000E+00 0. -1.
          1   -1    0    0  501    0 -0.00000000000E+00 -0.00000000000E+00 -0.17733570501E+03  0.17733570501E+03  0.00000000000E+00 0. -1.
         25    2    1    2    0    0 -0.78805495473E+02  0.74791781243E+02  0.59861077240E+02  0.17610308454E+03  0.12499932464E+03 0.  0.
          2    1    1    2  501    0 -0.41797173329E+02  0.19995124435E+02 -0.10951277276E+03  0.11891112689E+03  0.00000000000E+00 0. -1.
          1    1    1    2  502    0  0.12060266880E+03 -0.94786905678E+02  0.11708282425E+04  0.11808337455E+04  0.00000000000E+00 0. -1.
         22    1    3    3    0    0 -0.85842499778E+01 -0.11592698733E+02 -0.29834957567E+02  0.33139171755E+02  0.00000000000E+00 0. -1.
         22    1    3    3    0    0 -0.70221245495E+02  0.86384479976E+02  0.89696034807E+02  0.14296391279E+03  0.00000000000E+00 0. -1.
</event>
<event>
 7    1  0.6089676E-006  0.7692691E+02  0.7818608E-02  0.1452091E+00
          2   -1    0    0  502    0  0.00000000000E+00  0.00000000000E+00  0.37441729724E+03  0.37441729724E+03  0.00000000000E+00 0. -1.
          1   -1    0    0  501    0 -0.00000000000E+00 -0.00000000000E+00 -0.30324852130E+03  0.30324852130E+03  0.00000000000E+00 0. -1.
         25    2    1    2    0    0  0.29765557042E+02 -0.52154714319E+02  0.14268462224E+03  0.19897545372E+03  0.12500490848E+03 0.  0.
          2    1    1    2  501    0 -0.60481880036E+02  0.48619654535E+02 -0.26840006676E+03  0.27939313602E+03  0.00000000000E+00 0. -1.
          1    1    1    2  502    0  0.30716322994E+02  0.35350597834E+01  0.19688422045E+03  0.19929722880E+03  0.00000000000E+00 0. -1.
         22    1    3    3    0    0 -0.71994012320E+00 -0.85853136239E+02  0.60388373786E+02  0.10496682811E+03  0.00000000000E+00 0.  1.
         22    1    3    3    0    0  0.30485497165E+02  0.33698421920E+02  0.82296248458E+02  0.94008625602E+02  0.00000000000E+00 0.  1.
</event>
<event>
 7    1  0.6089676E-006  0.5241984E+02  0.7818608E-02  0.1434473E+00
          2   -1    0    0  502    0  0.00000000000E+00  0.00000000000E+00  0.22512194843E+04  0.22512194843E+04  0.00000000000E+00 0. -1.
          1   -1    0    0  501    0 -0.00000000000E+00 -0.00000000000E+00 -0.48975423810E+02  0.48975423810E+02  0.00000000000E+00 0. -1.
         25    2    1    2    0    0 -0.96955120985E+02 -0.35473981637E+02  0.15828590879E+04  0.15911402836E+04  0.12500324444E+03 0.  0.
          2    1    1    2  501    0  0.50170045325E+02  0.13408354999E+02 -0.28412394002E+02  0.59195283297E+02  0.00000000000E+00 0. -1.
          1    1    1    2  502    0  0.46785075659E+02  0.22065626639E+02  0.64779736667E+03  0.64985934128E+03  0.00000000000E+00 0. -1.
         22    1    3    3    0    0 -0.15198182559E+02 -0.27146819978E+02  0.11573456619E+04  0.11577637565E+04  0.00000000000E+00 0.  1.
         22    1    3    3    0    0 -0.81756938425E+02 -0.83271616595E+01  0.42551342593E+03  0.43337652711E+03  0.00000000000E+00 0.  1.
</event>
<event>
 7    1  0.6089676E-006  0.8839665E+02  0.7818608E-02  0.1351229E+00
          2   -1    0    0  502    0  0.00000000000E+00  0.00000000000E+00  0.23288768263E+04  0.23288768263E+04  0.00000000000E+00 0. -1.
          1   -1    0    0  501    0 -0.00000000000E+00 -0.00000000000E+00 -0.19422092629E+03  0.19422092629E+03  0.00000000000E+00 0. -1.
         25    2    1    2    0    0  0.95600098773E+02 -0.58845037262E+01  0.62303787243E+03  0.64263035009E+03  0.12499428031E+03 0.  0.
          2    1    1    2  501    0 -0.73421121985E+02 -0.49594095422E+02 -0.17322300123E+03  0.19456732411E+03  0.00000000000E+00 0. -1.
          1    1    1    2  502    0 -0.22178976788E+02  0.55478599148E+02  0.16848410288E+04  0.16859000784E+04  0.00000000000E+00 0. -1.
         22    1    3    3    0    0  0.95860457738E+02 -0.40782399331E+02  0.56790206577E+03  0.57737785527E+03  0.00000000000E+00 0.  1.
         22    1    3    3    0    0 -0.26035896473E+00  0.34897895604E+02  0.55135806661E+02  0.65252494822E+02  0.00000000000E+00 0.  1.
</event>
<event>
 7    1  0.6089676E-006  0.8045082E+02  0.7818608E-02  0.1387189E+00
          2   -1    0    0  502    0  0.00000000000E+00  0.00000000000E+00  0.70123947853E+03  0.70123947853E+03  0.00000000000E+00 0. -1.
          1   -1    0    0  501    0 -0.00000000000E+00 -0.00000000000E+00 -0.29736323855E+03  0.29736323855E+03  0.00000000000E+00 0. -1.
         25    2    1    2    0    0  0.88749159951E+02  0.46048037589E+02 -0.95245782949E+02  0.18626194127E+03  0.12499966575E+03 0.  0.
          2    1    1    2  501    0 -0.84520260086E+01 -0.47988940370E+02 -0.15028410359E+03  0.15798635046E+03  0.00000000000E+00 0. -1.
          1    1    1    2  502    0 -0.80297133943E+02  0.19409027810E+01  0.64940612652E+03  0.65435442536E+03  0.00000000000E+00 0. -1.
         22    1    3    3    0    0 -0.66172581256E+01 -0.28587029359E+01 -0.77250440851E+02  0.77586022576E+02  0.00000000000E+00 0.  1.
         22    1    3    3    0    0  0.95366418077E+02  0.48906740525E+02 -0.17995342098E+02  0.10867591869E+03  0.00000000000E+00 0.  1.
</event>
<event>
 7    1  0.6089676E-006  0.9774784E+02  0.7818608E-02  0.1408648E+00
          2   -1    0    0  502    0  0.00000000000E+00  0.00000000000E+00  0.18735950973E+03  0.18735950973E+03  0.00000000000E+00 0. -1.
          1   -1    0    0  501    0 -0.00000000000E+00 -0.00000000000E+00 -0.37600889260E+03  0.37600889260E+03  0.00000000000E+00 0. -1.
         25    2    1    2    0    0  0.12659599900E+03  0.57007071370E+01 -0.84543815493E+02  0.19705766442E+03  0.12500008537E+03 0.  0.
          2    1    1    2  501    0 -0.92777171545E+02 -0.60052406364E+01 -0.22358101627E+03  0.24214073865E+03  0.00000000000E+00 0. -1.
          1    1    1    2  502    0 -0.33818827455E+02  0.30453349940E+00  0.11947544889E+03  0.12416999927E+03  0.00000000000E+00 0. -1.
         22    1    3    3    0    0  0.92878351209E+02 -0.12501490968E+02 -0.11482890331E+03  0.14821724742E+03  0.00000000000E+00 0.  1.
         22    1    3    3    0    0  0.33717647790E+02  0.18202198105E+02  0.30285087812E+02  0.48840416994E+02  0.00000000000E+00 0.  1.
</event>
<event>
 7    1  0.6089676E-006  0.6090992E+02  0.7818608E-02  0.1408822E+00
          2   -1    0    0  502    0  0.00000000000E+00  0.00000000000E+00  0.27085547854E+04  0.27085547854E+04  0.00000000000E+00 0. -1.
          1   -1    0    0  501    0 -0.00000000000E+00 -0.00000000000E+00 -0.36572141410E+02  0.36572141410E+02  0.00000000000E+00 0. -1.
         25    2    1    2    0    0  0.95446345096E+01  0.10344222231E+03  0.77347350788E+03  0.79036574867E+03  0.12500142345E+03 0.  0.
          2    1    1    2  501    0 -0.27981237147E+02 -0.52473544316E+02  0.41345616569E+01  0.59611383858E+02  0.00000000000E+00 0. -1.
          1    1    1    2  502    0  0.18436602637E+02 -0.50968677993E+02  0.18943745744E+04  0.18951497943E+04  0.00000000000E+00 0. -1.
         22    1    3    3    0    0  0.56886745930E+01  0.61689564577E+02  0.11556963793E+03  0.13112705521E+03  0.00000000000E+00 0. -1.
         22    1    3    3    0    0  0.38559599166E+01  0.41752657732E+02  0.65790386995E+03  0.65923869345E+03  0.00000000000E+00 0. -1.
</event>
<event>
 7    1  0.6089676E-006  0.2442454E+03  0.7818608E-02  0.1240513E+00
          2   -1    0    0  502    0  0.00000000000E+00  0.00000000000E+00  0.12458293367E+04  0.12458293367E+04  0.00000000000E+00 0. -1.
          1   -1    0    0  501    0 -0.00000000000E+00 -0.00000000000E+00 -0.22370466215E+03  0.22370466215E+03  0.00000000000E+00 0. -1.
         25    2    1    2    0    0  0.15087551789E+02 -0.23281633318E+03  0.24638440866E+02  0.26582522171E+03  0.12499966606E+03 0.  0.
          2    1    1    2  501    0 -0.59795325083E+02 -0.93365834824E+01 -0.78943631154E+02  0.99472355922E+02  0.00000000000E+00 0. -1.
          1    1    1    2  502    0  0.44707773293E+02  0.24215291666E+03  0.10764298649E+04  0.11042364213E+04  0.00000000000E+00 0. -1.
         22    1    3    3    0    0  0.61874334619E+02 -0.68475991534E+02 -0.49025491723E+01  0.92419855494E+02  0.00000000000E+00 0. -1.
         22    1    3    3    0    0 -0.46786782829E+02 -0.16434034164E+03  0.29540990038E+02  0.17340536621E+03  0.00000000000E+00 0. -1.
</event>
<event>
 7    1  0.6089676E-006  0.4809463E+02  0.7818608E-02  0.1465765E+00
          2   -1    0    0  502    0  0.00000000000E+00  0.00000000000E+00  0.21634066127E+03  0.21634066127E+03  0.00000000000E+00 0. -1.
          1   -1    0    0  501    0 -0.00000000000E+00 -0.00000000000E+00 -0.84012580887E+03  0.84012580887E+03  0.00000000000E+00 0. -1.
         25    2    1    2    0    0  0.87791004782E+02 -0.19883534130E+02 -0.12728824755E+03  0.19982648357E+03  0.12500284045E+03 0.  0.
          2    1    1    2  501    0 -0.40466828022E+02  0.19156285959E+02 -0.67270138375E+03  0.67418964628E+03  0.00000000000E+00 0. -1.
          1    1    1    2  502    0 -0.47324176760E+02  0.72724817118E+00  0.17620448369E+03  0.18245034028E+03  0.00000000000E+00 0. -1.
         22    1    3    3    0    0  0.73031090982E+02  0.24806998163E+02 -0.15688958784E+02  0.78708772291E+02  0.00000000000E+00 0. -1.
         22    1    3    3    0    0  0.14759913800E+02 -0.44690532293E+02 -0.11159928876E+03  0.12111771128E+03  0.00000000000E+00 0. -1.
</event>
<event>
 7    1  0.6089676E-006  0.1382586E+03  0.7818608E-02  0.1297433E+00
          2   -1    0    0  502    0  0.00000000000E+00  0.00000000000E+00  0.14305204657E+03  0.14305204657E+03  0.00000000000E+00 0. -1.
          1   -1    0    0  501    0 -0.00000000000E+00 -0.00000000000E+00 -0.34094150049E+03  0.34094150049E+03  0.00000000000E+00 0. -1.
         25    2    1    2    0    0 -0.82080054219E+02  0.50482129065E+02  0.39071530293E+01  0.15787391949E+03  0.12499331163E+03 0.  0.
          2    1    1    2  501    0  0.10727905456E+03 -0.10667685915E+03 -0.21523241884E+03  0.26308504699E+03  0.00000000000E+00 0. -1.
          1    1    1    2  502    0 -0.25199000345E+02  0.56194730086E+02  0.13435811893E+02  0.63034580581E+02  0.00000000000E+00 0. -1.
         22    1    3    3    0    0 -0.92138841377E+02  0.70527808148E+01  0.39825761885E+02  0.10062504220E+03  0.00000000000E+00 0.  1.
         22    1    3    3    0    0  0.10058787159E+02  0.43429348250E+02 -0.35918608856E+02  0.57248877288E+02  0.00000000000E+00 0.  1.
</event>
<event>
 7    1  0.6089676E-006  0.4902742E+02  0.7818608E-02  0.1507948E+00
          2   -1    0    0  502    0  0.00000000000E+00  0.00000000000E+00  0.65108754027E+03  0.65108754027E+03  0.00000000000E+00 0. -1.
          1   -1    0    0  501    0 -0.00000000000E+00 -0.00000000000E+00 -0.54680440971E+02  0.54680440971E+02  0.00000000000E+00 0. -1.
         25    2    1    2    0    0 -0.37204991543E+02  0.34449196391E+01  0.20651481247E+03  0.24427342463E+03  0.12500023737E+03 0.  0.
          2    1    1    2  501    0  0.35530863205E+02 -0.36095370662E+02 -0.16897367174E+02  0.53393249018E+02  0.00000000000E+00 0. -1.
          1    1    1    2  502    0  0.16741283382E+01  0.32650451023E+02  0.40678965400E+03  0.40810130759E+03  0.00000000000E+00 0. -1.
         22    1    3    3    0    0  0.46414326290E+02  0.52053261237E+01  0.68990828568E+02  0.83313381467E+02  0.00000000000E+00 0. -1.
         22    1    3    3    0    0 -0.83619317833E+02 -0.17604064846E+01  0.13752398391E+03  0.16096004316E+03  0.00000000000E+00 0. -1.
</event>
<event>
 7    1  0.6089676E-006  0.9841286E+02  0.7818608E-02  0.1392158E+00
          2   -1    0    0  502    0  0.00000000000E+00  0.00000000000E+00  0.64701936747E+03  0.64701936747E+03  0.00000000000E+00 0. -1.
          1   -1    0    0  501    0 -0.00000000000E+00 -0.00000000000E+00 -0.21645074296E+03  0.21645074296E+03  0.00000000000E+00 0. -1.
         25    2    1    2    0    0 -0.60925187495E+02 -0.58229877574E+02  0.27615714339E+03  0.31463148066E+03  0.12501041423E+03 0.  0.
          2    1    1    2  501    0 -0.35407129473E+02  0.14534350689E+02 -0.18727866143E+03  0.19114970362E+03  0.00000000000E+00 0. -1.
          1    1    1    2  502    0  0.96332316968E+02  0.43695526885E+02  0.34169014256E+03  0.35768892614E+03  0.00000000000E+00 0. -1.
         22    1    3    3    0    0  0.25062911860E+02 -0.38102457556E+02  0.34034628758E+02  0.56906087350E+02  0.00000000000E+00 0.  1.
         22    1    3    3    0    0 -0.85988099355E+02 -0.20127420017E+02  0.24212251463E+03  0.25772539331E+03  0.00000000000E+00 0.  1.
</event>
<event>
 7    1  0.6089676E-006  0.1324260E+03  0.7818608E-02  0.1352055E+00
          2   -1    0    0  502    0  0.00000000000E+00  0.00000000000E+00  0.16218689821E+04  0.16218689821E+04  0.00000000000E+00 0. -1.
          1   -1    0    0  501    0 -0.00000000000E+00 -0.00000000000E+00 -0.88740636742E+03  0.88740636742E+03  0.00000000000E+00 0. -1.
         25    2    1    2    0    0  0.99480545256E+02 -0.62076910812E+02  0.92247887853E+03  0.93826564447E+03  0.12500086608E+03 0.  0.
          2    1    1    2  501    0 -0.87266144420E+02  0.99749554379E+02 -0.87394565466E+03  0.88393798474E+03  0.00000000000E+00 0. -1.
          1    1    1    2  502    0 -0.12214400836E+02 -0.37672643567E+02  0.68592939082E+03  0.68707172031E+03  0.00000000000E+00 0. -1.
         22    1    3    3    0    0  0.79561987185E+02 -0.82165378450E+02  0.42924822360E+03  0.44422437651E+03  0.00000000000E+00 0.  1.
         22    1    3    3    0    0  0.19918558072E+02  0.20088467638E+02  0.49323065493E+03  0.49404126796E+03  0.00000000000E+00 0.  1.
</event>
<event>
 7    1  0.6089676E-006  0.4892079E+02  0.7818608E-02  0.1464816E+00
          2   -1    0    0  502    0  0.00000000000E+00  0.00000000000E+00  0.13441375573E+04  0.13441375573E+04  0.00000000000E+00 0. -1.
          1   -1    0    0  501    0 -0.00000000000E+00 -0.00000000000E+00 -0.69782149777E+03  0.69782149777E+03  0.00000000000E+00 0. -1.
         25    2    1    2    0    0 -0.57757441125E+02 -0.64910020267E+02  0.24682484697E+03  0.28999947412E+03  0.12501182814E+03 0.  0.
          2    1    1    2  501    0  0.17972438418E+02  0.45384266471E+02 -0.67489586884E+03  0.67665883129E+03  0.00000000000E+00 0. -1.
          1    1    1    2  502    0  0.39785002707E+02  0.19525753796E+02  0.10743870814E+04  0.10753007496E+04  0.00000000000E+00 0. -1.
         22    1    3    3    0    0  0.23170807883E+02  0.20928687441E+02  0.30786600700E+02  0.43848729498E+02  0.00000000000E+00 0. -1.
         22    1    3    3    0    0 -0.80928249008E+02 -0.85838707708E+02  0.21603824627E+03  0.24615074463E+03  0.00000000000E+00 0. -1.
</event>
<event>
 7    1  0.6089676E-006  0.8116470E+02  0.7818608E-02  0.1465605E+00
          2   -1    0    0  502    0  0.00000000000E+00  0.00000000000E+00  0.36685044667E+03  0.36685044667E+03  0.00000000000E+00 0. -1.
          1   -1    0    0  501    0 -0.00000000000E+00 -0.00000000000E+00 -0.80868724416E+03  0.80868724416E+03  0.00000000000E+00 0. -1.
         25    2    1    2    0    0 -0.10117432267E+03 -0.16277453519E+01  0.15348525337E+03  0.22230835955E+03  0.12499756238E+03 0.  0.
          2    1    1    2  501    0  0.25010461654E+02  0.89409910639E+01 -0.76585626028E+03  0.76631669427E+03  0.00000000000E+00 0. -1.
          1    1    1    2  502    0  0.76163861021E+02 -0.73132457120E+01  0.17053420943E+03  0.18691263701E+03  0.00000000000E+00 0. -1.
         22    1    3    3    0    0  0.14446215440E+02  0.17347912070E+02  0.82010717800E+02  0.85061160513E+02  0.00000000000E+00 0.  1.
         22    1    3    3    0    0 -0.11562053811E+03 -0.18975657422E+02  0.71474535567E+02  0.13724719904E+03  0.00000000000E+00 0.  1.
</event>
<event>
 7    1  0.6089676E-006  0.2530409E+02  0.7818608E-02  0.1692205E+00
          2   -1    0    0  502    0  0.00000000000E+00  0.00000000000E+00  0.51827373161E+03  0.51827373161E+03  0.00000000000E+00 0. -1.
          1   -1    0    0  501    0 -0.00000000000E+00 -0.00000000000E+00 -0.26442465456E+03  0.26442465456E+03  0.00000000000E+00 0. -1.
         25    2    1    2    0    0 -0.26097071921E+02  0.23342846180E+02  0.27068667254E+03  0.30020262492E+03  0.12499758271E+03 0.  0.
          2    1    1    2  501    0  0.20791026583E+02  0.12388913470E+01 -0.24855078195E+03  0.24942191734E+03  0.00000000000E+00 0. -1.
          1    1    1    2  502    0  0.53060453384E+01 -0.24581737527E+02  0.23171318646E+03  0.23307384391E+03  0.00000000000E+00 0. -1.
         22    1    3    3    0    0  0.18600703100E+02  0.90702367486E+01 -0.43883323635E+01  0.21154498610E+02  0.00000000000E+00 0. -1.
         22    1    3    3    0    0 -0.44697775021E+02  0.14272609431E+02  0.27507500490E+03  0.27904812631E+03  0.00000000000E+00 0. -1.
</event>
<event>
 7    1  0.6089676E-006  0.9939241E+02  0.7818608E-02  0.1448184E+00
          2   -1    0    0  502    0  0.00000000000E+00  0.00000000000E+00  0.13680669824E+04  0.13680669824E+04  0.00000000000E+00 0. -1.
          1   -1    0    0  501    0 -0.00000000000E+00 -0.00000000000E+00 -0.68058168528E+03  0.68058168528E+03  0.00000000000E+00 0. -1.
         25    2    1    2    0    0 -0.50788690289E+02  0.92563671006E+02  0.46516635970E+02  0.17010480943E+03  0.12499729804E+03 0.  0.
          2    1    1    2  501    0  0.66558797408E+02 -0.73645414850E+02 -0.61468500063E+03  0.62264867352E+03  0.00000000000E+00 0. -1.
          1    1    1    2  502    0 -0.15770107119E+02 -0.18918256155E+02  0.12556536618E+04  0.12558951847E+04  0.00000000000E+00 0. -1.
         22    1    3    3    0    0 -0.33783211449E+02  0.92160495219E+02  0.83839235531E+02  0.12908865043E+03  0.00000000000E+00 0. -1.
         22    1    3    3    0    0 -0.17005478840E+02  0.40317578663E+00 -0.37322599561E+02  0.41016159002E+02  0.00000000000E+00 0. -1.
</event>
<event>
 7    1  0.6089676E-006  0.6634937E+02  0.7818608E-02  0.1385209E+00
          2   -1    0    0  502    0  0.00000000000E+00  0.00000000000E+00  0.25303397783E+03  0.25303397783E+03  0.00000000000E+00 0. -1.
          1   -1    0    0  501    0 -0.00000000000E+00 -0.00000000000E+00 -0.29492797902E+04  0.29492797902E+04  0.00000000000E+00 0. -1.
         25    2    1    2    0    0 -0.27221638008E+02 -0.60613357808E+01 -0.68529759233E+03  0.69716256152E+03  0.12500035905E+03 0.  0.
          2    1    1    2  501    0 -0.14219710027E+02  0.58328473963E+02 -0.22531411277E+04  0.22539408493E+04  0.00000000000E+00 0. -1.
          1    1    1    2  502    0  0.41441348036E+02 -0.52267138182E+02  0.24219290762E+03  0.25121035719E+03  0.00000000000E+00 0. -1.
         22    1    3    3    0    0  0.49336094165E+02 -0.27976607030E+01 -0.33142065823E+03  0.33508436221E+03  0.00000000000E+00 0.  1.
         22    1    3    3    0    0 -0.76557732173E+02 -0.32636750778E+01 -0.35387693410E+03  0.36207819931E+03  0.00000000000E+00 0.  1.
</event>
<event>
 7    1  0.6089676E-006  0.1255546E+03  0.7818608E-02  0.1338637E+00
          2   -1    0    0  502    0  0.00000000000E+00  0.00000000000E+00  0.11133608750E+03  0.11133608750E+03  0.00000000000E+00 0. -1.
          1   -1    0    0  501    0 -0.00000000000E+00 -0.00000000000E+00 -0.19963699906E+04  0.19963699906E+04  0.00000000000E+00 0. -1.
         25    2    1    2    0    0 -0.75010995530E+02  0.39183749089E+02 -0.23267159796E+03  0.27734870770E+03  0.12499687005E+03 0.  0.
          2    1    1    2  501    0  0.10801029833E+03 -0.72475414436E+02 -0.17325758052E+04  0.17374515334E+04  0.00000000000E+00 0. -1.
          1    1    1    2  502    0 -0.32999302795E+02  0.33291665347E+02  0.80213500016E+02  0.92905837014E+02  0.00000000000E+00 0. -1.
         22    1    3    3    0    0 -0.54383464069E+02  0.29305697221E+02 -0.22209983313E+02  0.65648064805E+02  0.00000000000E+00 0.  1.
         22    1    3    3    0    0 -0.20627531461E+02  0.98780518681E+01 -0.21046161465E+03  0.21170064290E+03  0.00000000000E+00 0.  1.
</event>
<event>
 7    1  0.6089676E-006  0.1476156E+03  0.7818608E-02  0.1344080E+00
          2   -1    0    0  502    0  0.00000000000E+00  0.00000000000E+00  0.41172488120E+03  0.41172488120E+03  0.00000000000E+00 0. -1.
          1   -1    0    0  501    0 -0.00000000000E+00 -0.00000000000E+00 -0.10389675379E+04  0.10389675379E+04  0.00000000000E+00 0. -1.
         25    2    1    2    0    0  0.14650606281E+02 -0.14304218426E+03 -0.26833040689E+03  0.32909377719E+03  0.12500320068E+03 0.  0.
          2    1    1    2  501    0  0.37756884572E+02  0.46082166921E+01 -0.72537431349E+03  0.72637091948E+03  0.00000000000E+00 0. -1.
          1    1    1    2  502    0 -0.52407490853E+02  0.13843396757E+03  0.36646206367E+03  0.39522772244E+03  0.00000000000E+00 0. -1.
         22    1    3    3    0    0 -0.15988790981E+02 -0.15597192528E+03 -0.22985998835E+03  0.27824179621E+03  0.00000000000E+00 0.  1.
         22    1    3    3    0    0  0.30639397262E+02  0.12929741017E+02 -0.38470418540E+02  0.50851980984E+02  0.00000000000E+00 0.  1.
</event>
<event>
 7    1  0.6089676E-006  0.1567837E+03  0.7818608E-02  0.1289820E+00
          2   -1    0    0  502    0  0.00000000000E+00  0.00000000000E+00  0.24167424122E+04  0.24167424122E+04  0.00000000000E+00 0. -1.
          1   -1    0    0  501    0 -0.00000000000E+00 -0.00000000000E+00 -0.52973370904E+02  0.52973370904E+02  0.00000000000E+00 0. -1.
         25    2    1    2    0    0  0.85853361805E+02 -0.82977708045E+02  0.67236357181E+03  0.69422250264E+03  0.12496403766E+03 0.  0.
          2    1    1    2  501    0  0.56707226157E+02 -0.13526871489E+02 -0.15183688354E+02  0.60243092075E+02  0.00000000000E+00 0. -1.
          1    1    1    2  502    0 -0.14256058796E+03  0.96504579535E+02  0.17065891579E+04  0.17152501884E+04  0.00000000000E+00 0. -1.
         22    1    3    3    0    0  0.96621718285E+02 -0.86837615542E+02  0.67008100343E+03  0.68255774779E+03  0.00000000000E+00 0.  1.
         22    1    3    3    0    0 -0.10768356479E+02  0.38599074965E+01  0.22825683778E+01  0.11664754843E+02  0.00000000000E+00 0.  1.
</event>
<event>
 7    1  0.6089676E-006  0.1466825E+03  0.7818608E-02  0.1242486E+00
          2   -1    0    0  502    0  0.00000000000E+00  0.00000000000E+00  0.80054127176E+03  0.80054127176E+03  0.00000000000E+00 0. -1.
          1   -1    0    0  501    0 -0.00000000000E+00 -0.00000000000E+00 -0.24928317732E+03  0.24928317732E+03  0.00000000000E+00 0. -1.
         25    2    1    2    0    0 -0.35081117839E+02  0.69393081079E+02  0.14342566332E+03  0.20552727066E+03  0.12499781421E+03 0.  0.
          2    1    1    2  501    0 -0.16606573152E+02  0.97373991464E+02 -0.19397343126E+03  0.21767674317E+03  0.00000000000E+00 0. -1.
          1    1    1    2  502    0  0.51687690991E+02 -0.16676707254E+03  0.60180586237E+03  0.62662043524E+03  0.00000000000E+00 0. -1.
         22    1    3    3    0    0 -0.32594662791E+01  0.39442208683E+01  0.13171729702E+03  0.13181664285E+03  0.00000000000E+00 0.  1.
         22    1    3    3    0    0 -0.31821651560E+02  0.65448860210E+02  0.11708366302E+02  0.73710627811E+02  0.00000000000E+00 0.  1.
</event>
<event>
 7    1  0.6089676E-006  0.1162103E+03  0.7818608E-02  0.1297775E+00
          2   -1    0    0  502    0  0.00000000000E+00  0.00000000000E+00  0.73838798621E+03  0.73838798621E+03  0.00000000000E+00 0. -1.
          1   -1    0    0  501    0 -0.00000000000E+00 -0.00000000000E+00 -0.11486201078E+04  0.11486201078E+04  0.00000000000E+00 0. -1.
         25    2    1    2    0    0 -0.14137916142E+03  0.96219879720E+02  0.20416592723E+03  0.29420294566E+03  0.12500125941E+03 0.  0.
          2    1    1    2  501    0  0.37021803365E+02 -0.62961143241E+02 -0.10962404040E+04  0.10986708984E+04  0.00000000000E+00 0. -1.
          1    1    1    2  502    0  0.10435735806E+03 -0.33258736479E+02  0.48184235521E+03  0.49413424999E+03  0.00000000000E+00 0. -1.
         22    1    3    3    0    0 -0.11342339853E+03  0.28044276885E+02  0.18373506486E+03  0.21773819798E+03  0.00000000000E+00 0.  1.
         22    1    3    3    0    0 -0.27955762893E+02  0.68175602835E+02  0.20430862373E+02  0.76464747682E+02  0.00000000000E+00 0.  1.
</event>
<event>
 7    1  0.6089676E-006  0.6965192E+02  0.7818608E-02  0.1368616E+00
          2   -1    0    0  502    0  0.00000000000E+00  0.00000000000E+00  0.79835221883E+02  0.79835221883E+02  0.00000000000E+00 0. -1.
          1   -1    0    0  501    0 -0.00000000000E+00 -0.00000000000E+00 -0.10114081470E+04  0.10114081470E+04  0.00000000000E+00 0. -1.
         25    2    1    2    0    0 -0.46379598685E+02 -0.68428704149E+02 -0.97013333989E+02  0.17852216431E+03  0.12500008581E+03 0.  0.
          2    1    1    2  501    0  0.65507272564E+02 -0.12043287342E+01 -0.83787503226E+03  0.84043275926E+03  0.00000000000E+00 0. -1.
          1    1    1    2  502    0 -0.19127673879E+02  0.69633032883E+02  0.33154411197E+01  0.72288445317E+02  0.00000000000E+00 0. -1.
         22    1    3    3    0    0 -0.56030682901E+02 -0.95425114205E+01 -0.10392427090E+03  0.11845147121E+03  0.00000000000E+00 0. -1.
         22    1    3    3    0    0  0.96510842161E+01 -0.58886192728E+02  0.69109369077E+01  0.60070693100E+02  0.00000000000E+00 0. -1.
</event>
<event>
 7    1  0.6089676E-006  0.9991964E+02  0.7818608E-02  0.1414780E+00
          2   -1    0    0  502    0  0.00000000000E+00  0.00000000000E+00  0.35172834486E+04  0.35172834486E+04  0.00000000000E+00 0. -1.
          1   -1    0    0  501    0 -0.00000000000E+00 -0.00000000000E+00 -0.63615203534E+03  0.63615203534E+03  0.00000000000E+00 0. -1.
         25    2    1    2    0    0 -0.12321565609E+03  0.75623139940E+01 -0.14881645486E+03  0.23024065487E+03  0.12500054168E+03 0.  0.
          2    1    1    2  501    0  0.24186067930E+02 -0.20248766475E+02 -0.44534874108E+03  0.44646442144E+03  0.00000000000E+00 0. -1.
          1    1    1    2  502    0  0.99029588157E+02  0.12686452481E+02  0.34752966092E+04  0.34767304076E+04  0.00000000000E+00 0. -1.
         22    1    3    3    0    0 -0.40605625583E+01 -0.41778667932E+01  0.21373437032E+02  0.22153251450E+02  0.00000000000E+00 0.  1.
         22    1    3    3    0    0 -0.11915509353E+03  0.11740180787E+02 -0.17018989190E+03  0.20808740342E+03  0.00000000000E+00 0.  1.
</event>
<event>
 7    1  0.7099647E-006  0.5608662E+02  0.7818608E-02  0.1448083E+00
          2   -1    0    0  502    0  0.00000000000E+00  0.00000000000E+00  0.95890940528E+03  0.95890940528E+03  0.00000000000E+00 0. -1.
          1   -1    0    0  501    0 -0.00000000000E+00 -0.00000000000E+00 -0.23107086019E+04  0.23107086019E+04  0.00000000000E+00 0. -1.
         25    2    1    2    0    0  0.22972600164E+02 -0.93796154184E+02 -0.64961521522E+03  0.66854385683E+03  0.12500200703E+03 0.  0.
          2    1    1    2  501    0 -0.20547089217E+02  0.50184831008E+02 -0.16506812194E+04  0.16515717327E+04  0.00000000000E+00 0. -1.
          1    1    1    2  502    0 -0.24255109470E+01  0.43611323176E+02  0.94849723801E+03  0.94950241765E+03  0.00000000000E+00 0. -1.
         22    1    3    3    0    0  0.54647385332E+02 -0.10588635530E+03 -0.56421173804E+03  0.57665686704E+03  0.00000000000E+00 0.  1.
         22    1    3    3    0    0 -0.31674785168E+02  0.12090201114E+02 -0.85403477183E+02  0.91886989794E+02  0.00000000000E+00 0.  1.
</event>
<event>
 7    1  0.6089676E-006  0.4299452E+02  0.7818608E-02  0.1548447E+00
          2   -1    0    0  502    0  0.00000000000E+00  0.00000000000E+00  0.98862579381E+03  0.98862579381E+03  0.00000000000E+00 0. -1.
          1   -1    0    0  501    0 -0.00000000000E+00 -0.00000000000E+00 -0.66271720866E+03  0.66271720866E+03  0.00000000000E+00 0. -1.
         25    2    1    2    0    0  0.29036335954E+02 -0.35465688625E+02  0.10970028990E+03  0.17251361502E+03  0.12500347951E+03 0.  0.
          2    1    1    2  501    0 -0.27485591031E+02 -0.76118544025E+01 -0.63043985672E+03  0.63108463060E+03  0.00000000000E+00 0. -1.
          1    1    1    2  502    0 -0.15507449226E+01  0.43077543028E+02  0.84664815197E+03  0.84774475684E+03  0.00000000000E+00 0. -1.
         22    1    3    3    0    0  0.44350287313E+01  0.29764485225E+02  0.97116260921E+02  0.10167183580E+03  0.00000000000E+00 0. -1.
         22    1    3    3    0    0  0.24601307223E+02 -0.65230173850E+02  0.12584028980E+02  0.70841779220E+02  0.00000000000E+00 0. -1.
</event>
<event>
 7    1  0.6089676E-006  0.8510298E+02  0.7818608E-02  0.1399351E+00
          2   -1    0    0  502    0  0.00000000000E+00  0.00000000000E+00  0.72295234404E+03  0.72295234404E+03  0.00000000000E+00 0. -1.
          1   -1    0    0  501    0 -0.00000000000E+00 -0.00000000000E+00 -0.80703577954E+03  0.80703577954E+03  0.00000000000E+00 0. -1.
         25    2    1    2    0    0 -0.11824661205E+03  0.36598577425E+01 -0.92537620530E+02  0.19540971620E+03  0.12500436053E+03 0.  0.
          2    1    1    2  501    0  0.81837265037E+02  0.16862820316E+02 -0.65977426020E+03  0.66504418431E+03  0.00000000000E+00 0. -1.
          1    1    1    2  502    0  0.36409347012E+02 -0.20522678059E+02  0.66822844523E+03  0.66953422308E+03  0.00000000000E+00 0. -1.
         22    1    3    3    0    0 -0.88198565876E+01 -0.36768112038E+02 -0.65548578556E+02  0.75672320460E+02  0.00000000000E+00 0.  1.
         22    1    3    3    0    0 -0.10942675546E+03  0.40427969781E+02 -0.26989041974E+02  0.11973739574E+03  0.00000000000E+00 0.  1.
</event>
<event>
 7    1  0.6089676E-006  0.1095817E+03  0.7818608E-02  0.1372664E+00
          2   -1    0    0  502    0  0.00000000000E+00  0.00000000000E+00  0.14151680653E+04  0.14151680653E+04  0.00000000000E+00 0. -1.
          1   -1    0    0  501    0 -0.00000000000E+00 -0.00000000000E+00 -0.36110946272E+03  0.36110946272E+03  0.00000000000E+00 0. -1.
         25    2    1    2    0    0 -0.21749404507E+02 -0.99882592101E+02 -0.29555193237E+02  0.16415837094E+03  0.12499957000E+03 0.  0.
          2    1    1    2  501    0 -0.17069006638E+02  0.11061015413E+03 -0.25208518663E+03  0.27581315869E+03  0.00000000000E+00 0. -1.
          1    1    1    2  502    0  0.38818411145E+02 -0.10727562032E+02  0.13356989825E+04  0.13363059984E+04  0.00000000000E+00 0. -1.
         22    1    3    3    0    0 -0.71004505110E+02 -0.66150531315E+02 -0.37287800938E+02  0.10396111118E+03  0.00000000000E+00 0.  1.
         22    1    3    3    0    0  0.49255100603E+02 -0.33732060786E+02  0.77326077009E+01  0.60197259756E+02  0.00000000000E+00 0.  1.
</event>
<event>
 7    1  0.6089676E-006  0.1447480E+03  0.7818608E-02  0.1354112E+00
          2   -1    0    0  502    0  0.00000000000E+00  0.00000000000E+00  0.40207000534E+03  0.40207000534E+03  0.00000000000E+00 0. -1.
          1   -1    0    0  501    0 -0.00000000000E+00 -0.00000000000E+00 -0.65924738889E+03  0.65924738889E+03  0.00000000000E+00 0. -1.
         25    2    1    2    0    0 -0.16414666833E+03 -0.57378429416E+02 -0.50870046607E+02  0.22011180692E+03  0.12500013208E+03 0.  0.
          2    1    1    2  501    0  0.26867196061E+02  0.23363426548E+02 -0.50734888100E+03  0.50859668006E+03  0.00000000000E+00 0. -1.
          1    1    1    2  502    0  0.13727947227E+03  0.34015002868E+02  0.30104154406E+03  0.33260890724E+03  0.00000000000E+00 0. -1.
         22    1    3    3    0    0  0.25787652808E+00 -0.33414939421E+02 -0.42084858700E+02  0.53737882435E+02  0.00000000000E+00 0.  1.
         22    1    3    3    0    0 -0.16440454486E+03 -0.23963489995E+02 -0.87851879069E+01  0.16637392449E+03  0.00000000000E+00 0.  1.
</event>
<event>
 7    1  0.6089676E-006  0.8840312E+02  0.7818608E-02  0.1329314E+00
          2   -1    0    0  502    0  0.00000000000E+00  0.00000000000E+00  0.26948531576E+02  0.26948531576E+02  0.00000000000E+00 0. -1.
          1   -1    0    0  501    0 -0.00000000000E+00 -0.00000000000E+00 -0.18736772859E+04  0.18736772859E+04  0.00000000000E+00 0. -1.
         25    2    1    2    0    0 -0.51319094165E+02  0.11980837810E+02 -0.63750689450E+03  0.65177992514E+03  0.12499936149E+03 0.  0.
          2    1    1    2  501    0  0.61364488426E+02 -0.83506965815E+02 -0.11521234344E+04  0.11567745769E+04  0.00000000000E+00 0. -1.
          1    1    1    2  502    0 -0.10045394261E+02  0.71526128004E+02 -0.57098425437E+02  0.92071315406E+02  0.00000000000E+00 0. -1.
         22    1    3    3    0    0 -0.36406506177E+02  0.48920560285E+02 -0.57105921670E+03  0.57430591490E+03  0.00000000000E+00 0. -1.
         22    1    3    3    0    0 -0.14912587988E+02 -0.36939722475E+02 -0.66447677803E+02  0.77474010238E+02  0.00000000000E+00 0. -1.
</event>
<event>
 7    1  0.6089676E-006  0.6412463E+02  0.7818608E-02  0.1413734E+00
          2   -1    0    0  502    0  0.00000000000E+00  0.00000000000E+00  0.11040631754E+03  0.11040631754E+03  0.00000000000E+00 0. -1.
          1   -1    0    0  501    0 -0.00000000000E+00 -0.00000000000E+00 -0.94659218741E+03  0.94659218741E+03  0.00000000000E+00 0. -1.
         25    2    1    2    0    0 -0.49361426127E+01 -0.58347793065E+01 -0.51778969078E+03  0.53272101721E+03  0.12500843230E+03 0.  0.
          2    1    1    2  501    0 -0.33008797684E+02  0.57527620495E+02 -0.40840887600E+03  0.41375937190E+03  0.00000000000E+00 0. -1.
          1    1    1    2  502    0  0.37944940296E+02 -0.51692841188E+02  0.90012696904E+02  0.11051811584E+03  0.00000000000E+00 0. -1.
         22    1    3    3    0    0  0.48430019336E+02  0.26693163074E+02 -0.33521314780E+03  0.33974379492E+03  0.00000000000E+00 0.  1.
         22    1    3    3    0    0 -0.53366161949E+02 -0.32527942380E+02 -0.18257654298E+03  0.19297722229E+03  0.00000000000E+00 0.  1.
</event>
<event>
 7    1  0.6089676E-006  0.7271915E+02  0.7818608E-02  0.1351668E+00
          2   -1    0    0  502    0  0.00000000000E+00  0.00000000000E+00  0.35850066931E+04  0.35850066931E+04  0.00000000000E+00 0. -1.
          1   -1    0    0  501    0 -0.00000000000E+00 -0.00000000000E+00 -0.11346688611E+03  0.11346688611E+03  0.00000000000E+00 0. -1.
         25    2    1    2    0    0 -0.70433300105E+01  0.28803381462E+02  0.10210644489E+02  0.12887425248E+03  0.12500028964E+03 0.  0.
          2    1    1    2  501    0  0.31067932441E+02 -0.97439330819E+02 -0.51076520076E+01  0.10239984241E+03  0.00000000000E+00 0. -1.
          1    1    1    2  502    0 -0.24024602431E+02  0.68635949357E+02  0.34664368145E+04  0.34671994844E+04  0.00000000000E+00 0. -1.
         22    1    3    3    0    0 -0.38220312793E+01  0.75201814063E-01  0.65962585962E+02  0.66073264830E+02  0.00000000000E+00 0.  1.
         22    1    3    3    0    0 -0.32212987312E+01  0.28728179648E+02 -0.55751941473E+02  0.62800987647E+02  0.00000000000E+00 0.  1.
</event>
<event>
 7    1  0.6089676E-006  0.3513370E+02  0.7818608E-02  0.1556258E+00
          2   -1    0    0  502    0  0.00000000000E+00  0.00000000000E+00  0.55890509688E+03  0.55890509688E+03  0.00000000000E+00 0. -1.
          1   -1    0    0  501    0 -0.00000000000E+00 -0.00000000000E+00 -0.68498284248E+03  0.68498284248E+03  0.00000000000E+00 0. -1.
         25    2    1    2    0    0  0.10058239760E+02 -0.50684144509E+02  0.30033619001E+03  0.32938710204E+03  0.12499594102E+03 0.  0.
          2    1    1    2  501    0  0.16631174012E+02  0.30940105547E+02 -0.66886532859E+03  0.66978706607E+03  0.00000000000E+00 0. -1.
          1    1    1    2  502    0 -0.26689413773E+02  0.19744038961E+02  0.24245139298E+03  0.24471377125E+03  0.00000000000E+00 0. -1.
         22    1    3    3    0    0 -0.43773947758E+02 -0.47417397533E+02  0.81246820076E+02  0.10375747618E+03  0.00000000000E+00 0. -1.
         22    1    3    3    0    0  0.53832187519E+02 -0.32667469756E+01  0.21908936993E+03  0.22562962586E+03  0.00000000000E+00 0. -1.
</event>
<event>
 7    1  0.6089676E-006  0.6984668E+02  0.7818608E-02  0.1381240E+00
          2   -1    0    0  502    0  0.00000000000E+00  0.00000000000E+00  0.26050895257E+03  0.26050895257E+03  0.00000000000E+00 0. -1.
          1   -1    0    0  501    0 -0.00000000000E+00 -0.00000000000E+00 -0.17060218266E+04  0.17060218266E+04  0.00000000000E+00 0. -1.
         25    2    1    2    0    0  0.12450875028E+02 -0.11557861707E+02 -0.17089116189E+03  0.21240968734E+03  0.12500191042E+03 0.  0.
          2    1    1    2  501    0 -0.16103707861E+02  0.70342128754E+02 -0.15098793889E+04  0.15116028293E+04  0.00000000000E+00 0. -1.
          1    1    1    2  502    0  0.36528328331E+01 -0.58784267047E+02  0.23525767670E+03  0.24251826259E+03  0.00000000000E+00 0. -1.
         22    1    3    3    0    0 -0.90884011643E+01 -0.66351273939E+02 -0.98284876635E+02  0.11893278591E+03  0.00000000000E+00 0. -1.
         22    1    3    3    0    0  0.21539276193E+02  0.54793412232E+02 -0.72606285257E+02  0.93476901435E+02  0.00000000000E+00 0. -1.
</event>
<event>
 7    1  0.6089676E-006  0.1073506E+03  0.7818608E-02  0.1362066E+00
          2   -1    0    0  502    0  0.00000000000E+00  0.00000000000E+00  0.30648771742E+04  0.30648771742E+04  0.00000000000E+00 0. -1.
          1   -1    0    0  501    0 -0.00000000000E+00 -0.00000000000E+00 -0.36466908450E+02  0.36466908450E+02  0.00000000000E+00 0. -1.
         25    2    1    2    0    0 -0.42723434012E+02  0.13866376254E+03  0.15226700307E+04  0.15346669289E+04  0.12500251765E+03 0.  0.
          2    1    1    2  501    0  0.13858254809E+02 -0.10427756248E+03  0.61729805364E+02  0.12196897201E+03  0.00000000000E+00 0. -1.
          1    1    1    2  502    0  0.28865179202E+02 -0.34386200056E+02  0.14440104297E+04  0.14447081818E+04  0.00000000000E+00 0. -1.
         22    1    3    3    0    0 -0.41853804774E+02  0.13416347890E+03  0.15235342105E+04  0.15300026375E+04  0.00000000000E+00 0.  1.
         22    1    3    3    0    0 -0.86962923777E+00  0.45002836374E+01 -0.86417981626E+00  0.46642914342E+01  0.00000000000E+00 0.  1.
</event>
<event>
 7    1  0.6089676E-006  0.1003272E+03  0.7818608E-02  0.1378389E+00
          2   -1    0    0  502    0  0.00000000000E+00  0.00000000000E+00  0.31947959927E+03  0.31947959927E+03  0.00000000000E+00 0. -1.
          1   -1    0    0  501    0 -0.00000000000E+00 -0.00000000000E+00 -0.43034807403E+03  0.43034807403E+03  0.00000000000E+00 0. -1.
         25    2    1    2    0    0  0.10207731642E+00  0.75522358076E+02 -0.78740754641E+02  0.16591854627E+03  0.12500088227E+03 0.  0.
          2    1    1    2  501    0  0.36742643836E+02  0.20281716499E+02 -0.29694428868E+03  0.29989544925E+03  0.00000000000E+00 0. -1.
          1    1    1    2  502    0 -0.36844721152E+02 -0.95804074576E+02  0.26481656856E+03  0.28401367778E+03  0.00000000000E+00 0. -1.
         22    1    3    3    0    0 -0.41884128394E+02 -0.11362539509E+02 -0.34711646525E+01  0.43536611024E+02  0.00000000000E+00 0.  1.
         22    1    3    3    0    0  0.41986205711E+02  0.86884897586E+02 -0.75269589988E+02  0.12238193525E+03  0.00000000000E+00 0.  1.
</event>
<event>
 7    1  0.6089676E-006  0.1565230E+03  0.7818608E-02  0.1307287E+00
          2   -1    0    0  502    0  0.00000000000E+00  0.00000000000E+00  0.52848091946E+03  0.52848091946E+03  0.00000000000E+00 0. -1.
          1   -1    0    0  501    0 -0.00000000000E+00 -0.00000000000E+00 -0.23526059529E+03  0.23526059529E+03  0.00000000000E+00 0. -1.
         25    2    1    2    0    0 -0.18642825106E+03  0.10519508755E+02  0.18741946520E+03  0.29260457409E+03  0.12500091193E+03 0.  0.
          2    1    1    2  501    0  0.43942501564E+02  0.23203822578E+02 -0.16007384736E+03  0.16760965794E+03  0.00000000000E+00 0. -1.
          1    1    1    2  502    0  0.14248574950E+03 -0.33723331332E+02  0.26587470633E+03  0.30352728272E+03  0.00000000000E+00 0. -1.
         22    1    3    3    0    0 -0.47251570193E+02  0.60416615729E+02  0.58951778356E+02  0.96737740893E+02  0.00000000000E+00 0. -1.
         22    1    3    3    0    0 -0.13917668087E+03 -0.49897106974E+02  0.12846768685E+03  0.19586683320E+03  0.00000000000E+00 0. -1.
</event>
<event>
 7    1  0.6089676E-006  0.1449668E+03  0.7818608E-02  0.1216116E+00
          2   -1    0    0  502    0  0.00000000000E+00  0.00000000000E+00  0.72305572056E+03  0.72305572056E+03  0.00000000000E+00 0. -1.
          1   -1    0    0  501    0 -0.00000000000E+00 -0.00000000000E+00 -0.18814644066E+04  0.18814644066E+04  0.00000000000E+00 0. -1.
         25    2    1    2    0    0 -0.28715047477E+02 -0.49005806323E+02  0.13043879450E+03  0.18938196410E+03  0.12500050485E+03 0.  0.
          2    1    1    2  501    0 -0.78863770137E+02  0.12422952411E+03 -0.18413678896E+04  0.18472379851E+04  0.00000000000E+00 0. -1.
          1    1    1    2  502    0  0.10757881761E+03 -0.75223717784E+02  0.55252040903E+03  0.56790017795E+03  0.00000000000E+00 0. -1.
         22    1    3    3    0    0 -0.69223343359E+02 -0.15627438169E+02  0.11417380154E+03  0.13443119075E+03  0.00000000000E+00 0.  1.
         22    1    3    3    0    0  0.40508295881E+02 -0.33378368154E+02  0.16264992961E+02  0.54950773351E+02  0.00000000000E+00 0.  1.
</event>
<event>
 7    1  0.6089676E-006  0.4011598E+02  0.7818608E-02  0.1598725E+00
          2   -1    0    0  502    0  0.00000000000E+00  0.00000000000E+00  0.25647729707E+03  0.25647729707E+03  0.00000000000E+00 0. -1.
          1   -1    0    0  501    0 -0.00000000000E+00 -0.00000000000E+00 -0.48449155226E+03  0.48449155226E+03  0.00000000000E+00 0. -1.
         25    2    1    2    0    0 -0.35549865753E+02 -0.94127967193E+00 -0.24486468376E+02  0.13224936506E+03  0.12500251383E+03 0.  0.
          2    1    1    2  501    0  0.24655104135E+01 -0.22212592614E+02 -0.40379933346E+03  0.40441733360E+03  0.00000000000E+00 0. -1.
          1    1    1    2  502    0  0.33084355340E+02  0.23153872286E+02  0.20027154665E+03  0.20430215067E+03  0.00000000000E+00 0. -1.
         22    1    3    3    0    0 -0.37951661412E+02 -0.54053827955E+02 -0.39558912829E+02  0.76987352888E+02  0.00000000000E+00 0.  1.
         22    1    3    3    0    0  0.24017956589E+01  0.53112548283E+02  0.15072444453E+02  0.55262012172E+02  0.00000000000E+00 0.  1.
</event>
<event>
 7    1  0.6089676E-006  0.8593653E+02  0.7818608E-02  0.1314975E+00
          2   -1    0    0  502    0  0.00000000000E+00  0.00000000000E+00  0.17170781068E+04  0.17170781068E+04  0.00000000000E+00 0. -1.
          1   -1    0    0  501    0 -0.00000000000E+00 -0.00000000000E+00 -0.11485191875E+04  0.11485191875E+04  0.00000000000E+00 0. -1.
         25    2    1    2    0    0 -0.20181659875E+02  0.12707528642E+02  0.22175317192E+02  0.12917065763E+03  0.12499813366E+03 0.  0.
          2    1    1    2  501    0 -0.24620471726E+02 -0.84259290004E+02 -0.10921738389E+04  0.10956958930E+04  0.00000000000E+00 0. -1.
          1    1    1    2  502    0  0.44802131601E+02  0.71551761362E+02  0.16385574410E+04  0.16407307436E+04  0.00000000000E+00 0. -1.
         22    1    3    3    0    0  0.23678276882E+02 -0.42994569763E+02  0.30497575013E+02  0.57786641249E+02  0.00000000000E+00 0. -1.
         22    1    3    3    0    0 -0.43859936757E+02  0.55702098405E+02 -0.83222578203E+01  0.71384016378E+02  0.00000000000E+00 0. -1.
</event>
<event>
 7    1  0.6089676E-006  0.7164194E+02  0.7818608E-02  0.1430614E+00
          2   -1    0    0  502    0  0.00000000000E+00  0.00000000000E+00  0.24613615717E+04  0.24613615717E+04  0.00000000000E+00 0. -1.
          1   -1    0    0  501    0 -0.00000000000E+00 -0.00000000000E+00 -0.37576416906E+03  0.37576416906E+03  0.00000000000E+00 0. -1.
         25    2    1    2    0    0 -0.64817926844E+02  0.82341832575E+02  0.10438505863E+04  0.10565179554E+04  0.12499841002E+03 0.  0.
          2    1    1    2  501    0  0.16297446106E+02 -0.35396156272E+02 -0.36759254504E+03  0.36965223359E+03  0.00000000000E+00 0. -1.
          1    1    1    2  502    0  0.48520480738E+02 -0.46945676303E+02  0.14093393613E+04  0.14109555517E+04  0.00000000000E+00 0. -1.
         22    1    3    3    0    0 -0.48670460279E+02  0.52313770364E+01  0.77015776033E+03  0.77171183534E+03  0.00000000000E+00 0. -1.
         22    1    3    3    0    0 -0.16147466565E+02  0.77110455539E+02  0.27369282602E+03  0.28480612009E+03  0.00000000000E+00 0. -1.
</event>
<event>
 7    1  0.6089676E-006  0.1359904E+03  0.7818608E-02  0.1288936E+00
          2   -1    0    0  502    0  0.00000000000E+00  0.00000000000E+00  0.19319469425E+03  0.19319469425E+03  0.00000000000E+00 0. -1.
          1   -1    0    0  501    0 -0.00000000000E+00 -0.00000000000E+00 -0.21803429473E+04  0.21803429473E+04  0.00000000000E+00 0. -1.
         25    2    1    2    0    0 -0.49357555694E+02  0.72551310904E+02 -0.15875153385E+03  0.22028679519E+03  0.12499744644E+03 0.  0.
          2    1    1    2  501    0  0.29311177228E+02 -0.13729048412E+03 -0.19811608577E+04  0.19861284365E+04  0.00000000000E+00 0. -1.
          1    1    1    2  502    0  0.20046378467E+02  0.64739173220E+02  0.15276413855E+03  0.16712240982E+03  0.00000000000E+00 0. -1.
         22    1    3    3    0    0  0.13324600906E+02  0.82935841502E+02 -0.11785431698E+03  0.14472573657E+03  0.00000000000E+00 0.  1.
         22    1    3    3    0    0 -0.62682156601E+02 -0.10384530598E+02 -0.40897216875E+02  0.75561058622E+02  0.00000000000E+00 0.  1.
</event>
<event>
 7    1  0.6089676E-006  0.7244087E+02  0.7818608E-02  0.1474007E+00
          2   -1    0    0  502    0  0.00000000000E+00  0.00000000000E+00  0.18606649703E+04  0.18606649703E+04  0.00000000000E+00 0. -1.
          1   -1    0    0  501    0 -0.00000000000E+00 -0.00000000000E+00 -0.52538463068E+03  0.52538463068E+03  0.00000000000E+00 0. -1.
         25    2    1    2    0    0  0.78271260574E+02 -0.57782027238E+02  0.82206100037E+01  0.15861265008E+03  0.12500096573E+03 0.  0.
          2    1    1    2  501    0 -0.27199040431E+02  0.67355002405E+01 -0.44901825033E+03  0.44989170241E+03  0.00000000000E+00 0. -1.
          1    1    1    2  502    0 -0.51072220143E+02  0.51046526997E+02  0.17760779799E+04  0.17775452485E+04  0.00000000000E+00 0. -1.
         22    1    3    3    0    0 -0.21483624478E+01 -0.40288108008E+02  0.51663206206E+02  0.65550240149E+02  0.00000000000E+00 0. -1.
         22    1    3    3    0    0  0.80419623022E+02 -0.17493919230E+02 -0.43442596202E+02  0.93062409929E+02  0.00000000000E+00 0. -1.
</event>
<event>
 7    1  0.6089676E-006  0.7014543E+02  0.7818608E-02  0.1422512E+00
          2   -1    0    0  502    0  0.00000000000E+00  0.00000000000E+00  0.75767600106E+03  0.75767600106E+03  0.00000000000E+00 0. -1.
          1   -1    0    0  501    0 -0.00000000000E+00 -0.00000000000E+00 -0.83728935075E+02  0.83728935075E+02  0.00000000000E+00 0. -1.
         25    2    1    2    0    0 -0.34569119692E+02 -0.49423307252E+02  0.44296165402E+03  0.46419493212E+03  0.12499688292E+03 0.  0.
          2    1    1    2  501    0  0.31047207041E+02 -0.28777962271E+02 -0.61370748065E+02  0.74555139967E+02  0.00000000000E+00 0. -1.
          1    1    1    2  502    0  0.35219126503E+01  0.78201269523E+02  0.29235616004E+03  0.30265486405E+03  0.00000000000E+00 0. -1.
         22    1    3    3    0    0  0.28479390258E+02 -0.34488553765E+02  0.55147861540E+02  0.71005793022E+02  0.00000000000E+00 0. -1.
         22    1    3    3    0    0 -0.63048509949E+02 -0.14934753486E+02  0.38781379248E+03  0.39318913910E+03  0.00000000000E+00 0. -1.
</event>
<event>
 7    1  0.6089676E-006  0.1913987E+03  0.7818608E-02  0.1280132E+00
          2   -1    0    0  502    0  0.00000000000E+00  0.00000000000E+00  0.28117835480E+03  0.28117835480E+03  0.00000000000E+00 0. -1.
          1   -1    0    0  501    0 -0.00000000000E+00 -0.00000000000E+00 -0.89158966610E+03  0.89158966610E+03  0.00000000000E+00 0. -1.
         25    2    1    2    0    0 -0.10008365873E+02 -0.20965341301E+03 -0.20917204085E+03  0.32160876790E+03  0.12499814376E+03 0.  0.
          2    1    1    2  501    0  0.46592125752E+02  0.23820852095E+02 -0.58495827160E+03  0.58729416708E+03  0.00000000000E+00 0. -1.
          1    1    1    2  502    0 -0.36583759879E+02  0.18583256091E+03  0.18371900115E+03  0.26386508592E+03  0.00000000000E+00 0. -1.
         22    1    3    3    0    0 -0.19682342568E+02 -0.19824838512E+03 -0.22452977093E+03  0.30017234190E+03  0.00000000000E+00 0.  1.
         22    1    3    3    0    0  0.96739766955E+01 -0.11405027891E+02  0.15357730079E+02  0.21436425996E+02  0.00000000000E+00 0.  1.
</event>
<event>
 7    1  0.6089676E-006  0.5439992E+02  0.7818608E-02  0.1491218E+00
          2   -1    0    0  502    0  0.00000000000E+00  0.00000000000E+00  0.11794565347E+04  0.11794565347E+04  0.00000000000E+00 0. -1.
          1   -1    0    0  501    0 -0.00000000000E+00 -0.00000000000E+00 -0.15474424068E+04  0.15474424068E+04  0.00000000000E+00 0. -1.
         25    2    1    2    0    0 -0.32527665005E+02  0.31312852925E+02 -0.17436661376E+03  0.21924326991E+03  0.12500140661E+03 0.  0.
          2    1    1    2  501    0  0.86435453794E+01 -0.54166096306E+02 -0.13498442471E+04  0.13509582408E+04  0.00000000000E+00 0. -1.
          1    1    1    2  502    0  0.23884119626E+02  0.22853243381E+02  0.11562249887E+04  0.11566974308E+04  0.00000000000E+00 0. -1.
         22    1    3    3    0    0 -0.46854085583E+02 -0.32672118174E+02 -0.40005795908E+02  0.69736908076E+02  0.00000000000E+00 0.  1.
         22    1    3    3    0    0  0.14326420578E+02  0.63984971099E+02 -0.13436081786E+03  0.14950636183E+03  0.00000000000E+00 0.  1.
</event>
<event>
 7    1  0.6089676E-006  0.6223938E+02  0.7818608E-02  0.1485523E+00
          2   -1    0    0  502    0  0.00000000000E+00  0.00000000000E+00  0.13254867938E+04  0.13254867938E+04  0.00000000000E+00 0. -1.
          1   -1    0    0  501    0 -0.00000000000E+00 -0.00000000000E+00 -0.26609079745E+02  0.26609079745E+02  0.00000000000E+00 0. -1.
         25    2    1    2    0    0 -0.17104846349E+01  0.43124963012E+02  0.37581065669E+03  0.39839850090E+03  0.12500011059E+03 0.  0.
          2    1    1    2  501    0 -0.20917689135E+02 -0.62919955798E+02  0.57957470051E+02  0.88065537477E+02  0.00000000000E+00 0. -1.
          1    1    1    2  502    0  0.22628173770E+02  0.19794992786E+02  0.86510958727E+03  0.86563183512E+03  0.00000000000E+00 0. -1.
         22    1    3    3    0    0 -0.19874368333E+02  0.84621797204E+02  0.24386185551E+03  0.25889079483E+03  0.00000000000E+00 0. -1.
         22    1    3    3    0    0  0.18163883698E+02 -0.41496834192E+02  0.13194880118E+03  0.13950770607E+03  0.00000000000E+00 0. -1.
</event>
<event>
 7    1  0.6089676E-006  0.7896399E+02  0.7818608E-02  0.1461346E+00
          2   -1    0    0  502    0  0.00000000000E+00  0.00000000000E+00  0.14980500127E+04  0.14980500127E+04  0.00000000000E+00 0. -1.
          1   -1    0    0  501    0 -0.00000000000E+00 -0.00000000000E+00 -0.48687241898E+03  0.48687241898E+03  0.00000000000E+00 0. -1.
         25    2    1    2    0    0 -0.86082274681E+02  0.44774848861E+02 -0.37067788670E+03  0.40303604756E+03  0.12498405836E+03 0.  0.
          2    1    1    2  501    0  0.92856496765E+01 -0.26578941087E+02 -0.96960774361E+02  0.10096561377E+03  0.00000000000E+00 0. -1.
          1    1    1    2  502    0  0.76796625004E+02 -0.18195907774E+02  0.14788162547E+04  0.14809207703E+04  0.00000000000E+00 0. -1.
         22    1    3    3    0    0 -0.23594151790E+01  0.59701631512E+02 -0.23844619129E+03  0.24581789557E+03  0.00000000000E+00 0. -1.
         22    1    3    3    0    0 -0.83722859502E+02 -0.14926782650E+02 -0.13223169541E+03  0.15721815199E+03  0.00000000000E+00 0. -1.
</event>
<event>
 7    1  0.6089676E-006  0.5608636E+02  0.7818608E-02  0.1486881E+00
          2   -1    0    0  502    0  0.00000000000E+00  0.00000000000E+00  0.26118963134E+03  0.26118963134E+03  0.00000000000E+00 0. -1.
          1   -1    0    0  501    0 -0.00000000000E+00 -0.00000000000E+00 -0.13064328080E+03  0.13064328080E+03  0.00000000000E+00 0. -1.
         25    2    1    2    0    0  0.20037142711E+02 -0.35497508931E+02  0.42973809292E+02  0.13832036375E+03  0.12499685802E+03 0.  0.
          2    1    1    2  501    0  0.37200685762E+01  0.58469509143E+02 -0.70703516760E+02  0.91823252457E+02  0.00000000000E+00 0. -1.
          1    1    1    2  502    0 -0.23757211287E+02 -0.22972000212E+02  0.15827605800E+03  0.16168929593E+03  0.00000000000E+00 0. -1.
         22    1    3    3    0    0  0.11856161976E+02  0.47029242317E+02  0.14146577146E+02  0.50521716663E+02  0.00000000000E+00 0.  1.
         22    1    3    3    0    0  0.81809807356E+01 -0.82526751248E+02  0.28827232146E+02  0.87798647088E+02  0.00000000000E+00 0.  1.
</event>
<event>
 7    1  0.6089676E-006  0.4323102E+02  0.7818608E-02  0.1491894E+00
          2   -1    0    0  502    0  0.00000000000E+00  0.00000000000E+00  0.16254359462E+04  0.16254359462E+04  0.00000000000E+00 0. -1.
          1   -1    0    0  501    0 -0.00000000000E+00 -0.00000000000E+00 -0.22262236170E+03  0.22262236170E+03  0.00000000000E+00 0. -1.
         25    2    1    2    0    0 -0.34683744880E+02 -0.62184427009E+02 -0.13674082711E+03  0.19848402933E+03  0.12501196335E+03 0.  0.
          2    1    1    2  501    0 -0.31244306299E+01  0.41283489938E+02 -0.46884115981E+02  0.62547653350E+02  0.00000000000E+00 0. -1.
          1    1    1    2  502    0  0.37808175510E+02  0.20900937071E+02  0.15864385275E+04  0.15870266252E+04  0.00000000000E+00 0. -1.
         22    1    3    3    0    0 -0.38150039065E+02 -0.88888601305E+02 -0.52530438286E+02  0.11007295703E+03  0.00000000000E+00 0. -1.
         22    1    3    3    0    0  0.34662941849E+01  0.26704174297E+02 -0.84210388822E+02  0.88411072303E+02  0.00000000000E+00 0. -1.
</event>
<event>
 7    1  0.6089676E-006  0.6564267E+02  0.7818608E-02  0.1401054E+00
          2   -1    0    0  502    0  0.00000000000E+00  0.00000000000E+00  0.79746112239E+03  0.79746112239E+03  0.00000000000E+00 0. -1.
          1   -1    0    0  501    0 -0.00000000000E+00 -0.00000000000E+00 -0.33733894849E+03  0.33733894849E+03  0.00000000000E+00 0. -1.
         25    2    1    2    0    0 -0.16754235872E+02  0.13076962934E+02  0.26756882812E+03  0.29608999111E+03  0.12499797467E+03 0.  0.
          2    1    1    2  501    0 -0.30602735871E+02  0.43833965257E+02 -0.31817922591E+03  0.32263906111E+03  0.00000000000E+00 0. -1.
          1    1    1    2  502    0  0.47356971743E+02 -0.56910928191E+02  0.51073257169E+03  0.51607101867E+03  0.00000000000E+00 0. -1.
         22    1    3    3    0    0  0.36794916500E+01 -0.86048889122E+01  0.26609579290E+03  0.26626031205E+03  0.00000000000E+00 0.  1.
         22    1    3    3    0    0 -0.20433727522E+02  0.21681851846E+02  0.14730352193E+01  0.29829679058E+02  0.00000000000E+00 0.  1.
</event>
<event>
 7    1  0.6089676E-006  0.8916079E+02  0.7818608E-02  0.1434349E+00
          2   -1    0    0  502    0  0.00000000000E+00  0.00000000000E+00  0.18743036849E+04  0.18743036849E+04  0.00000000000E+00 0. -1.
          1   -1    0    0  501    0 -0.00000000000E+00 -0.00000000000E+00 -0.15602626947E+04  0.15602626947E+04  0.00000000000E+00 0. -1.
         25    2    1    2    0    0 -0.79868245213E+02 -0.84348329773E+02 -0.87450117435E+02  0.19174525397E+03  0.12500056821E+03 0.  0.
          2    1    1    2  501    0  0.68351162719E+02  0.56170886351E+02 -0.14191603016E+04  0.14219152617E+04  0.00000000000E+00 0. -1.
          1    1    1    2  502    0  0.11517082495E+02  0.28177443423E+02  0.18206514092E+04  0.18209058639E+04  0.00000000000E+00 0. -1.
         22    1    3    3    0    0  0.25505567606E+01  0.26869718424E+02 -0.33871584661E+02  0.43310176118E+02  0.00000000000E+00 0.  1.
         22    1    3    3    0    0 -0.82418801974E+02 -0.11121804820E+03 -0.53578532775E+02  0.14843507786E+03  0.00000000000E+00 0.  1.
</event>
<event>
 7    1  0.6089676E-006  0.1473325E+03  0.7818608E-02  0.1284864E+00
          2   -1    0    0  502    0  0.00000000000E+00  0.00000000000E+00  0.12588181894E+04  0.12588181894E+04  0.00000000000E+00 0. -1.
          1   -1    0    0  501    0 -0.00000000000E+00 -0.00000000000E+00 -0.59525143509E+02  0.59525143509E+02  0.00000000000E+00 0. -1.
         25    2    1    2    0    0  0.15040051398E+03 -0.12760192756E+03  0.29359068799E+03  0.37513029604E+03  0.12499872164E+03 0.  0.
          2    1    1    2  501    0 -0.27835634987E+02  0.58736553667E+02  0.69044955534E+02  0.94826215766E+02  0.00000000000E+00 0. -1.
          1    1    1    2  502    0 -0.12256487899E+03  0.68865373894E+02  0.83665740235E+03  0.84838682108E+03  0.00000000000E+00 0. -1.
         22    1    3    3    0    0  0.12747429233E+03 -0.27066347734E+02  0.15907070749E+03  0.20563504654E+03  0.00000000000E+00 0. -1.
         22    1    3    3    0    0  0.22926221653E+02 -0.10053557983E+03  0.13451998050E+03  0.16949524951E+03  0.00000000000E+00 0. -1.
</event>
<event>
 7    1  0.6089676E-006  0.1887610E+03  0.7818608E-02  0.1255711E+00
          2   -1    0    0  502    0  0.00000000000E+00  0.00000000000E+00  0.25508620804E+03  0.25508620804E+03  0.00000000000E+00 0. -1.
          1   -1    0    0  501    0 -0.00000000000E+00 -0.00000000000E+00 -0.10214043433E+04  0.10214043433E+04  0.00000000000E+00 0. -1.
         25    2    1    2    0    0 -0.11940421159E+03  0.10188254612E+03  0.43079166386E+02  0.20522700824E+03  0.12499956554E+03 0.  0.
          2    1    1    2  501    0  0.97358819171E+02 -0.16541365184E+03 -0.92109733949E+03  0.94088294952E+03  0.00000000000E+00 0. -1.
          1    1    1    2  502    0  0.22045392415E+02  0.63531105724E+02  0.11170003786E+03  0.13038059357E+03  0.00000000000E+00 0. -1.
         22    1    3    3    0    0  0.90373272194E+01  0.51199760510E+02  0.42491396621E+02  0.67146165538E+02  0.00000000000E+00 0. -1.
         22    1    3    3    0    0 -0.12844153881E+03  0.50682785607E+02  0.58776976500E+00  0.13808084270E+03  0.00000000000E+00 0. -1.
</event>
<event>
 7    1  0.6089676E-006  0.5565038E+02  0.7818608E-02  0.1420426E+00
          2   -1    0    0  502    0  0.00000000000E+00  0.00000000000E+00  0.78451838268E+03  0.78451838268E+03  0.00000000000E+00 0. -1.
          1   -1    0    0  501    0 -0.00000000000E+00 -0.00000000000E+00 -0.52745297170E+03  0.52745297170E+03  0.00000000000E+00 0. -1.
         25    2    1    2    0    0 -0.46660210885E+02 -0.46422123408E+02 -0.37826951480E+02  0.14624343665E+03  0.12499630267E+03 0.  0.
          2    1    1    2  501    0 -0.87117139089E+01  0.53516320884E+02 -0.43265637415E+03  0.43604062729E+03  0.00000000000E+00 0. -1.
          1    1    1    2  502    0  0.55371924794E+02 -0.70941974758E+01  0.72754873661E+03  0.72968729044E+03  0.00000000000E+00 0. -1.
         22    1    3    3    0    0  0.11890663366E+02 -0.39890214962E+02  0.33714931812E+02  0.53565975694E+02  0.00000000000E+00 0.  1.
         22    1    3    3    0    0 -0.58550874251E+02 -0.65319084461E+01 -0.71541883292E+02  0.92677460952E+02  0.00000000000E+00 0.  1.
</event>
<event>
 7    1  0.6089676E-006  0.1643699E+03  0.7818608E-02  0.1369425E+00
          2   -1    0    0  502    0  0.00000000000E+00  0.00000000000E+00  0.98998803805E+03  0.98998803805E+03  0.00000000000E+00 0. -1.
          1   -1    0    0  501    0 -0.00000000000E+00 -0.00000000000E+00 -0.83426408369E+03  0.83426408369E+03  0.00000000000E+00 0. -1.
         25    2    1    2    0    0 -0.14038060433E+03  0.17699016493E+02  0.29090395594E+03  0.34679896255E+03  0.12499775835E+03 0.  0.
          2    1    1    2  501    0  0.16101865075E+03 -0.35991383205E+02 -0.79758631079E+03  0.81447302516E+03  0.00000000000E+00 0. -1.
          1    1    1    2  502    0 -0.20638046422E+02  0.18292366712E+02  0.66240630920E+03  0.66298013403E+03  0.00000000000E+00 0. -1.
         22    1    3    3    0    0 -0.37705747385E+02 -0.51501452013E+02  0.81392796802E+02  0.10343553701E+03  0.00000000000E+00 0.  1.
         22    1    3    3    0    0 -0.10267485694E+03  0.69200468506E+02  0.20951115914E+03  0.24336342554E+03  0.00000000000E+00 0.  1.
</event>
<event>
 7    1  0.6089676E-006  0.1875206E+03  0.7818608E-02  0.1245783E+00
          2   -1    0    0  502    0  0.00000000000E+00  0.00000000000E+00  0.92645945870E+03  0.92645945870E+03  0.00000000000E+00 0. -1.
          1   -1    0    0  501    0 -0.00000000000E+00 -0.00000000000E+00 -0.31164547733E+04  0.31164547733E+04  0.00000000000E+00 0. -1.
         25    2    1    2    0    0  0.17626257929E+03  0.12804676627E+03 -0.90797523911E+03  0.94207686576E+03  0.12500125980E+03 0.  0.
          2    1    1    2  501    0  0.33034087436E+01 -0.74667339846E+02 -0.21811345486E+04  0.21824147276E+04  0.00000000000E+00 0. -1.
          1    1    1    2  502    0 -0.17956598803E+03 -0.53379426427E+02  0.89911447316E+03  0.91842263859E+03  0.00000000000E+00 0. -1.
         22    1    3    3    0    0  0.16661154208E+03  0.52281732134E+02 -0.64773858925E+03  0.67086367130E+03  0.00000000000E+00 0.  1.
         22    1    3    3    0    0  0.96510372048E+01  0.75765034139E+02 -0.26023664987E+03  0.27121319446E+03  0.00000000000E+00 0.  1.
</event>
<event>
 7    1  0.6089676E-006  0.9975017E+02  0.7818608E-02  0.1366086E+00
          2   -1    0    0  502    0  0.00000000000E+00  0.00000000000E+00  0.58253705322E+03  0.58253705322E+03  0.00000000000E+00 0. -1.
          1   -1    0    0  501    0 -0.00000000000E+00 -0.00000000000E+00 -0.27169990375E+03  0.27169990375E+03  0.00000000000E+00 0. -1.
         25    2    1    2    0    0  0.42111939563E+02  0.10079771773E+03  0.43671641743E+02  0.17165944090E+03  0.12500462393E+03 0.  0.
          2    1    1    2  501    0  0.45947560907E+01 -0.99632945317E+02 -0.19448509880E+03  0.21856872885E+03  0.00000000000E+00 0. -1.
          1    1    1    2  502    0 -0.46706695654E+02 -0.11647724087E+01  0.46165060652E+03  0.46400878722E+03  0.00000000000E+00 0. -1.
         22    1    3    3    0    0  0.78928580044E+02  0.27763206854E+02  0.29080415876E+02  0.88578705060E+02  0.00000000000E+00 0.  1.
         22    1    3    3    0    0 -0.36816640481E+02  0.73034510872E+02  0.14591225867E+02  0.83080735836E+02  0.00000000000E+00 0.  1.
</event>
<event>
 7    1  0.6089676E-006  0.2845777E+02  0.7818608E-02  0.1624038E+00
          2   -1    0    0  502    0  0.00000000000E+00  0.00000000000E+00  0.15704982170E+02  0.15704982170E+02  0.00000000000E+00 0. -1.
          1   -1    0    0  501    0 -0.00000000000E+00 -0.00000000000E+00 -0.87480537042E+03  0.87480537042E+03  0.00000000000E+00 0. -1.
         25    2    1    2    0    0 -0.14936121342E+02 -0.31785128175E+02 -0.65675660504E+03  0.66946811206E+03  0.12499973085E+03 0.  0.
          2    1    1    2  501    0 -0.11681805767E+02  0.26623573706E+02 -0.18825453174E+03  0.19048634593E+03  0.00000000000E+00 0. -1.
          1    1    1    2  502    0  0.26617927108E+02  0.51615544692E+01 -0.14089251474E+02  0.30555894606E+02  0.00000000000E+00 0. -1.
         22    1    3    3    0    0  0.77844714304E+01 -0.59597979685E+02 -0.59500149695E+03  0.59802951311E+03  0.00000000000E+00 0.  1.
         22    1    3    3    0    0 -0.22720592772E+02  0.27812851510E+02 -0.61755108083E+02  0.71438598946E+02  0.00000000000E+00 0.  1.
</event>
<event>
 7    1  0.6089676E-006  0.7058473E+02  0.7818608E-02  0.1382521E+00
          2   -1    0    0  502    0  0.00000000000E+00  0.00000000000E+00  0.33374511447E+03  0.33374511447E+03  0.00000000000E+00 0. -1.
          1   -1    0    0  501    0 -0.00000000000E+00 -0.00000000000E+00 -0.11085577942E+04  0.11085577942E+04  0.00000000000E+00 0. -1.
         25    2    1    2    0    0 -0.16275095929E+02 -0.35848785172E+02  0.12335623666E+03  0.17997926264E+03  0.12500303881E+03 0.  0.
          2    1    1    2  501    0  0.69588783778E+02  0.13840169404E+02 -0.10744789728E+04  0.10768190248E+04  0.00000000000E+00 0. -1.
          1    1    1    2  502    0 -0.53313687849E+02  0.22008615768E+02  0.17631005646E+03  0.18550462121E+03  0.00000000000E+00 0. -1.
         22    1    3    3    0    0 -0.30858589726E+02 -0.79303999880E+02  0.83856839418E+02  0.11947111146E+03  0.00000000000E+00 0. -1.
         22    1    3    3    0    0  0.14583493797E+02  0.43455214708E+02  0.39499397239E+02  0.60508151177E+02  0.00000000000E+00 0. -1.
</event>
<event>
 7    1  0.6089676E-006  0.5421172E+02  0.7818608E-02  0.1465695E+00
          2   -1    0    0  502    0  0.00000000000E+00  0.00000000000E+00  0.10326408695E+04  0.10326408695E+04  0.00000000000E+00 0. -1.
          1   -1    0    0  501    0 -0.00000000000E+00 -0.00000000000E+00 -0.14664446524E+04  0.14664446524E+04  0.00000000000E+00 0. -1.
         25    2    1    2    0    0 -0.37708731213E+02 -0.46164327409E+02  0.10116758184E+03  0.17150335679E+03  0.12500171294E+03 0.  0.
          2    1    1    2  501    0  0.53380718091E+02  0.96450261672E+01 -0.14303218902E+04  0.14313501449E+04  0.00000000000E+00 0. -1.
          1    1    1    2  502    0 -0.15671986878E+02  0.36519301242E+02  0.89535052554E+03  0.89623202025E+03  0.00000000000E+00 0. -1.
         22    1    3    3    0    0 -0.74178851704E+02  0.24940479606E+01  0.74311278763E+02  0.10502803657E+03  0.00000000000E+00 0. -1.
         22    1    3    3    0    0  0.36470120491E+02 -0.48658375369E+02  0.26856303076E+02  0.66475320211E+02  0.00000000000E+00 0. -1.
</event>
<event>
 7    1  0.6089676E-006  0.1065670E+03  0.7818608E-02  0.1321885E+00
          2   -1    0    0  502    0  0.00000000000E+00  0.00000000000E+00  0.54321224995E+03  0.54321224995E+03  0.00000000000E+00 0. -1.
          1   -1    0    0  501    0 -0.00000000000E+00 -0.00000000000E+00 -0.86598196983E+03  0.86598196983E+03  0.00000000000E+00 0. -1.
         25    2    1    2    0    0  0.38920719974E+02 -0.59604004217E+02  0.28223424043E+02  0.14657846388E+03  0.12498489768E+03 0.  0.
          2    1    1    2  501    0 -0.36948685422E+02 -0.52247876477E+02 -0.79864130756E+03  0.80120096361E+03  0.00000000000E+00 0. -1.
          1    1    1    2  502    0 -0.19720345519E+01  0.11185188069E+03  0.44764816363E+03  0.46141479228E+03  0.00000000000E+00 0. -1.
         22    1    3    3    0    0 -0.13049946710E+02 -0.19824984010E+02 -0.43456053264E+02  0.49515246797E+02  0.00000000000E+00 0.  1.
         22    1    3    3    0    0  0.51970666684E+02 -0.39779020206E+02  0.71679477306E+02  0.97063217086E+02  0.00000000000E+00 0.  1.
</event>
<event>
 7    1  0.6089676E-006  0.8906871E+02  0.7818608E-02  0.1327885E+00
          2   -1    0    0  502    0  0.00000000000E+00  0.00000000000E+00  0.16251455459E+04  0.16251455459E+04  0.00000000000E+00 0. -1.
          1   -1    0    0  501    0 -0.00000000000E+00 -0.00000000000E+00 -0.37089578937E+03  0.37089578937E+03  0.00000000000E+00 0. -1.
         25    2    1    2    0    0  0.29777289436E+02 -0.34544647425E+02  0.60337356060E+03  0.61787110904E+03  0.12500013647E+03 0.  0.
          2    1    1    2  501    0 -0.88238444990E+01 -0.72059369834E+02 -0.35707525819E+03  0.36438050582E+03  0.00000000000E+00 0. -1.
          1    1    1    2  502    0 -0.20953444937E+02  0.10660401726E+03  0.10079514541E+04  0.10137897204E+04  0.00000000000E+00 0. -1.
         22    1    3    3    0    0  0.37928088690E+02 -0.19656494492E+02  0.59875999610E+03  0.60028197592E+03  0.00000000000E+00 0.  1.
         22    1    3    3    0    0 -0.81507992543E+01 -0.14888152933E+02  0.46135644980E+01  0.17589133111E+02  0.00000000000E+00 0.  1.
</event>
<event>
 7    1  0.6804391E-006  0.4149361E+02  0.7818608E-02  0.1532589E+00
          2   -1    0    0  502    0  0.00000000000E+00  0.00000000000E+00  0.21824893923E+04  0.21824893923E+04  0.00000000000E+00 0. -1.
          1   -1    0    0  501    0 -0.00000000000E+00 -0.00000000000E+00 -0.24601125581E+04  0.24601125581E+04  0.00000000000E+00 0. -1.
         25    2    1    2    0    0  0.10309955012E+02  0.27944040777E+02 -0.53759558899E+03  0.55273942772E+03  0.12499877227E+03 0.  0.
          2    1    1    2  501    0  0.29123976948E+02 -0.15006606686E+02 -0.19146069014E+04  0.19148872007E+04  0.00000000000E+00 0. -1.
          1    1    1    2  502    0 -0.39433931960E+02 -0.12937434091E+02  0.21745793246E+04  0.21749753220E+04  0.00000000000E+00 0. -1.
         22    1    3    3    0    0  0.22984767848E+02 -0.37894494096E+02 -0.36328899154E+03  0.36598249085E+03  0.00000000000E+00 0. -1.
         22    1    3    3    0    0 -0.12674812836E+02  0.65838534873E+02 -0.17430659745E+03  0.18675693687E+03  0.00000000000E+00 0. -1.
</event>
<event>
 7    1  0.6089676E-006  0.8356794E+02  0.7818608E-02  0.1367725E+00
          2   -1    0    0  502    0  0.00000000000E+00  0.00000000000E+00  0.94105821588E+03  0.94105821588E+03  0.00000000000E+00 0. -1.
          1   -1    0    0  501    0 -0.00000000000E+00 -0.00000000000E+00 -0.87760844541E+03  0.87760844541E+03  0.00000000000E+00 0. -1.
         25    2    1    2    0    0  0.25132772545E+02 -0.34614385307E+02  0.21312050912E+03  0.25074850995E+03  0.12499860762E+03 0.  0.
          2    1    1    2  501    0 -0.87438648199E+01 -0.54313678630E+02 -0.85502415287E+03  0.85679211764E+03  0.00000000000E+00 0. -1.
          1    1    1    2  502    0 -0.16388907725E+02  0.88928063937E+02  0.70535341422E+03  0.71112603370E+03  0.00000000000E+00 0. -1.
         22    1    3    3    0    0 -0.14380226598E+02 -0.29403609409E+02  0.20800717388E+03  0.21056672945E+03  0.00000000000E+00 0. -1.
         22    1    3    3    0    0  0.39512999144E+02 -0.52107758977E+01  0.51133352372E+01  0.40181780499E+02  0.00000000000E+00 0. -1.
</event>
<event>
 7    1  0.6089676E-006  0.1699875E+03  0.7818608E-02  0.1276702E+00
          2   -1    0    0  502    0  0.00000000000E+00  0.00000000000E+00  0.10368147312E+04  0.10368147312E+04  0.00000000000E+00 0. -1.
          1   -1    0    0  501    0 -0.00000000000E+00 -0.00000000000E+00 -0.36828181818E+03  0.36828181818E+03  0.00000000000E+00 0. -1.
         25    2    1    2    0    0  0.13887786737E+03  0.71734023305E+02  0.97554876746E+01  0.20038332754E+03  0.12500190507E+03 0.  0.
          2    1    1    2  501    0 -0.17434288981E+03 -0.22251503598E+02 -0.24354408245E+03  0.30034029489E+03  0.00000000000E+00 0. -1.
          1    1    1    2  502    0  0.35465022434E+02 -0.49482519706E+02  0.90232150779E+03  0.90437292694E+03  0.00000000000E+00 0. -1.
         22    1    3    3    0    0 -0.36949985342E+01  0.22926579355E+02 -0.36047957598E+02  0.42880488594E+02  0.00000000000E+00 0. -1.
         22    1    3    3    0    0  0.14257286591E+03  0.48807443950E+02  0.45803445273E+02  0.15750283895E+03  0.00000000000E+00 0. -1.
</event>
<event>
 7    1  0.6089676E-006  0.4329751E+02  0.7818608E-02  0.1521146E+00
          2   -1    0    0  502    0  0.00000000000E+00  0.00000000000E+00  0.30921008489E+04  0.30921008489E+04  0.00000000000E+00 0. -1.
          1   -1    0    0  501    0 -0.00000000000E+00 -0.00000000000E+00 -0.58406028576E+02  0.58406028576E+02  0.00000000000E+00 0. -1.
         25    2    1    2    0    0 -0.10121529667E+02  0.74310788976E+02  0.98686694148E+03  0.99757508230E+03  0.12500058371E+03 0.  0.
          2    1    1    2  501    0  0.14057791850E+02 -0.40669615728E+02 -0.44166595510E+02  0.61663014151E+02  0.00000000000E+00 0. -1.
          1    1    1    2  502    0 -0.39362621831E+01 -0.33641173247E+02  0.20909944744E+04  0.20912687811E+04  0.00000000000E+00 0. -1.
         22    1    3    3    0    0  0.24101230808E+02 -0.14838780931E+02  0.66566843069E+02  0.72333970872E+02  0.00000000000E+00 0. -1.
         22    1    3    3    0    0 -0.34222760475E+02  0.89149569906E+02  0.92030009841E+03  0.92524111143E+03  0.00000000000E+00 0. -1.
</event>
<event>
 7    1  0.6089676E-006  0.1216904E+03  0.7818608E-02  0.1414643E+00
          2   -1    0    0  502    0  0.00000000000E+00  0.00000000000E+00  0.18235104428E+04  0.18235104428E+04  0.00000000000E+00 0. -1.
          1   -1    0    0  501    0 -0.00000000000E+00 -0.00000000000E+00 -0.99555470060E+03  0.99555470060E+03  0.00000000000E+00 0. -1.
         25    2    1    2    0    0  0.14181817936E+03 -0.18359403373E+02 -0.80779586080E+03  0.82982406371E+03  0.12499744119E+03 0.  0.
          2    1    1    2  501    0 -0.20196835434E+02  0.16258192159E+02 -0.17374082197E+03  0.17566477790E+03  0.00000000000E+00 0. -1.
          1    1    1    2  502    0 -0.12162134393E+03  0.21012112143E+01  0.18094924250E+04  0.18135763018E+04  0.00000000000E+00 0. -1.
         22    1    3    3    0    0  0.20077048866E+02 -0.10088164833E+02 -0.47218141334E+03  0.47271571379E+03  0.00000000000E+00 0.  1.
         22    1    3    3    0    0  0.12174113050E+03 -0.82712385401E+01 -0.33561444746E+03  0.35710834992E+03  0.00000000000E+00 0.  1.
</event>
<event>
 7    1  0.6089676E-006  0.4785568E+02  0.7818608E-02  0.1504548E+00
          2   -1    0    0  502    0  0.00000000000E+00  0.00000000000E+00  0.79487538590E+03  0.79487538590E+03  0.00000000000E+00 0. -1.
          1   -1    0    0  501    0 -0.00000000000E+00 -0.00000000000E+00 -0.75175830096E+02  0.75175830096E+02  0.00000000000E+00 0. -1.
         25    2    1    2    0    0  0.60112149388E+02  0.54145755331E+02  0.97531651318E+02  0.17799547918E+03  0.12499893709E+03 0.  0.
          2    1    1    2  501    0 -0.22159176369E+02 -0.26153307961E+02 -0.25468591963E+02  0.42704493806E+02  0.00000000000E+00 0. -1.
          1    1    1    2  502    0 -0.37952973020E+02 -0.27992447371E+02  0.64763649645E+03  0.64935124302E+03  0.00000000000E+00 0. -1.
         22    1    3    3    0    0  0.26728696185E+02  0.67580975797E+02 -0.14356203642E+01  0.72688874632E+02  0.00000000000E+00 0.  1.
         22    1    3    3    0    0  0.33383453204E+02 -0.13435220466E+02  0.98967271683E+02  0.10530660455E+03  0.00000000000E+00 0.  1.
</event>
<event>
 7    1  0.6089676E-006  0.2326932E+03  0.7818608E-02  0.1254717E+00
          2   -1    0    0  502    0  0.00000000000E+00  0.00000000000E+00  0.91664087159E+03  0.91664087159E+03  0.00000000000E+00 0. -1.
          1   -1    0    0  501    0 -0.00000000000E+00 -0.00000000000E+00 -0.13494123412E+03  0.13494123412E+03  0.00000000000E+00 0. -1.
         25    2    1    2    0    0 -0.12075024915E+03 -0.18666093099E+03  0.45722935971E+03  0.52355157155E+03  0.12499853945E+03 0.  0.
          2    1    1    2  501    0 -0.53776361525E+02  0.11961426828E+02 -0.53336706267E+02  0.76679704134E+02  0.00000000000E+00 0. -1.
          1    1    1    2  502    0  0.17452661067E+03  0.17469950416E+03  0.37780698403E+03  0.45135083003E+03  0.00000000000E+00 0. -1.
         22    1    3    3    0    0 -0.77966125504E+02 -0.11293457062E+03  0.39458166836E+03  0.41776503799E+03  0.00000000000E+00 0.  1.
         22    1    3    3    0    0 -0.42784123644E+02 -0.73726360372E+02  0.62647691350E+02  0.10578653355E+03  0.00000000000E+00 0.  1.
</event>
<event>
 7    1  0.6089676E-006  0.9685609E+02  0.7818608E-02  0.1348935E+00
          2   -1    0    0  502    0  0.00000000000E+00  0.00000000000E+00  0.22932003408E+04  0.22932003408E+04  0.00000000000E+00 0. -1.
          1   -1    0    0  501    0 -0.00000000000E+00 -0.00000000000E+00 -0.20516026200E+03  0.20516026200E+03  0.00000000000E+00 0. -1.
         25    2    1    2    0    0  0.12062326209E+03 -0.38482518489E+02 -0.79637861966E+02  0.19493148606E+03  0.12500087844E+03 0.  0.
          2    1    1    2  501    0 -0.66892269108E+02  0.52804280622E+02 -0.40636270747E+02  0.94414904643E+02  0.00000000000E+00 0. -1.
          1    1    1    2  502    0 -0.53730992983E+02 -0.14321762133E+02  0.22083142115E+04  0.22090142121E+04  0.00000000000E+00 0. -1.
         22    1    3    3    0    0  0.29540679283E+02 -0.22164768472E+02 -0.94272731997E+02  0.10124858859E+03  0.00000000000E+00 0. -1.
         22    1    3    3    0    0  0.91082582808E+02 -0.16317750017E+02  0.14634870030E+02  0.93682897465E+02  0.00000000000E+00 0. -1.
</event>
<event>
 7    1  0.6089676E-006  0.1063334E+03  0.7818608E-02  0.1358291E+00
          2   -1    0    0  502    0  0.00000000000E+00  0.00000000000E+00  0.10097437901E+04  0.10097437901E+04  0.00000000000E+00 0. -1.
          1   -1    0    0  501    0 -0.00000000000E+00 -0.00000000000E+00 -0.57948715942E+03  0.57948715942E+03  0.00000000000E+00 0. -1.
         25    2    1    2    0    0  0.76205290852E+02  0.63420287277E+02  0.49310819655E+03  0.51827589236E+03  0.12499931159E+03 0.  0.
          2    1    1    2  501    0  0.32806029436E+02 -0.33356166884E+02 -0.55957252194E+03  0.56152495648E+03  0.00000000000E+00 0. -1.
          1    1    1    2  502    0 -0.10901132029E+03 -0.30064120393E+02  0.49672095602E+03  0.50943010064E+03  0.00000000000E+00 0. -1.
         22    1    3    3    0    0  0.69141677700E+02  0.96497982439E+02  0.30765666603E+03  0.32976515335E+03  0.00000000000E+00 0. -1.
         22    1    3    3    0    0  0.70636131515E+01 -0.33077695162E+02  0.18545153052E+03  0.18851073900E+03  0.00000000000E+00 0. -1.
</event>
<event>
 7    1  0.6089676E-006  0.3692386E+02  0.7818608E-02  0.1561931E+00
          2   -1    0    0  502    0  0.00000000000E+00  0.00000000000E+00  0.36971192333E+03  0.36971192333E+03  0.00000000000E+00 0. -1.
          1   -1    0    0  501    0 -0.00000000000E+00 -0.00000000000E+00 -0.19714088434E+04  0.19714088434E+04  0.00000000000E+00 0. -1.
         25    2    1    2    0    0 -0.17208964762E+02  0.27872813214E+02  0.32528624404E+02  0.13324418283E+03  0.12499143438E+03 0.  0.
          2    1    1    2  501    0  0.36691271893E+02 -0.44421839937E+01 -0.19200633845E+04  0.19204190644E+04  0.00000000000E+00 0. -1.
          1    1    1    2  502    0 -0.19482307132E+02 -0.23430629220E+02  0.28583784007E+03  0.28745751945E+03  0.00000000000E+00 0. -1.
         22    1    3    3    0    0 -0.36193039107E+02  0.56853182525E+02  0.59056380373E+02  0.89609578204E+02  0.00000000000E+00 0.  1.
         22    1    3    3    0    0  0.18984074346E+02 -0.28980369311E+02 -0.26527755970E+02  0.43634604627E+02  0.00000000000E+00 0.  1.
</event>
<event>
 7    1  0.6089676E-006  0.9049798E+02  0.7818608E-02  0.1418414E+00
          2   -1    0    0  502    0  0.00000000000E+00  0.00000000000E+00  0.43060440699E+03  0.43060440699E+03  0.00000000000E+00 0. -1.
          1   -1    0    0  501    0 -0.00000000000E+00 -0.00000000000E+00 -0.75308880947E+03  0.75308880947E+03  0.00000000000E+00 0. -1.
         25    2    1    2    0    0  0.19055952053E+02  0.56456903824E+02  0.66967646056E+02  0.15382434704E+03  0.12500701111E+03 0.  0.
          2    1    1    2  501    0 -0.42589604014E+02 -0.80805079800E+02 -0.70581395781E+03  0.71169985130E+03  0.00000000000E+00 0. -1.
          1    1    1    2  502    0  0.23533651962E+02  0.24348175976E+02  0.31636190928E+03  0.31816901812E+03  0.00000000000E+00 0. -1.
         22    1    3    3    0    0  0.54377981141E+01  0.73590498400E+01  0.95156168101E+02  0.95595091875E+02  0.00000000000E+00 0. -1.
         22    1    3    3    0    0  0.13618153939E+02  0.49097853984E+02 -0.28188522045E+02  0.58229255169E+02  0.00000000000E+00 0. -1.
</event>
<event>
 7    1  0.6089676E-006  0.6744527E+02  0.7818608E-02  0.1377823E+00
          2   -1    0    0  502    0  0.00000000000E+00  0.00000000000E+00  0.56044586661E+03  0.56044586661E+03  0.00000000000E+00 0. -1.
          1   -1    0    0  501    0 -0.00000000000E+00 -0.00000000000E+00 -0.12332751280E+04  0.12332751280E+04  0.00000000000E+00 0. -1.
         25    2    1    2    0    0 -0.13459214313E+01  0.87742773960E+01  0.41258772424E+03  0.43119860152E+03  0.12499921725E+03 0.  0.
          2    1    1    2  501    0 -0.47660196426E+02 -0.47917044784E+02 -0.12158849318E+04  0.12177617604E+04  0.00000000000E+00 0. -1.
          1    1    1    2  502    0  0.49006117857E+02  0.39142767388E+02  0.13046794616E+03  0.14476063277E+03  0.00000000000E+00 0. -1.
         22    1    3    3    0    0  0.68513411794E+01  0.62610224558E+02  0.29449296935E+03  0.30115293472E+03  0.00000000000E+00 0.  1.
         22    1    3    3    0    0 -0.81972626107E+01 -0.53835947162E+02  0.11809475490E+03  0.13004566681E+03  0.00000000000E+00 0.  1.
</event>
<event>
 7    1  0.6089676E-006  0.5639590E+02  0.7818608E-02  0.1462521E+00
          2   -1    0    0  502    0  0.00000000000E+00  0.00000000000E+00  0.97451615870E+03  0.97451615870E+03  0.00000000000E+00 0. -1.
          1   -1    0    0  501    0 -0.00000000000E+00 -0.00000000000E+00 -0.15308102896E+03  0.15308102896E+03  0.00000000000E+00 0. -1.
         25    2    1    2    0    0 -0.34934975190E+01 -0.21490094551E+02  0.15343405629E+03  0.19910268589E+03  0.12500336479E+03 0.  0.
          2    1    1    2  501    0 -0.27880673019E+02 -0.27394305506E+02 -0.12622954035E+03  0.13214263793E+03  0.00000000000E+00 0. -1.
          1    1    1    2  502    0  0.31374170538E+02  0.48884400057E+02  0.79423061380E+03  0.79635186384E+03  0.00000000000E+00 0. -1.
         22    1    3    3    0    0  0.12212885631E+02 -0.57580821816E+02  0.14811777493E+03  0.15938500829E+03  0.00000000000E+00 0. -1.
         22    1    3    3    0    0 -0.15706383150E+02  0.36090727265E+02  0.53162813560E+01  0.39717677596E+02  0.00000000000E+00 0. -1.
</event>
<event>
 7    1  0.6089676E-006  0.4937284E+02  0.7818608E-02  0.1454271E+00
          2   -1    0    0  502    0  0.00000000000E+00  0.00000000000E+00  0.13300886013E+04  0.13300886013E+04  0.00000000000E+00 0. -1.
          1   -1    0    0  501    0 -0.00000000000E+00 -0.00000000000E+00 -0.14924995439E+03  0.14924995439E+03  0.00000000000E+00 0. -1.
         25    2    1    2    0    0  0.30676453863E+02  0.30572629600E+01  0.48940806913E+03  0.50605898675E+03  0.12500019303E+03 0.  0.
          2    1    1    2  501    0 -0.83641543668E+01 -0.48659205272E+02 -0.13579785777E+03  0.14449475946E+03  0.00000000000E+00 0. -1.
          1    1    1    2  502    0 -0.22312299496E+02  0.45601942312E+02  0.82722843559E+03  0.82878480953E+03  0.00000000000E+00 0. -1.
         22    1    3    3    0    0  0.47206516434E+02  0.55982906904E+02  0.28670556535E+03  0.29590982116E+03  0.00000000000E+00 0. -1.
         22    1    3    3    0    0 -0.16530062571E+02 -0.52925643944E+02  0.20270250378E+03  0.21014916558E+03  0.00000000000E+00 0. -1.
</event>
<event>
 7    1  0.6089676E-006  0.1187158E+03  0.7818608E-02  0.1415519E+00
          2   -1    0    0  502    0  0.00000000000E+00  0.00000000000E+00  0.25911198776E+03  0.25911198776E+03  0.00000000000E+00 0. -1.
          1   -1    0    0  501    0 -0.00000000000E+00 -0.00000000000E+00 -0.82649388077E+03  0.82649388077E+03  0.00000000000E+00 0. -1.
         25    2    1    2    0    0 -0.11192976441E+03 -0.17536494983E+02 -0.24349315252E+03  0.29622567641E+03  0.12499974088E+03 0.  0.
          2    1    1    2  501    0  0.11419012359E+01 -0.26372670763E+02 -0.54103674479E+03  0.54168033093E+03  0.00000000000E+00 0. -1.
          1    1    1    2  502    0  0.11078786317E+03  0.43909165746E+02  0.21714800430E+03  0.24769986119E+03  0.00000000000E+00 0. -1.
         22    1    3    3    0    0 -0.13929537604E+03 -0.83183478163E+01 -0.20795031973E+03  0.25043109267E+03  0.00000000000E+00 0.  1.
         22    1    3    3    0    0  0.27365611634E+02 -0.92181471668E+01 -0.35542832790E+02  0.45794583741E+02  0.00000000000E+00 0.  1.
</event>
<event>
 7    1  0.6089676E-006  0.1816665E+03  0.7818608E-02  0.1180230E+00
          2   -1    0    0  502    0  0.00000000000E+00  0.00000000000E+00  0.70741226374E+03  0.70741226374E+03  0.00000000000E+00 0. -1.
          1   -1    0    0  501    0 -0.00000000000E+00 -0.00000000000E+00 -0.93750585707E+03  0.93750585707E+03  0.00000000000E+00 0. -1.
         25    2    1    2    0    0 -0.20856174237E+02 -0.18990212909E+03  0.30261800267E+03  0.37907872820E+03  0.12500091199E+03 0.  0.
          2    1    1    2  501    0  0.15024750794E+03  0.10479380185E+03 -0.87297544787E+03  0.89198777297E+03  0.00000000000E+00 0. -1.
          1    1    1    2  502    0 -0.12939133371E+03  0.85108327241E+02  0.34026385188E+03  0.37385161963E+03  0.00000000000E+00 0. -1.
         22    1    3    3    0    0 -0.14979122211E+02 -0.19160188605E+03  0.31284493180E+03  0.36716155598E+03  0.00000000000E+00 0.  1.
         22    1    3    3    0    0 -0.58770520261E+01  0.16997569530E+01 -0.10226929132E+02  0.11917172219E+02  0.00000000000E+00 0.  1.
</event>
<event>
 7    1  0.6089676E-006  0.4948911E+02  0.7818608E-02  0.1451592E+00
          2   -1    0    0  502    0  0.00000000000E+00  0.00000000000E+00  0.16926858555E+04  0.16926858555E+04  0.00000000000E+00 0. -1.
          1   -1    0    0  501    0 -0.00000000000E+00 -0.00000000000E+00 -0.13565738118E+02  0.13565738118E+02  0.00000000000E+00 0. -1.
         25    2    1    2    0    0 -0.10003486969E+02  0.47507456985E+00  0.64114330137E+03  0.65329406699E+03  0.12501243791E+03 0.  0.
          2    1    1    2  501    0 -0.27799075023E+02  0.39422110318E+02  0.80088057066E+02  0.93493252370E+02  0.00000000000E+00 0. -1.
          1    1    1    2  502    0  0.37802561992E+02 -0.39897184888E+02  0.95788875896E+03  0.95946427427E+03  0.00000000000E+00 0. -1.
         22    1    3    3    0    0 -0.41860014966E+02  0.31787336048E+02  0.54211981183E+03  0.54466190060E+03  0.00000000000E+00 0.  1.
         22    1    3    3    0    0  0.31856527998E+02 -0.31312261478E+02  0.99023489535E+02  0.10863216639E+03  0.00000000000E+00 0.  1.
</event>
<event>
 7    1  0.6089676E-006  0.1891147E+03  0.7818608E-02  0.1329237E+00
          2   -1    0    0  502    0  0.00000000000E+00  0.00000000000E+00  0.18455022995E+04  0.18455022995E+04  0.00000000000E+00 0. -1.
          1   -1    0    0  501    0 -0.00000000000E+00 -0.00000000000E+00 -0.43598477368E+03  0.43598477368E+03  0.00000000000E+00 0. -1.
         25    2    1    2    0    0  0.17796806500E+03  0.72733680627E+01  0.15616120049E+03  0.26784830384E+03  0.12502343496E+03 0.  0.
          2    1    1    2  501    0 -0.18637525088E+03 -0.39997342874E+02 -0.35605670085E+03  0.40387113761E+03  0.00000000000E+00 0. -1.
          1    1    1    2  502    0  0.84071858747E+01  0.32723974811E+02  0.16094130262E+04  0.16097676317E+04  0.00000000000E+00 0. -1.
         22    1    3    3    0    0  0.76483982144E+02  0.34650509663E+02  0.55040853446E+01  0.84147206133E+02  0.00000000000E+00 0.  1.
         22    1    3    3    0    0  0.10148408286E+03 -0.27377141600E+02  0.15065711515E+03  0.18370109771E+03  0.00000000000E+00 0.  1.
</event>
<event>
 7    1  0.6089676E-006  0.1515854E+03  0.7818608E-02  0.1328582E+00
          2   -1    0    0  502    0  0.00000000000E+00  0.00000000000E+00  0.21364353711E+03  0.21364353711E+03  0.00000000000E+00 0. -1.
          1   -1    0    0  501    0 -0.00000000000E+00 -0.00000000000E+00 -0.22762291484E+04  0.22762291484E+04  0.00000000000E+00 0. -1.
         25    2    1    2    0    0 -0.29525685507E+02 -0.12075139608E+03 -0.84181807703E+03  0.86007891083E+03  0.12500156911E+03 0.  0.
          2    1    1    2  501    0  0.47248489826E+02  0.15926478523E+03 -0.14181817556E+04  0.14278785605E+04  0.00000000000E+00 0. -1.
          1    1    1    2  502    0 -0.17722804319E+02 -0.38513389158E+02  0.19741422133E+03  0.20191521419E+03  0.00000000000E+00 0. -1.
         22    1    3    3    0    0 -0.11089920169E+02 -0.13495502437E+02 -0.80411448639E+01  0.19229532654E+02  0.00000000000E+00 0.  1.
         22    1    3    3    0    0 -0.18435765338E+02 -0.10725589364E+03 -0.83377693216E+03  0.84084937817E+03  0.00000000000E+00 0.  1.
</event>
<event>
 7    1  0.6089676E-006  0.5884049E+02  0.7818608E-02  0.1433716E+00
          2   -1    0    0  502    0  0.00000000000E+00  0.00000000000E+00  0.23445972922E+03  0.23445972922E+03  0.00000000000E+00 0. -1.
          1   -1    0    0  501    0 -0.00000000000E+00 -0.00000000000E+00 -0.78421241462E+03  0.78421241462E+03  0.00000000000E+00 0. -1.
         25    2    1    2    0    0  0.39056092610E+02  0.63800801644E+02 -0.51852241115E+02  0.15465236377E+03  0.12503110833E+03 0.  0.
          2    1    1    2  501    0 -0.46030352270E+02 -0.54065796756E+01 -0.67542217788E+03  0.67701044513E+03  0.00000000000E+00 0. -1.
          1    1    1    2  502    0  0.69742596602E+01 -0.58394221968E+02  0.17752173360E+03  0.18700933495E+03  0.00000000000E+00 0. -1.
         22    1    3    3    0    0  0.58353034697E+02  0.78794012253E+02 -0.73076194458E+02  0.12228533527E+03  0.00000000000E+00 0.  1.
         22    1    3    3    0    0 -0.19296942087E+02 -0.14993210609E+02  0.21223953344E+02  0.32367028498E+02  0.00000000000E+00 0.  1.
</event>
<event>
 7    1  0.6089676E-006  0.9061027E+02  0.7818608E-02  0.1461427E+00
          2   -1    0    0  502    0  0.00000000000E+00  0.00000000000E+00  0.18031861086E+04  0.18031861086E+04  0.00000000000E+00 0. -1.
          1   -1    0    0  501    0 -0.00000000000E+00 -0.00000000000E+00 -0.25207348413E+03  0.25207348413E+03  0.00000000000E+00 0. -1.
         25    2    1    2    0    0 -0.64771572665E+02 -0.36244842128E+02 -0.89868992355E+02  0.17091234595E+03  0.12500219600E+03 0.  0.
          2    1    1    2  501    0  0.86808417994E+02  0.46999769879E+02 -0.10156169265E+03  0.14163141324E+03  0.00000000000E+00 0. -1.
          1    1    1    2  502    0 -0.22036845329E+02 -0.10754927751E+02  0.17425433095E+04  0.17427158336E+04  0.00000000000E+00 0. -1.
         22    1    3    3    0    0 -0.64834676002E+02  0.25259732431E+02 -0.84077354555E+02  0.10913565340E+03  0.00000000000E+00 0.  1.
         22    1    3    3    0    0  0.63103337004E-01 -0.61504574560E+02 -0.57916378001E+01  0.61776692548E+02  0.00000000000E+00 0.  1.
</event>
<event>
 7    1  0.6089676E-006  0.1171077E+03  0.7818608E-02  0.1359491E+00
          2   -1    0    0  502    0  0.00000000000E+00  0.00000000000E+00  0.16650031891E+04  0.16650031891E+04  0.00000000000E+00 0. -1.
          1   -1    0    0  501    0 -0.00000000000E+00 -0.00000000000E+00 -0.30908024628E+03  0.30908024628E+03  0.00000000000E+00 0. -1.
         25    2    1    2    0    0  0.45008689743E+02  0.70035402364E+02  0.41635920645E+03  0.44261737446E+03  0.12499764654E+03 0.  0.
          2    1    1    2  501    0 -0.38632954908E+02 -0.11160337508E+03 -0.28379325867E+03  0.30738645416E+03  0.00000000000E+00 0. -1.
          1    1    1    2  502    0 -0.63757348355E+01  0.41567972720E+02  0.12233569950E+04  0.12240796068E+04  0.00000000000E+00 0. -1.
         22    1    3    3    0    0  0.71873031033E+02  0.41426719973E+02  0.38056168411E+03  0.38949852520E+03  0.00000000000E+00 0.  1.
         22    1    3    3    0    0 -0.26864341290E+02  0.28608682391E+02  0.35797522338E+02  0.53118849260E+02  0.00000000000E+00 0.  1.
</event>
<event>
 7    1  0.6089676E-006  0.2181262E+03  0.7818608E-02  0.1318466E+00
          2   -1    0    0  502    0  0.00000000000E+00  0.00000000000E+00  0.10407613550E+04  0.10407613550E+04  0.00000000000E+00 0. -1.
          1   -1    0    0  501    0 -0.00000000000E+00 -0.00000000000E+00 -0.90954109077E+03  0.90954109077E+03  0.00000000000E+00 0. -1.
         25    2    1    2    0    0  0.39265363992E+02  0.18795683002E+03  0.28629314148E+02  0.23089901060E+03  0.12500070683E+03 0.  0.
          2    1    1    2  501    0  0.19297136358E+02  0.25818556720E+02 -0.79459231288E+03  0.79524582428E+03  0.00000000000E+00 0. -1.
          1    1    1    2  502    0 -0.58562500350E+02 -0.21377538674E+03  0.89718326292E+03  0.92415761085E+03  0.00000000000E+00 0. -1.
         22    1    3    3    0    0  0.43480650108E+01  0.64921995200E+02  0.70870410673E+02  0.96210115056E+02  0.00000000000E+00 0. -1.
         22    1    3    3    0    0  0.34917298981E+02  0.12303483482E+03 -0.42241096525E+02  0.13468889554E+03  0.00000000000E+00 0. -1.
</event>
<event>
 7    1  0.6089676E-006  0.2167115E+03  0.7818608E-02  0.1176030E+00
          2   -1    0    0  502    0  0.00000000000E+00  0.00000000000E+00  0.75795163036E+03  0.75795163036E+03  0.00000000000E+00 0. -1.
          1   -1    0    0  501    0 -0.00000000000E+00 -0.00000000000E+00 -0.25859891416E+03  0.25859891416E+03  0.00000000000E+00 0. -1.
         25    2    1    2    0    0  0.31088363874E+02  0.27714578635E+03 -0.35122960450E+02  0.30762780409E+03  0.12499988095E+03 0.  0.
          2    1    1    2  501    0  0.53353409418E+02 -0.17037738388E+03  0.23439996094E+02  0.18006796676E+03  0.00000000000E+00 0. -1.
          1    1    1    2  502    0 -0.84441773292E+02 -0.10676840246E+03  0.51103568056E+03  0.52885477368E+03  0.00000000000E+00 0. -1.
         22    1    3    3    0    0  0.31805112286E+01  0.90383493518E+02  0.46748973214E+02  0.10180745576E+03  0.00000000000E+00 0.  1.
         22    1    3    3    0    0  0.27907852645E+02  0.18676229283E+03 -0.81871933664E+02  0.20582034832E+03  0.00000000000E+00 0.  1.
</event>
<event>
 7    1  0.6089676E-006  0.8143216E+02  0.7818608E-02  0.1343548E+00
          2   -1    0    0  502    0  0.00000000000E+00  0.00000000000E+00  0.13828522847E+04  0.13828522847E+04  0.00000000000E+00 0. -1.
          1   -1    0    0  501    0 -0.00000000000E+00 -0.00000000000E+00 -0.85957971354E+03  0.85957971354E+03  0.00000000000E+00 0. -1.
         25    2    1    2    0    0 -0.57084854334E+02  0.76630777259E+02  0.34054072411E+03  0.37513231760E+03  0.12500125727E+03 0.  0.
          2    1    1    2  501    0  0.69085742895E+02  0.50255416915E+01 -0.83919326640E+03  0.84204716870E+03  0.00000000000E+00 0. -1.
          1    1    1    2  502    0 -0.12000888560E+02 -0.81656318950E+02  0.10219251135E+04  0.10252525120E+04  0.00000000000E+00 0. -1.
         22    1    3    3    0    0  0.24019183205E+02  0.60903700608E+02  0.89796157780E+02  0.11112844758E+03  0.00000000000E+00 0.  1.
         22    1    3    3    0    0 -0.81104037539E+02  0.15727076651E+02  0.25074456633E+03  0.26400387002E+03  0.00000000000E+00 0.  1.
</event>
<event>
 7    1  0.6089676E-006  0.8620114E+02  0.7818608E-02  0.1327379E+00
          2   -1    0    0  502    0  0.00000000000E+00  0.00000000000E+00  0.53726035032E+03  0.53726035032E+03  0.00000000000E+00 0. -1.
          1   -1    0    0  501    0 -0.00000000000E+00 -0.00000000000E+00 -0.12885892567E+03  0.12885892567E+03  0.00000000000E+00 0. -1.
         25    2    1    2    0    0 -0.36728202587E+02 -0.53894482529E+02  0.31788223184E+03  0.34774607855E+03  0.12499858285E+03 0.  0.
          2    1    1    2  501    0 -0.32934968513E+02  0.82607663377E+02 -0.87687844851E+02  0.12489153828E+03  0.00000000000E+00 0. -1.
          1    1    1    2  502    0  0.69663171100E+02 -0.28713180848E+02  0.17820703767E+03  0.19348165917E+03  0.00000000000E+00 0. -1.
         22    1    3    3    0    0 -0.33877116998E+02 -0.89381912192E+02  0.27950720960E+03  0.29539984005E+03  0.00000000000E+00 0. -1.
         22    1    3    3    0    0 -0.28510855897E+01  0.35487429663E+02  0.38375022235E+02  0.52346238496E+02  0.00000000000E+00 0. -1.
</event>
<event>
 7    1  0.6089676E-006  0.7411056E+02  0.7818608E-02  0.1394284E+00
          2   -1    0    0  502    0  0.00000000000E+00  0.00000000000E+00  0.44309567691E+03  0.44309567691E+03  0.00000000000E+00 0. -1.
          1   -1    0    0  501    0 -0.00000000000E+00 -0.00000000000E+00 -0.19842383836E+03  0.19842383836E+03  0.00000000000E+00 0. -1.
         25    2    1    2    0    0  0.43484877545E+02 -0.16645634603E+02  0.12626552716E+03  0.18367041063E+03  0.12499529857E+03 0.  0.
          2    1    1    2  501    0 -0.37664290958E+02  0.66273490424E+02 -0.15881432295E+03  0.17616118619E+03  0.00000000000E+00 0. -1.
          1    1    1    2  502    0 -0.58205865869E+01 -0.49627855821E+02  0.27722063433E+03  0.28168791845E+03  0.00000000000E+00 0. -1.
         22    1    3    3    0    0  0.74577143417E+02 -0.44756402194E+02  0.61494682966E+02  0.10651986618E+03  0.00000000000E+00 0. -1.
         22    1    3    3    0    0 -0.31092265872E+02  0.28110767591E+02  0.64770844191E+02  0.77150544449E+02  0.00000000000E+00 0. -1.
</event>
<event>
 7    1  0.6089676E-006  0.2313929E+03  0.7818608E-02  0.1220339E+00
          2   -1    0    0  502    0  0.00000000000E+00  0.00000000000E+00  0.18922818630E+04  0.18922818630E+04  0.00000000000E+00 0. -1.
          1   -1    0    0  501    0 -0.00000000000E+00 -0.00000000000E+00 -0.53651944802E+03  0.53651944802E+03  0.00000000000E+00 0. -1.
         25    2    1    2    0    0  0.26008276697E+03  0.15248781916E+03 -0.48862107131E+02  0.33001350817E+03  0.12500331752E+03 0.  0.
          2    1    1    2  501    0 -0.77182346705E+02 -0.15193927918E+02 -0.33504234833E+03  0.34415308406E+03  0.00000000000E+00 0. -1.
          1    1    1    2  502    0 -0.18290042027E+03 -0.13729389124E+03  0.17396668705E+04  0.17546347188E+04  0.00000000000E+00 0. -1.
         22    1    3    3    0    0  0.59928141531E+02 -0.61436976257E+01  0.23347092317E+02  0.64608156509E+02  0.00000000000E+00 0.  1.
         22    1    3    3    0    0  0.20015462544E+03  0.15863151678E+03 -0.72209199448E+02  0.26540535166E+03  0.00000000000E+00 0.  1.
</event>
<event>
 7    1  0.6089676E-006  0.6299476E+02  0.7818608E-02  0.1408324E+00
          2   -1    0    0  502    0  0.00000000000E+00  0.00000000000E+00  0.20083721962E+04  0.20083721962E+04  0.00000000000E+00 0. -1.
          1   -1    0    0  501    0 -0.00000000000E+00 -0.00000000000E+00 -0.10829353522E+03  0.10829353522E+03  0.00000000000E+00 0. -1.
         25    2    1    2    0    0 -0.43205370868E+02  0.28066510783E+02  0.10988943086E+03  0.17422594830E+03  0.12499824377E+03 0.  0.
          2    1    1    2  501    0  0.64236246030E+01 -0.65683959743E+02 -0.61376857761E+02  0.90126378986E+02  0.00000000000E+00 0. -1.
          1    1    1    2  502    0  0.36781746265E+02  0.37617448960E+02  0.18515660879E+04  0.18523134041E+04  0.00000000000E+00 0. -1.
         22    1    3    3    0    0 -0.77911047656E+01 -0.81799152515E+01 -0.26456548021E+02  0.28767364498E+02  0.00000000000E+00 0. -1.
         22    1    3    3    0    0 -0.35414266102E+02  0.36246426035E+02  0.13634597888E+03  0.14545858380E+03  0.00000000000E+00 0. -1.
</event>
<event>
 7    1  0.6089676E-006  0.7707458E+02  0.7818608E-02  0.1472023E+00
          2   -1    0    0  502    0  0.00000000000E+00  0.00000000000E+00  0.14824288224E+03  0.14824288224E+03  0.00000000000E+00 0. -1.
          1   -1    0    0  501    0 -0.00000000000E+00 -0.00000000000E+00 -0.29305215285E+03  0.29305215285E+03  0.00000000000E+00 0. -1.
         25    2    1    2    0    0 -0.28416476375E+02  0.64931692159E+02 -0.96237674510E+02  0.17294615006E+03  0.12500024020E+03 0.  0.
          2    1    1    2  501    0  0.23319176756E+02  0.13027207541E+02 -0.14318145122E+03  0.14565170824E+03  0.00000000000E+00 0. -1.
          1    1    1    2  502    0  0.50972996190E+01 -0.77958899700E+02  0.94609855123E+02  0.12269717679E+03  0.00000000000E+00 0. -1.
         22    1    3    3    0    0 -0.18747740010E+02  0.91560314434E+02 -0.25695497613E+02  0.96927950212E+02  0.00000000000E+00 0.  1.
         22    1    3    3    0    0 -0.96687363649E+01 -0.26628622275E+02 -0.70542176897E+02  0.76018199851E+02  0.00000000000E+00 0.  1.
</event>
<event>
 7    1  0.6089676E-006  0.5308557E+02  0.7818608E-02  0.1458614E+00
          2   -1    0    0  502    0  0.00000000000E+00  0.00000000000E+00  0.90431875231E+02  0.90431875231E+02  0.00000000000E+00 0. -1.
          1   -1    0    0  501    0 -0.00000000000E+00 -0.00000000000E+00 -0.36053931638E+03  0.36053931638E+03  0.00000000000E+00 0. -1.
         25    2    1    2    0    0  0.81475310484E+01  0.14356483015E+02 -0.17660439146E+02  0.12732486786E+03  0.12500895967E+03 0.  0.
          2    1    1    2  501    0 -0.49924560992E+02 -0.23275100668E+02 -0.27138464215E+03  0.27691842859E+03  0.00000000000E+00 0. -1.
          1    1    1    2  502    0  0.41777029944E+02  0.89186176531E+01  0.18937640142E+02  0.46727895158E+02  0.00000000000E+00 0. -1.
         22    1    3    3    0    0 -0.39855762362E+01  0.12646028012E+02 -0.71188254243E+02  0.72412529196E+02  0.00000000000E+00 0. -1.
         22    1    3    3    0    0  0.12133107285E+02  0.17104550029E+01  0.53527815097E+02  0.54912338666E+02  0.00000000000E+00 0. -1.
</event>
<event>
 7    1  0.6089676E-006  0.8535034E+02  0.7818608E-02  0.1381195E+00
          2   -1    0    0  502    0  0.00000000000E+00  0.00000000000E+00  0.15154093244E+04  0.15154093244E+04  0.00000000000E+00 0. -1.
          1   -1    0    0  501    0 -0.00000000000E+00 -0.00000000000E+00 -0.21509858453E+03  0.21509858453E+03  0.00000000000E+00 0. -1.
         25    2    1    2    0    0 -0.75645343173E+02 -0.81699671768E+02  0.14413539088E+03  0.22089831126E+03  0.12499599476E+03 0.  0.
          2    1    1    2  501    0  0.27465659912E+02  0.79807712714E+02 -0.16617488359E+03  0.18638059292E+03  0.00000000000E+00 0. -1.
          1    1    1    2  502    0  0.48179683261E+02  0.18919590544E+01  0.13223502326E+04  0.13232290048E+04  0.00000000000E+00 0. -1.
         22    1    3    3    0    0 -0.14526315188E+02  0.25370625959E+02 -0.24767664827E+01  0.29339680753E+02  0.00000000000E+00 0. -1.
         22    1    3    3    0    0 -0.61119027986E+02 -0.10707029773E+03  0.14661215736E+03  0.19155863051E+03  0.00000000000E+00 0. -1.
</event>
<event>
 7    1  0.6089676E-006  0.2920385E+02  0.7818608E-02  0.1635699E+00
          2   -1    0    0  502    0  0.00000000000E+00  0.00000000000E+00  0.20456292300E+03  0.20456292300E+03  0.00000000000E+00 0. -1.
          1   -1    0    0  501    0 -0.00000000000E+00 -0.00000000000E+00 -0.12675987539E+03  0.12675987539E+03  0.00000000000E+00 0. -1.
         25    2    1    2    0    0  0.99265059066E+00  0.53075221417E+02  0.33764676974E+02  0.13993450215E+03  0.12499458787E+03 0.  0.
          2    1    1    2  501    0  0.42995266946E+00 -0.24691960727E+02 -0.69808510714E+02  0.74047997622E+02  0.00000000000E+00 0. -1.
          1    1    1    2  502    0 -0.14226032601E+01 -0.28383260690E+02  0.11384688135E+03  0.11734029862E+03  0.00000000000E+00 0. -1.
         22    1    3    3    0    0 -0.17349312950E+02 -0.37973396505E+02  0.20793791093E+01  0.41800733480E+02  0.00000000000E+00 0. -1.
         22    1    3    3    0    0  0.18341963541E+02  0.91048617922E+02  0.31685297865E+02  0.98133768668E+02  0.00000000000E+00 0. -1.
</event>
<event>
 7    1  0.6089676E-006  0.7034173E+02  0.7818608E-02  0.1461059E+00
          2   -1    0    0  502    0  0.00000000000E+00  0.00000000000E+00  0.91799933748E+02  0.91799933748E+02  0.00000000000E+00 0. -1.
          1   -1    0    0  501    0 -0.00000000000E+00 -0.00000000000E+00 -0.40483060954E+03  0.40483060954E+03  0.00000000000E+00 0. -1.
         25    2    1    2    0    0 -0.34267799815E+02 -0.70031693328E+02 -0.10876798545E+03  0.18312237351E+03  0.12499843538E+03 0.  0.
          2    1    1    2  501    0 -0.19408765772E+02  0.25027282902E+02 -0.23492061100E+03  0.23704589967E+03  0.00000000000E+00 0. -1.
          1    1    1    2  502    0  0.53676565587E+02  0.45004410426E+02  0.30657920654E+02  0.76462270107E+02  0.00000000000E+00 0. -1.
         22    1    3    3    0    0 -0.96943927056E+01  0.92901855495E+00 -0.10757792082E+03  0.10801783822E+03  0.00000000000E+00 0.  1.
         22    1    3    3    0    0 -0.24573407109E+02 -0.70960711883E+02 -0.11900646278E+01  0.75104535294E+02  0.00000000000E+00 0.  1.
</event>
<event>
 7    1  0.6089676E-006  0.3157927E+02  0.7818608E-02  0.1605619E+00
          2   -1    0    0  502    0  0.00000000000E+00  0.00000000000E+00  0.17411612730E+04  0.17411612730E+04  0.00000000000E+00 0. -1.
          1   -1    0    0  501    0 -0.00000000000E+00 -0.00000000000E+00 -0.11839954877E+03  0.11839954877E+03  0.00000000000E+00 0. -1.
         25    2    1    2    0    0 -0.33537648814E+02  0.15674577071E+02  0.65832383627E+03  0.67110802145E+03  0.12500094716E+03 0.  0.
          2    1    1    2  501    0  0.38345726584E+01 -0.26969009070E+02 -0.11011287317E+03  0.11343225394E+03  0.00000000000E+00 0. -1.
          1    1    1    2  502    0  0.29703076156E+02  0.11294431999E+02  0.10745507611E+04  0.10750205464E+04  0.00000000000E+00 0. -1.
         22    1    3    3    0    0  0.14037137396E+02 -0.37591787694E+02  0.92957600801E+02  0.10124870011E+03  0.00000000000E+00 0.  1.
         22    1    3    3    0    0 -0.47574786210E+02  0.53266364765E+02  0.56536623547E+03  0.56985932133E+03  0.00000000000E+00 0.  1.
</event>
<event>
 7    1  0.6089676E-006  0.9101781E+02  0.7818608E-02  0.1473654E+00
          2   -1    0    0  502    0  0.00000000000E+00  0.00000000000E+00  0.30803286376E+02  0.30803286376E+02  0.00000000000E+00 0. -1.
          1   -1    0    0  501    0 -0.00000000000E+00 -0.00000000000E+00 -0.97357517680E+03  0.97357517680E+03  0.00000000000E+00 0. -1.
         25    2    1    2    0    0  0.16145996698E+02  0.10443586396E+03 -0.40534345060E+03  0.43714596112E+03  0.12500294191E+03 0.  0.
          2    1    1    2  501    0  0.75927318726E+01 -0.21028904552E+02 -0.42332613284E+03  0.42391612277E+03  0.00000000000E+00 0. -1.
          1    1    1    2  502    0 -0.23738728570E+02 -0.83406959409E+02 -0.11410230699E+03  0.14331637929E+03  0.00000000000E+00 0. -1.
         22    1    3    3    0    0  0.55506259404E+02  0.76754671945E+02 -0.15070375885E+03  0.17799957143E+03  0.00000000000E+00 0. -1.
         22    1    3    3    0    0 -0.39360262706E+02  0.27681192016E+02 -0.25463969176E+03  0.25914638969E+03  0.00000000000E+00 0. -1.
</event>
<event>
 7    1  0.6089676E-006  0.7920781E+02  0.7818608E-02  0.1450448E+00
          2   -1    0    0  502    0  0.00000000000E+00  0.00000000000E+00  0.37422267215E+03  0.37422267215E+03  0.00000000000E+00 0. -1.
          1   -1    0    0  501    0 -0.00000000000E+00 -0.00000000000E+00 -0.40412369078E+03  0.40412369078E+03  0.00000000000E+00 0. -1.
         25    2    1    2    0    0  0.35288832865E+02 -0.10109579027E+03 -0.61712521752E+02  0.17578360230E+03  0.12500311580E+03 0.  0.
          2    1    1    2  501    0 -0.25253751432E+02  0.72406410934E+02 -0.27947058339E+03  0.28980035764E+03  0.00000000000E+00 0. -1.
          1    1    1    2  502    0 -0.10035081433E+02  0.28689379333E+02  0.31128208651E+03  0.31276240300E+03  0.00000000000E+00 0. -1.
         22    1    3    3    0    0  0.56906023877E+02 -0.13686015499E+01 -0.77065244392E+00  0.56927695622E+02  0.00000000000E+00 0. -1.
         22    1    3    3    0    0 -0.21617191012E+02 -0.99727188717E+02 -0.60941869308E+02  0.11885590667E+03  0.00000000000E+00 0. -1.
</event>
<event>
 7    1  0.6089676E-006  0.8093730E+02  0.7818608E-02  0.1388755E+00
          2   -1    0    0  502    0  0.00000000000E+00  0.00000000000E+00  0.22603930449E+04  0.22603930449E+04  0.00000000000E+00 0. -1.
          1   -1    0    0  501    0 -0.00000000000E+00 -0.00000000000E+00 -0.45996250305E+02  0.45996250305E+02  0.00000000000E+00 0. -1.
         25    2    1    2    0    0 -0.46671833717E+02 -0.20345106911E+02  0.25421697576E+03  0.28782763078E+03  0.12500516326E+03 0.  0.
          2    1    1    2  501    0 -0.35354630510E+02  0.32210140917E+02 -0.81251938695E+01  0.48512491709E+02  0.00000000000E+00 0. -1.
          1    1    1    2  502    0  0.82026464227E+02 -0.11865034007E+02  0.19683050128E+04  0.19700491728E+04  0.00000000000E+00 0. -1.
         22    1    3    3    0    0 -0.19309456076E+02 -0.21207069996E+02 -0.32905026469E+01  0.28869054703E+02  0.00000000000E+00 0. -1.
         22    1    3    3    0    0 -0.27362377641E+02  0.86196308583E+00  0.25750747841E+03  0.25895857608E+03  0.00000000000E+00 0. -1.
</event>
<event>
 7    1  0.6089676E-006  0.1226171E+03  0.7818608E-02  0.1294861E+00
          2   -1    0    0  502    0  0.00000000000E+00  0.00000000000E+00  0.14617398411E+04  0.14617398411E+04  0.00000000000E+00 0. -1.
          1   -1    0    0  501    0 -0.00000000000E+00 -0.00000000000E+00 -0.58305911044E+02  0.58305911044E+02  0.00000000000E+00 0. -1.
         25    2    1    2    0    0  0.53415125441E+02 -0.17945947072E+03  0.82465699735E+03  0.85483534969E+03  0.12500173821E+03 0.  0.
          2    1    1    2  501    0 -0.29781135946E+02  0.11238292491E+03  0.41805319515E+02  0.12354967669E+03  0.00000000000E+00 0. -1.
          1    1    1    2  502    0 -0.23633989495E+02  0.67076545806E+02  0.53697161316E+03  0.54166072573E+03  0.00000000000E+00 0. -1.
         22    1    3    3    0    0  0.85246190900E+02 -0.68020423742E+02  0.38284946774E+03  0.39807964788E+03  0.00000000000E+00 0.  1.
         22    1    3    3    0    0 -0.31831065460E+02 -0.11143904698E+03  0.44180752961E+03  0.45675570181E+03  0.00000000000E+00 0.  1.
</event>
<event>
 7    1  0.6089676E-006  0.5369852E+02  0.7818608E-02  0.1482235E+00
          2   -1    0    0  502    0  0.00000000000E+00  0.00000000000E+00  0.62241014954E+03  0.62241014954E+03  0.00000000000E+00 0. -1.
          1   -1    0    0  501    0 -0.00000000000E+00 -0.00000000000E+00 -0.49351123028E+02  0.49351123028E+02  0.00000000000E+00 0. -1.
         25    2    1    2    0    0  0.16329100597E+02 -0.13737035644E+02  0.26696667436E+03  0.29555285455E+03  0.12499975575E+03 0.  0.
          2    1    1    2  501    0 -0.35734753127E+02  0.43655348156E+02 -0.10694537640E+02  0.57420685637E+02  0.00000000000E+00 0. -1.
          1    1    1    2  502    0  0.19405652531E+02 -0.29918312511E+02  0.31678688979E+03  0.31878773238E+03  0.00000000000E+00 0. -1.
         22    1    3    3    0    0  0.54170458077E+02 -0.10526217426E+02  0.47460325655E+02  0.72785453855E+02  0.00000000000E+00 0. -1.
         22    1    3    3    0    0 -0.37841357481E+02 -0.32108182181E+01  0.21950634871E+03  0.22276740070E+03  0.00000000000E+00 0. -1.
</event>
<event>
 7    1  0.6089676E-006  0.6800340E+02  0.7818608E-02  0.1389946E+00
          2   -1    0    0  502    0  0.00000000000E+00  0.00000000000E+00  0.56740590595E+03  0.56740590595E+03  0.00000000000E+00 0. -1.
          1   -1    0    0  501    0 -0.00000000000E+00 -0.00000000000E+00 -0.15032320900E+04  0.15032320900E+04  0.00000000000E+00 0. -1.
         25    2    1    2    0    0  0.74969735085E+02  0.86994666830E+02 -0.19653387114E+02  0.17087156959E+03  0.12498921727E+03 0.  0.
          2    1    1    2  501    0 -0.59014223141E+02 -0.32918176974E+02 -0.14055392803E+04  0.14071627316E+04  0.00000000000E+00 0. -1.
          1    1    1    2  502    0 -0.15955511944E+02 -0.54076489856E+02  0.48936648330E+03  0.49260369476E+03  0.00000000000E+00 0. -1.
         22    1    3    3    0    0 -0.11090336209E+02  0.19429480832E+02 -0.52139797585E+02  0.56736749773E+02  0.00000000000E+00 0.  1.
         22    1    3    3    0    0  0.86060071294E+02  0.67565185998E+02  0.32486410471E+02  0.11413481982E+03  0.00000000000E+00 0.  1.
</event>
<event>
 7    1  0.6089676E-006  0.7457568E+02  0.7818608E-02  0.1345693E+00
          2   -1    0    0  502    0  0.00000000000E+00  0.00000000000E+00  0.33519170168E+04  0.33519170168E+04  0.00000000000E+00 0. -1.
          1   -1    0    0  501    0 -0.00000000000E+00 -0.00000000000E+00 -0.93145456896E+02  0.93145456896E+02  0.00000000000E+00 0. -1.
         25    2    1    2    0    0 -0.28626107677E+02 -0.23790540892E+02  0.79083130539E+03  0.80151618036E+03  0.12501435890E+03 0.  0.
          2    1    1    2  501    0  0.49690299280E+02 -0.55177458757E+02 -0.71328116375E+02  0.10296299327E+03  0.00000000000E+00 0. -1.
          1    1    1    2  502    0 -0.21064191603E+02  0.78967999649E+02  0.25392683709E+04  0.25405833000E+04  0.00000000000E+00 0. -1.
         22    1    3    3    0    0 -0.42764427472E+02  0.19200729771E+02  0.68254969574E+03  0.68415754869E+03  0.00000000000E+00 0.  1.
         22    1    3    3    0    0  0.14138319795E+02 -0.42991270663E+02  0.10828160965E+03  0.11735863167E+03  0.00000000000E+00 0.  1.
</event>
<event>
 7    1  0.6089676E-006  0.1019609E+03  0.7818608E-02  0.1387611E+00
          2   -1    0    0  502    0  0.00000000000E+00  0.00000000000E+00  0.12203047379E+04  0.12203047379E+04  0.00000000000E+00 0. -1.
          1   -1    0    0  501    0 -0.00000000000E+00 -0.00000000000E+00 -0.60689265130E+03  0.60689265130E+03  0.00000000000E+00 0. -1.
         25    2    1    2    0    0 -0.82317486450E+02  0.10271202095E+03 -0.30618423311E+03  0.35594691970E+03  0.12499398871E+03 0.  0.
          2    1    1    2  501    0  0.36437463533E+02 -0.11853923535E+02 -0.27231673265E+03  0.27499928570E+03  0.00000000000E+00 0. -1.
          1    1    1    2  502    0  0.45880022917E+02 -0.90858097412E+02  0.11919130523E+04  0.11962511838E+04  0.00000000000E+00 0. -1.
         22    1    3    3    0    0 -0.27438358347E+02 -0.27993991605E+02 -0.55318470939E+02  0.67798674779E+02  0.00000000000E+00 0.  1.
         22    1    3    3    0    0 -0.54879128104E+02  0.13070601255E+03 -0.25086576218E+03  0.28814824492E+03  0.00000000000E+00 0.  1.
</event>
<event>
 7    1  0.6089676E-006  0.1038711E+03  0.7818608E-02  0.1279822E+00
          2   -1    0    0  502    0  0.00000000000E+00  0.00000000000E+00  0.57067581501E+03  0.57067581501E+03  0.00000000000E+00 0. -1.
          1   -1    0    0  501    0 -0.00000000000E+00 -0.00000000000E+00 -0.10290903132E+04  0.10290903132E+04  0.00000000000E+00 0. -1.
         25    2    1    2    0    0  0.10241393464E+03 -0.12452511840E+03 -0.15572884506E+03  0.25665431969E+03  0.12499939003E+03 0.  0.
          2    1    1    2  501    0 -0.84719553829E+01  0.10156089687E+03 -0.81520375709E+03  0.82154948444E+03  0.00000000000E+00 0. -1.
          1    1    1    2  502    0 -0.93941979260E+02  0.22964221529E+02  0.51251810400E+03  0.52156232405E+03  0.00000000000E+00 0. -1.
         22    1    3    3    0    0  0.95410241711E+01 -0.19401307671E+02 -0.10544916177E+03  0.10764277774E+03  0.00000000000E+00 0. -1.
         22    1    3    3    0    0  0.92872910472E+02 -0.10512381073E+03 -0.50279683289E+02  0.14901154195E+03  0.00000000000E+00 0. -1.
</event>
<event>
 7    1  0.6089676E-006  0.8937035E+02  0.7818608E-02  0.1447548E+00
          2   -1    0    0  502    0  0.00000000000E+00  0.00000000000E+00  0.12876610402E+04  0.12876610402E+04  0.00000000000E+00 0. -1.
          1   -1    0    0  501    0 -0.00000000000E+00 -0.00000000000E+00 -0.81142310268E+02  0.81142310268E+02  0.00000000000E+00 0. -1.
         25    2    1    2    0    0 -0.58969420544E+02 -0.22852722844E+02  0.88524755578E+03  0.89626379828E+03  0.12500368630E+03 0.  0.
          2    1    1    2  501    0  0.81387129702E+02  0.38815512573E+02 -0.48064651738E+02  0.10217983971E+03  0.00000000000E+00 0. -1.
          1    1    1    2  502    0 -0.22417709158E+02 -0.15962789729E+02  0.36933582590E+03  0.37035971249E+03  0.00000000000E+00 0. -1.
         22    1    3    3    0    0 -0.19084044227E+02 -0.41743400794E+01  0.14315810269E+02  0.24219171803E+02  0.00000000000E+00 0.  1.
         22    1    3    3    0    0 -0.39885376317E+02 -0.18678382764E+02  0.87093174551E+03  0.87204462648E+03  0.00000000000E+00 0.  1.
</event>
<event>
 7    1  0.6089676E-006  0.6600813E+02  0.7818608E-02  0.1414995E+00
          2   -1    0    0  502    0  0.00000000000E+00  0.00000000000E+00  0.91319841543E+03  0.91319841543E+03  0.00000000000E+00 0. -1.
          1   -1    0    0  501    0 -0.00000000000E+00 -0.00000000000E+00 -0.28443519473E+02  0.28443519473E+02  0.00000000000E+00 0. -1.
         25    2    1    2    0    0 -0.86517112765E+02  0.73798586868E+01  0.35133834127E+03  0.38288737512E+03  0.12499775543E+03 0.  0.
          2    1    1    2  501    0  0.50457097548E+02 -0.38556957384E+02  0.76786032728E+02  0.99642623801E+02  0.00000000000E+00 0. -1.
          1    1    1    2  502    0  0.36060015217E+02  0.31177098697E+02  0.45663052196E+03  0.45911193599E+03  0.00000000000E+00 0. -1.
         22    1    3    3    0    0 -0.10466761778E+03 -0.92695453060E+01  0.33982396367E+03  0.35569869407E+03  0.00000000000E+00 0. -1.
         22    1    3    3    0    0  0.18150505012E+02  0.16649403993E+02  0.11514377606E+02  0.27188681048E+02  0.00000000000E+00 0. -1.
</event>
<event>
 7    1  0.6089676E-006  0.1812740E+03  0.7818608E-02  0.1220044E+00
          2   -1    0    0  502    0  0.00000000000E+00  0.00000000000E+00  0.18190735241E+04  0.18190735241E+04  0.00000000000E+00 0. -1.
          1   -1    0    0  501    0 -0.00000000000E+00 -0.00000000000E+00 -0.98824509344E+03  0.98824509344E+03  0.00000000000E+00 0. -1.
         25    2    1    2    0    0  0.38752196782E+02  0.22499270876E+03 -0.29127402449E+02  0.26190917188E+03  0.12499822794E+03 0.  0.
          2    1    1    2  501    0  0.64707952301E+02 -0.77189939789E+02 -0.83491222961E+03  0.84096601421E+03  0.00000000000E+00 0. -1.
          1    1    1    2  502    0 -0.10346014908E+03 -0.14780276898E+03  0.16948680627E+04  0.17044434315E+04  0.00000000000E+00 0. -1.
         22    1    3    3    0    0 -0.24927234365E+02  0.18033351506E+03 -0.27499959408E+02  0.18411352866E+03  0.00000000000E+00 0. -1.
         22    1    3    3    0    0  0.63679431146E+02  0.44659193700E+02 -0.16274430412E+01  0.77795643219E+02  0.00000000000E+00 0. -1.
</event>
<event>
 7    1  0.6089676E-006  0.4288276E+02  0.7818608E-02  0.1556829E+00
          2   -1    0    0  502    0  0.00000000000E+00  0.00000000000E+00  0.11801636157E+04  0.11801636157E+04  0.00000000000E+00 0. -1.
          1   -1    0    0  501    0 -0.00000000000E+00 -0.00000000000E+00 -0.15199282481E+02  0.15199282481E+02  0.00000000000E+00 0. -1.
         25    2    1    2    0    0 -0.51402501700E+02 -0.41167208491E+02  0.76394273837E+03  0.77689788607E+03  0.12499944654E+03 0.  0.
          2    1    1    2  501    0  0.23644819466E+02  0.13242934177E+02  0.16074166168E+02  0.31509230571E+02  0.00000000000E+00 0. -1.
          1    1    1    2  502    0  0.27757682234E+02  0.27924274314E+02  0.38494742865E+03  0.38695578151E+03  0.00000000000E+00 0. -1.
         22    1    3    3    0    0 -0.81092603403E+02 -0.64406802171E+02  0.56637902605E+03  0.57576857125E+03  0.00000000000E+00 0.  1.
         22    1    3    3    0    0  0.29690101703E+02  0.23239593679E+02  0.19756371233E+03  0.20112931482E+03  0.00000000000E+00 0.  1.
</event>
<event>
 7    1  0.6089676E-006  0.9534933E+02  0.7818608E-02  0.1354687E+00
          2   -1    0    0  502    0  0.00000000000E+00  0.00000000000E+00  0.24592470464E+04  0.24592470464E+04  0.00000000000E+00 0. -1.
          1   -1    0    0  501    0 -0.00000000000E+00 -0.00000000000E+00 -0.23691703309E+03  0.23691703309E+03  0.00000000000E+00 0. -1.
         25    2    1    2    0    0 -0.14508482528E+03 -0.14729541089E+02  0.17950271089E+03  0.26289272780E+03  0.12499918882E+03 0.  0.
          2    1    1    2  501    0  0.91333045588E+02  0.16699439952E+02 -0.18383937026E+03  0.20595511785E+03  0.00000000000E+00 0. -1.
          1    1    1    2  502    0  0.53751779695E+02 -0.19698988634E+01  0.22266666727E+04  0.22273162339E+04  0.00000000000E+00 0. -1.
         22    1    3    3    0    0 -0.60621252646E+01 -0.47913745832E+02  0.34994613611E+02  0.59641423391E+02  0.00000000000E+00 0.  1.
         22    1    3    3    0    0 -0.13902270002E+03  0.33184204743E+02  0.14450809727E+03  0.20325130441E+03  0.00000000000E+00 0.  1.
</event>
<event>
 7    1  0.9915978E-006  0.5577502E+02  0.7818608E-02  0.1486628E+00
          2   -1    0    0  502    0  0.00000000000E+00  0.00000000000E+00  0.11239326529E+04  0.11239326529E+04  0.00000000000E+00 0. -1.
          1   -1    0    0  501    0 -0.00000000000E+00 -0.00000000000E+00 -0.17388996859E+04  0.17388996859E+04  0.00000000000E+00 0. -1.
         25    2    1    2    0    0  0.74758434321E+02  0.26708839190E+02 -0.30881686227E+03  0.34247642450E+03  0.12498024372E+03 0.  0.
          2    1    1    2  501    0 -0.19027023745E+02 -0.27317104330E+02 -0.14123553131E+04  0.14127476003E+04  0.00000000000E+00 0. -1.
          1    1    1    2  502    0 -0.55731410576E+02  0.60826513936E+00  0.11062051424E+04  0.11076083140E+04  0.00000000000E+00 0. -1.
         22    1    3    3    0    0  0.10738252644E+03  0.17408244634E+02 -0.19028796293E+03  0.21918841849E+03  0.00000000000E+00 0. -1.
         22    1    3    3    0    0 -0.32624092117E+02  0.93005945563E+01 -0.11852889934E+03  0.12328800601E+03  0.00000000000E+00 0. -1.
</event>
<event>
 7    1  0.6089676E-006  0.6390693E+02  0.7818608E-02  0.1392860E+00
          2   -1    0    0  502    0  0.00000000000E+00  0.00000000000E+00  0.27473704084E+03  0.27473704084E+03  0.00000000000E+00 0. -1.
          1   -1    0    0  501    0 -0.00000000000E+00 -0.00000000000E+00 -0.73945090259E+03  0.73945090259E+03  0.00000000000E+00 0. -1.
         25    2    1    2    0    0 -0.10798410013E+03  0.55285857676E+02 -0.25147904341E+03  0.30591187113E+03  0.12499308656E+03 0.  0.
          2    1    1    2  501    0  0.54165183433E+02 -0.22387221461E+02 -0.45482568975E+03  0.45858637446E+03  0.00000000000E+00 0. -1.
          1    1    1    2  502    0  0.53818916697E+02 -0.32898636215E+02  0.24159087140E+03  0.24968969784E+03  0.00000000000E+00 0. -1.
         22    1    3    3    0    0 -0.12428075336E+03  0.40946988621E+02 -0.25227349177E+03  0.28419056315E+03  0.00000000000E+00 0. -1.
         22    1    3    3    0    0  0.16296653227E+02  0.14338869056E+02  0.79444836711E+00  0.21721307981E+02  0.00000000000E+00 0. -1.
</event>
<event>
 7    1  0.6089676E-006  0.6546624E+02  0.7818608E-02  0.1398810E+00
          2   -1    0    0  502    0  0.00000000000E+00  0.00000000000E+00  0.43467422529E+03  0.43467422529E+03  0.00000000000E+00 0. -1.
          1   -1    0    0  501    0 -0.00000000000E+00 -0.00000000000E+00 -0.42535957055E+03  0.42535957055E+03  0.00000000000E+00 0. -1.
         25    2    1    2    0    0 -0.69590980702E+02 -0.93468579341E+02 -0.86563538809E+02  0.19156545649E+03  0.12499919180E+03 0.  0.
          2    1    1    2  501    0  0.39843415009E+02  0.47725776367E+02 -0.28093141440E+03  0.28772853012E+03  0.00000000000E+00 0. -1.
          1    1    1    2  502    0  0.29747565693E+02  0.45742802974E+02  0.37680960795E+03  0.38073980923E+03  0.00000000000E+00 0. -1.
         22    1    3    3    0    0 -0.34784803519E+02 -0.11618689850E+03 -0.88210973083E+02  0.14996850907E+03  0.00000000000E+00 0. -1.
         22    1    3    3    0    0 -0.34806177183E+02  0.22718319159E+02  0.16474342743E+01  0.41596947427E+02  0.00000000000E+00 0. -1.
</event>
<event>
 7    1  0.6089676E-006  0.8803818E+02  0.7818608E-02  0.1371328E+00
          2   -1    0    0  502    0  0.00000000000E+00  0.00000000000E+00  0.81587736074E+03  0.81587736074E+03  0.00000000000E+00 0. -1.
          1   -1    0    0  501    0 -0.00000000000E+00 -0.00000000000E+00 -0.93780683025E+03  0.93780683025E+03  0.00000000000E+00 0. -1.
         25    2    1    2    0    0  0.83366551108E+02  0.15092128794E+02  0.10804602397E+03  0.18567902987E+03  0.12500001857E+03 0.  0.
          2    1    1    2  501    0 -0.19105248224E+02  0.46945553488E+02 -0.89528904676E+03  0.89672257290E+03  0.00000000000E+00 0. -1.
          1    1    1    2  502    0 -0.64261302884E+02 -0.62037682282E+02  0.66531355328E+03  0.67128258822E+03  0.00000000000E+00 0. -1.
         22    1    3    3    0    0  0.96976416154E+02 -0.25140479400E+02  0.45391539530E+02  0.10998573024E+03  0.00000000000E+00 0. -1.
         22    1    3    3    0    0 -0.13609865046E+02  0.40232608194E+02  0.62654484438E+02  0.75693299630E+02  0.00000000000E+00 0. -1.
</event>
<event>
 7    1  0.6089676E-006  0.1157040E+03  0.7818608E-02  0.1327646E+00
          2   -1    0    0  502    0  0.00000000000E+00  0.00000000000E+00  0.42490260760E+03  0.42490260760E+03  0.00000000000E+00 0. -1.
          1   -1    0    0  501    0 -0.00000000000E+00 -0.00000000000E+00 -0.72663579541E+03  0.72663579541E+03  0.00000000000E+00 0. -1.
         25    2    1    2    0    0  0.70479496191E+02  0.93284438605E+01 -0.61651401876E+02  0.15646146507E+03  0.12499966180E+03 0.  0.
          2    1    1    2  501    0 -0.12064103610E+03  0.15575794057E+02 -0.60945825013E+03  0.62147906127E+03  0.00000000000E+00 0. -1.
          1    1    1    2  502    0  0.50161539905E+02 -0.24904237917E+02  0.36937646419E+03  0.37359787666E+03  0.00000000000E+00 0. -1.
         22    1    3    3    0    0  0.54313646365E+02  0.44160712998E+01  0.30721392730E+02  0.62556197442E+02  0.00000000000E+00 0. -1.
         22    1    3    3    0    0  0.16165849826E+02  0.49123725608E+01 -0.92372794606E+02  0.93905267627E+02  0.00000000000E+00 0. -1.
</event>
<event>
 7    1  0.6089676E-006  0.9205622E+02  0.7818608E-02  0.1428336E+00
          2   -1    0    0  502    0  0.00000000000E+00  0.00000000000E+00  0.12044352501E+04  0.12044352501E+04  0.00000000000E+00 0. -1.
          1   -1    0    0  501    0 -0.00000000000E+00 -0.00000000000E+00 -0.23325521187E+03  0.23325521187E+03  0.00000000000E+00 0. -1.
         25    2    1    2    0    0  0.64840084848E+02 -0.97835742965E+01  0.94275003851E+03  0.95326088276E+03  0.12501488135E+03 0.  0.
          2    1    1    2  501    0 -0.92224504702E+02 -0.44337328156E+01 -0.21764907190E+03  0.23642363620E+03  0.00000000000E+00 0. -1.
          1    1    1    2  502    0  0.27384419854E+02  0.14217307112E+02  0.24607907161E+03  0.24800594298E+03  0.00000000000E+00 0. -1.
         22    1    3    3    0    0  0.51972067105E+02  0.18053510490E+02  0.14761722081E+03  0.15753688102E+03  0.00000000000E+00 0. -1.
         22    1    3    3    0    0  0.12868017744E+02 -0.27837084787E+02  0.79513281770E+03  0.79572400174E+03  0.00000000000E+00 0. -1.
</event>
<event>
 7    1  0.6089676E-006  0.9741568E+02  0.7818608E-02  0.1415905E+00
          2   -1    0    0  502    0  0.00000000000E+00  0.00000000000E+00  0.12665939865E+04  0.12665939865E+04  0.00000000000E+00 0. -1.
          1   -1    0    0  501    0 -0.00000000000E+00 -0.00000000000E+00 -0.42980891893E+03  0.42980891893E+03  0.00000000000E+00 0. -1.
         25    2    1    2    0    0  0.61928489217E+01 -0.77893358868E+02 -0.15436504311E+03  0.21344421441E+03  0.12499655754E+03 0.  0.
          2    1    1    2  501    0 -0.26845883615E+02 -0.17550010585E+02 -0.24292138493E+03  0.24502959738E+03  0.00000000000E+00 0. -1.
          1    1    1    2  502    0  0.20653034693E+02  0.95443369453E+02  0.12340714956E+04  0.12379290936E+04  0.00000000000E+00 0. -1.
         22    1    3    3    0    0 -0.23759462533E+02 -0.65714333870E+02 -0.16517777673E+03  0.17935044930E+03  0.00000000000E+00 0.  1.
         22    1    3    3    0    0  0.29952311455E+02 -0.12179024998E+02  0.10812733623E+02  0.34093765116E+02  0.00000000000E+00 0.  1.
</event>
<event>
 7    1  0.6089676E-006  0.1549376E+03  0.7818608E-02  0.1339887E+00
          2   -1    0    0  502    0  0.00000000000E+00  0.00000000000E+00  0.30439578062E+03  0.30439578062E+03  0.00000000000E+00 0. -1.
          1   -1    0    0  501    0 -0.00000000000E+00 -0.00000000000E+00 -0.17056970825E+04  0.17056970825E+04  0.00000000000E+00 0. -1.
         25    2    1    2    0    0  0.36519313470E+02  0.11683173818E+03 -0.97911548829E+02  0.20049505326E+03  0.12501311804E+03 0.  0.
          2    1    1    2  501    0 -0.61272647468E+02 -0.14510255142E+03 -0.15510884001E+04  0.15590652048E+04  0.00000000000E+00 0. -1.
          1    1    1    2  502    0  0.24753333998E+02  0.28270813237E+02  0.24769864710E+03  0.25053260506E+03  0.00000000000E+00 0. -1.
         22    1    3    3    0    0  0.58315757135E+02  0.32472436657E+02  0.34450379409E+01  0.66836030396E+02  0.00000000000E+00 0. -1.
         22    1    3    3    0    0 -0.21796443666E+02  0.84359301524E+02 -0.10135658677E+03  0.13365902286E+03  0.00000000000E+00 0. -1.
</event>
<event>
 7    1  0.6089676E-006  0.5398651E+02  0.7818608E-02  0.1477039E+00
          2   -1    0    0  502    0  0.00000000000E+00  0.00000000000E+00  0.11022804835E+04  0.11022804835E+04  0.00000000000E+00 0. -1.
          1   -1    0    0  501    0 -0.00000000000E+00 -0.00000000000E+00 -0.10870296236E+03  0.10870296236E+03  0.00000000000E+00 0. -1.
         25    2    1    2    0    0  0.11795531543E+02 -0.40362836020E+02  0.99378390597E+02  0.16513472591E+03  0.12500048035E+03 0.  0.
          2    1    1    2  501    0  0.34778122829E+02  0.12021336820E+02 -0.70545049589E+02  0.79565283811E+02  0.00000000000E+00 0. -1.
          1    1    1    2  502    0 -0.46573654373E+02  0.28341499201E+02  0.96474418010E+03  0.96628343610E+03  0.00000000000E+00 0. -1.
         22    1    3    3    0    0  0.67989211824E+02 -0.12873064970E+02  0.48533448753E+02  0.84520674241E+02  0.00000000000E+00 0.  1.
         22    1    3    3    0    0 -0.56193680281E+02 -0.27489771051E+02  0.50844941844E+02  0.80614051672E+02  0.00000000000E+00 0.  1.
</event>
<event>
 7    1  0.6089676E-006  0.1943298E+03  0.7818608E-02  0.1219801E+00
          2   -1    0    0  502    0  0.00000000000E+00  0.00000000000E+00  0.30980277294E+03  0.30980277294E+03  0.00000000000E+00 0. -1.
          1   -1    0    0  501    0 -0.00000000000E+00 -0.00000000000E+00 -0.11439709721E+04  0.11439709721E+04  0.00000000000E+00 0. -1.
         25    2    1    2    0    0  0.13862403078E+03 -0.12912163862E+03 -0.93148096778E+02  0.24533644398E+03  0.12499753334E+03 0.  0.
          2    1    1    2  501    0 -0.64224706558E+02  0.18689613659E+03 -0.95468752376E+03  0.97492730335E+03  0.00000000000E+00 0. -1.
          1    1    1    2  502    0 -0.74399324219E+02 -0.57774497966E+02  0.21366742139E+03  0.23350999769E+03  0.00000000000E+00 0. -1.
         22    1    3    3    0    0  0.13578980523E+03 -0.89252440045E+02 -0.22337444448E+02  0.16402387230E+03  0.00000000000E+00 0.  1.
         22    1    3    3    0    0  0.28342255437E+01 -0.39869198578E+02 -0.70810652330E+02  0.81312571679E+02  0.00000000000E+00 0.  1.
</event>
<event>
 7    1  0.6089676E-006  0.6798676E+02  0.7818608E-02  0.1497325E+00
          2   -1    0    0  502    0  0.00000000000E+00  0.00000000000E+00  0.81189884774E+02  0.81189884774E+02  0.00000000000E+00 0. -1.
          1   -1    0    0  501    0 -0.00000000000E+00 -0.00000000000E+00 -0.74848378787E+03  0.74848378787E+03  0.00000000000E+00 0. -1.
         25    2    1    2    0    0  0.70742689124E+02  0.28155034875E+02 -0.36296738265E+03  0.39136534166E+03  0.12499710290E+03 0.  0.
          2    1    1    2  501    0 -0.19486260479E+02  0.16222004025E+02 -0.35359284551E+03  0.35450073083E+03  0.00000000000E+00 0. -1.
          1    1    1    2  502    0 -0.51256428645E+02 -0.44377038900E+02  0.49266325061E+02  0.83807600156E+02  0.00000000000E+00 0. -1.
         22    1    3    3    0    0  0.81470757988E+02 -0.30029666961E+02 -0.20210992754E+03  0.21997201667E+03  0.00000000000E+00 0. -1.
         22    1    3    3    0    0 -0.10728068865E+02  0.58184701837E+02 -0.16085745511E+03  0.17139332500E+03  0.00000000000E+00 0. -1.
</event>
<event>
 7    1  0.6089676E-006  0.7153754E+02  0.7818608E-02  0.1402798E+00
          2   -1    0    0  502    0  0.00000000000E+00  0.00000000000E+00  0.89897046964E+03  0.89897046964E+03  0.00000000000E+00 0. -1.
          1   -1    0    0  501    0 -0.00000000000E+00 -0.00000000000E+00 -0.53188681103E+02  0.53188681103E+02  0.00000000000E+00 0. -1.
         25    2    1    2    0    0 -0.12826927982E+02 -0.40222258440E+02  0.20847162524E+03  0.24671381007E+03  0.12499970159E+03 0.  0.
          2    1    1    2  501    0 -0.48147558066E+02 -0.47733527160E+01 -0.13505183042E+02  0.50233078871E+02  0.00000000000E+00 0. -1.
          1    1    1    2  502    0  0.60974486048E+02  0.44995611156E+02  0.65081534635E+03  0.65521226180E+03  0.00000000000E+00 0. -1.
         22    1    3    3    0    0 -0.67086661586E+02 -0.79794089055E+01  0.12471300481E+03  0.14183661268E+03  0.00000000000E+00 0.  1.
         22    1    3    3    0    0  0.54259733604E+02 -0.32242849535E+02  0.83758620430E+02  0.10487719739E+03  0.00000000000E+00 0.  1.
</event>
<event>
 7    1  0.6089676E-006  0.5609419E+02  0.7818608E-02  0.1494932E+00
          2   -1    0    0  502    0  0.00000000000E+00  0.00000000000E+00  0.53872016232E+03  0.53872016232E+03  0.00000000000E+00 0. -1.
          1   -1    0    0  501    0 -0.00000000000E+00 -0.00000000000E+00 -0.22456587808E+03  0.22456587808E+03  0.00000000000E+00 0. -1.
         25    2    1    2    0    0 -0.80718068454E+02 -0.27741441754E+02 -0.11499332838E+03  0.19008872510E+03  0.12500105468E+03 0.  0.
          2    1    1    2  501    0  0.25855303167E+02  0.17538218740E+02 -0.66997441378E+02  0.73923899854E+02  0.00000000000E+00 0. -1.
          1    1    1    2  502    0  0.54862765287E+02  0.10203223013E+02  0.49614505399E+03  0.49927341545E+03  0.00000000000E+00 0. -1.
         22    1    3    3    0    0 -0.66194150239E+02 -0.10166022670E+01 -0.13726137944E+03  0.15239220876E+03  0.00000000000E+00 0.  1.
         22    1    3    3    0    0 -0.14523918215E+02 -0.26724839487E+02  0.22268051059E+02  0.37696516336E+02  0.00000000000E+00 0.  1.
</event>
<event>
 7    1  0.1334515E-005  0.8079286E+02  0.7818608E-02  0.1388347E+00
          2   -1    0    0  502    0  0.00000000000E+00  0.00000000000E+00  0.11272080018E+04  0.11272080018E+04  0.00000000000E+00 0. -1.
          1   -1    0    0  501    0 -0.00000000000E+00 -0.00000000000E+00 -0.20159975229E+04  0.20159975229E+04  0.00000000000E+00 0. -1.
         25    2    1    2    0    0  0.32175802688E+02 -0.10986761654E+02 -0.18974997187E+03  0.22975282119E+03  0.12500126324E+03 0.  0.
          2    1    1    2  501    0  0.38644716635E+02 -0.28589378884E+02 -0.18044394720E+04  0.18050796589E+04  0.00000000000E+00 0. -1.
          1    1    1    2  502    0 -0.70820519323E+02  0.39576140538E+02  0.11053999228E+04  0.11083730446E+04  0.00000000000E+00 0. -1.
         22    1    3    3    0    0  0.35359627326E+02 -0.74303054100E+01  0.36301634296E+01  0.36313782089E+02  0.00000000000E+00 0. -1.
         22    1    3    3    0    0 -0.31838246372E+01 -0.35564562440E+01 -0.19338013530E+03  0.19343903910E+03  0.00000000000E+00 0. -1.
</event>
<event>
 7    1  0.6089676E-006  0.5502608E+03  0.7818608E-02  0.1140488E+00
          2   -1    0    0  502    0  0.00000000000E+00  0.00000000000E+00  0.10695032441E+04  0.10695032441E+04  0.00000000000E+00 0. -1.
          1   -1    0    0  501    0 -0.00000000000E+00 -0.00000000000E+00 -0.17694150556E+04  0.17694150556E+04  0.00000000000E+00 0. -1.
         25    2    1    2    0    0 -0.49860952350E+03  0.30278597956E+03  0.56309821318E+02  0.59923804270E+03  0.12499851799E+03 0.  0.
          2    1    1    2  501    0  0.74981079318E+02  0.31140535981E+02 -0.13985468628E+04  0.14009015749E+04  0.00000000000E+00 0. -1.
          1    1    1    2  502    0  0.42362844418E+03 -0.33392651554E+03  0.64232522996E+03  0.83877868210E+03  0.00000000000E+00 0. -1.
         22    1    3    3    0    0 -0.14991126476E+03  0.36750416301E+02  0.43883446626E+02  0.16046724677E+03  0.00000000000E+00 0. -1.
         22    1    3    3    0    0 -0.34869825874E+03  0.26603556326E+03  0.12426374692E+02  0.43877079593E+03  0.00000000000E+00 0. -1.
</event>
<event>
 7    1  0.6089676E-006  0.5971798E+02  0.7818608E-02  0.1527136E+00
          2   -1    0    0  502    0  0.00000000000E+00  0.00000000000E+00  0.13516239759E+03  0.13516239759E+03  0.00000000000E+00 0. -1.
          1   -1    0    0  501    0 -0.00000000000E+00 -0.00000000000E+00 -0.49791684416E+03  0.49791684416E+03  0.00000000000E+00 0. -1.
         25    2    1    2    0    0 -0.42637865849E+02  0.21468038793E+02 -0.12969962568E+03  0.18634852928E+03  0.12499966868E+03 0.  0.
          2    1    1    2  501    0  0.41391688621E+02 -0.45033566842E+02 -0.33579237137E+03  0.34131775621E+03  0.00000000000E+00 0. -1.
          1    1    1    2  502    0  0.12461772281E+01  0.23565528049E+02  0.10273755048E+03  0.10541295627E+03  0.00000000000E+00 0. -1.
         22    1    3    3    0    0  0.24280939902E+02  0.22750315226E+02  0.71273319763E+01  0.34028513728E+02  0.00000000000E+00 0.  1.
         22    1    3    3    0    0 -0.66918805751E+02 -0.12822764331E+01 -0.13682695766E+03  0.15232001555E+03  0.00000000000E+00 0.  1.
</event>
<event>
 7    1  0.6089676E-006  0.1280419E+03  0.7818608E-02  0.1284080E+00
          2   -1    0    0  502    0  0.00000000000E+00  0.00000000000E+00  0.66914430838E+03  0.66914430838E+03  0.00000000000E+00 0. -1.
          1   -1    0    0  501    0 -0.00000000000E+00 -0.00000000000E+00 -0.14657915628E+04  0.14657915628E+04  0.00000000000E+00 0. -1.
         25    2    1    2    0    0  0.25967005854E+02 -0.53081275388E+02  0.25156524978E+03  0.28705777504E+03  0.12500073649E+03 0.  0.
          2    1    1    2  501    0 -0.90951368968E+02  0.91214397819E+02 -0.14415982691E+04  0.14473416277E+04  0.00000000000E+00 0. -1.
          1    1    1    2  502    0  0.64984363114E+02 -0.38133122431E+02  0.39338576491E+03  0.40053646839E+03  0.00000000000E+00 0. -1.
         22    1    3    3    0    0  0.52474701964E+02  0.68610841126E+01  0.18965029298E+03  0.19689566387E+03  0.00000000000E+00 0. -1.
         22    1    3    3    0    0 -0.26507696110E+02 -0.59942359501E+02  0.61914956799E+02  0.90162111172E+02  0.00000000000E+00 0. -1.
</event>
<event>
 7    1  0.6089676E-006  0.7969805E+02  0.7818608E-02  0.1414236E+00
          2   -1    0    0  502    0  0.00000000000E+00  0.00000000000E+00  0.95501926661E+02  0.95501926661E+02  0.00000000000E+00 0. -1.
          1   -1    0    0  501    0 -0.00000000000E+00 -0.00000000000E+00 -0.31337155378E+03  0.31337155378E+03  0.00000000000E+00 0. -1.
         25    2    1    2    0    0  0.71285994423E+02  0.16215141982E+02 -0.12780517563E+03  0.19314208279E+03  0.12500030958E+03 0.  0.
          2    1    1    2  501    0 -0.98408247835E+01  0.38474952178E+02 -0.12138128429E+03  0.12771288093E+03  0.00000000000E+00 0. -1.
          1    1    1    2  502    0 -0.61445169639E+02 -0.54690094161E+02  0.31316832796E+02  0.88018516732E+02  0.00000000000E+00 0. -1.
         22    1    3    3    0    0 -0.10458297171E+02 -0.15999636094E+02  0.15793883339E+02  0.24795384364E+02  0.00000000000E+00 0.  1.
         22    1    3    3    0    0  0.81744291594E+02  0.32214778076E+02 -0.14359905896E+03  0.16834669842E+03  0.00000000000E+00 0.  1.
</event>
<event>
 7    1  0.6089676E-006  0.1554297E+03  0.7818608E-02  0.1221838E+00
          2   -1    0    0  502    0  0.00000000000E+00  0.00000000000E+00  0.65987926286E+03  0.65987926286E+03  0.00000000000E+00 0. -1.
          1   -1    0    0  501    0 -0.00000000000E+00 -0.00000000000E+00 -0.39158200446E+04  0.39158200446E+04  0.00000000000E+00 0. -1.
         25    2    1    2    0    0  0.65953480614E+02 -0.14504432819E+03 -0.17511314491E+04  0.17628015863E+04  0.12498144645E+03 0.  0.
          2    1    1    2  501    0 -0.15303336941E+03  0.69497299718E+02 -0.21504688368E+04  0.21570269597E+04  0.00000000000E+00 0. -1.
          1    1    1    2  502    0  0.87079888791E+02  0.75547028470E+02  0.64565950411E+03  0.65587076150E+03  0.00000000000E+00 0. -1.
         22    1    3    3    0    0  0.66826182024E+02 -0.14311959742E+03 -0.10633871124E+04  0.10750540026E+04  0.00000000000E+00 0.  1.
         22    1    3    3    0    0 -0.87270141010E+00 -0.19247307718E+01 -0.68774433672E+03  0.68774758370E+03  0.00000000000E+00 0.  1.
</event>
<event>
 7    1  0.6089676E-006  0.9871703E+02  0.7818608E-02  0.1298478E+00
          2   -1    0    0  502    0  0.00000000000E+00  0.00000000000E+00  0.14851673488E+04  0.14851673488E+04  0.00000000000E+00 0. -1.
          1   -1    0    0  501    0 -0.00000000000E+00 -0.00000000000E+00 -0.61870006359E+03  0.61870006359E+03  0.00000000000E+00 0. -1.
         25    2    1    2    0    0  0.82810168064E+02 -0.15047978510E+03  0.14591879426E+03  0.25771951883E+03  0.12500146481E+03 0.  0.
          2    1    1    2  501    0 -0.64890092966E+02  0.55557550517E+02 -0.55772522996E+03  0.56422938395E+03  0.00000000000E+00 0. -1.
          1    1    1    2  502    0 -0.17920075098E+02  0.94922234588E+02  0.12782737209E+04  0.12819185096E+04  0.00000000000E+00 0. -1.
         22    1    3    3    0    0  0.15916753041E+02 -0.96593431958E+02  0.12012418041E+02  0.98630280908E+02  0.00000000000E+00 0.  1.
         22    1    3    3    0    0  0.66893415023E+02 -0.53886353147E+02  0.13390637622E+03  0.15908923792E+03  0.00000000000E+00 0.  1.
</event>
<event>
 7    1  0.6089676E-006  0.3055373E+03  0.7818608E-02  0.1271723E+00
          2   -1    0    0  502    0  0.00000000000E+00  0.00000000000E+00  0.27469399227E+03  0.27469399227E+03  0.00000000000E+00 0. -1.
          1   -1    0    0  501    0 -0.00000000000E+00 -0.00000000000E+00 -0.14989344903E+04  0.14989344903E+04  0.00000000000E+00 0. -1.
         25    2    1    2    0    0  0.20923119501E+03  0.20459234277E+03 -0.38158397192E+03  0.49685714201E+03  0.12499988903E+03 0.  0.
          2    1    1    2  501    0 -0.12031223945E+02  0.33430557865E+02 -0.94916964001E+03  0.94983438455E+03  0.00000000000E+00 0. -1.
          1    1    1    2  502    0 -0.19719997106E+03 -0.23802290064E+03  0.10651311386E+03  0.32693695606E+03  0.00000000000E+00 0. -1.
         22    1    3    3    0    0  0.11950820240E+03  0.18311134902E+03 -0.21629703809E+03  0.30756525367E+03  0.00000000000E+00 0.  1.
         22    1    3    3    0    0  0.89722992610E+02  0.21480993747E+02 -0.16528693383E+03  0.18929188834E+03  0.00000000000E+00 0.  1.
</event>
<event>
 7    1  0.6089676E-006  0.5189688E+02  0.7818608E-02  0.1445638E+00
          2   -1    0    0  502    0  0.00000000000E+00  0.00000000000E+00  0.59281726174E+03  0.59281726174E+03  0.00000000000E+00 0. -1.
          1   -1    0    0  501    0 -0.00000000000E+00 -0.00000000000E+00 -0.28406428427E+04  0.28406428427E+04  0.00000000000E+00 0. -1.
         25    2    1    2    0    0 -0.33116107440E+02 -0.99501891427E+01 -0.51176169368E+03  0.52793992383E+03  0.12499939691E+03 0.  0.
          2    1    1    2  501    0  0.10261338350E+02  0.52235890500E+02 -0.23194982981E+04  0.23201091005E+04  0.00000000000E+00 0. -1.
          1    1    1    2  502    0  0.22854769090E+02 -0.42285701358E+02  0.58343441081E+03  0.58541108012E+03  0.00000000000E+00 0. -1.
         22    1    3    3    0    0  0.46439236063E+02 -0.17563668762E+02 -0.18492729593E+03  0.19147634289E+03  0.00000000000E+00 0.  1.
         22    1    3    3    0    0 -0.79555343503E+02  0.76134796194E+01 -0.32683439775E+03  0.33646358094E+03  0.00000000000E+00 0.  1.
</event>
<event>
 7    1  0.6089676E-006  0.1604913E+03  0.7818608E-02  0.1272409E+00
          2   -1    0    0  502    0  0.00000000000E+00  0.00000000000E+00  0.28301293600E+04  0.28301293600E+04  0.00000000000E+00 0. -1.
          1   -1    0    0  501    0 -0.00000000000E+00 -0.00000000000E+00 -0.24852284081E+03  0.24852284081E+03  0.00000000000E+00 0. -1.
         25    2    1    2    0    0  0.28022403666E+01  0.12801635227E+03  0.49335141034E+03  0.52480035875E+03  0.12499505371E+03 0.  0.
          2    1    1    2  501    0 -0.60016183268E+02  0.30217589003E+02 -0.22482932510E+03  0.23465564209E+03  0.00000000000E+00 0. -1.
          1    1    1    2  502    0  0.57213942902E+02 -0.15823394127E+03  0.23130844340E+04  0.23191962000E+04  0.00000000000E+00 0. -1.
         22    1    3    3    0    0  0.11705114907E+02  0.10974767510E+03  0.49222433596E+03  0.50444658668E+03  0.00000000000E+00 0. -1.
         22    1    3    3    0    0 -0.89028745404E+01  0.18268677170E+02  0.11270743870E+01  0.20353772066E+02  0.00000000000E+00 0. -1.
</event>
<event>
 7    1  0.6089676E-006  0.9402638E+02  0.7818608E-02  0.1338370E+00
          2   -1    0    0  502    0  0.00000000000E+00  0.00000000000E+00  0.10505931193E+04  0.10505931193E+04  0.00000000000E+00 0. -1.
          1   -1    0    0  501    0 -0.00000000000E+00 -0.00000000000E+00 -0.10265976506E+03  0.10265976506E+03  0.00000000000E+00 0. -1.
         25    2    1    2    0    0  0.26873541224E+02  0.37774450366E+02  0.17995837820E+03  0.22396453344E+03  0.12500399208E+03 0.  0.
          2    1    1    2  501    0 -0.95688298054E+01  0.62004245575E+02 -0.64907367272E+02  0.90272118062E+02  0.00000000000E+00 0. -1.
          1    1    1    2  502    0 -0.17304711418E+02 -0.99778695940E+02  0.83288234336E+03  0.83901623290E+03  0.00000000000E+00 0. -1.
         22    1    3    3    0    0 -0.13206838848E+02  0.74418558704E+02  0.12889983027E+03  0.14942459207E+03  0.00000000000E+00 0. -1.
         22    1    3    3    0    0  0.40080380071E+02 -0.36644108339E+02  0.51058547922E+02  0.74539941364E+02  0.00000000000E+00 0. -1.
</event>
<event>
 7    1  0.6089676E-006  0.2000832E+03  0.7818608E-02  0.1286669E+00
          2   -1    0    0  502    0  0.00000000000E+00  0.00000000000E+00  0.30953012661E+04  0.30953012661E+04  0.00000000000E+00 0. -1.
          1   -1    0    0  501    0 -0.00000000000E+00 -0.00000000000E+00 -0.73703892632E+03  0.73703892632E+03  0.00000000000E+00 0. -1.
         25    2    1    2    0    0  0.10734332694E+03  0.15709605869E+03  0.17973076058E+03  0.29005185096E+03  0.12500067381E+03 0.  0.
          2    1    1    2  501    0 -0.71684661887E+02 -0.18779700180E+03 -0.66686526095E+03  0.69650246296E+03  0.00000000000E+00 0. -1.
          1    1    1    2  502    0 -0.35658665051E+02  0.30700943112E+02  0.28453968402E+04  0.28457858785E+04  0.00000000000E+00 0. -1.
         22    1    3    3    0    0  0.28750512143E+02  0.17502606743E+02 -0.15877879372E+02  0.37216128825E+02  0.00000000000E+00 0.  1.
         22    1    3    3    0    0  0.78592814795E+02  0.13959345195E+03  0.19560863996E+03  0.25283572214E+03  0.00000000000E+00 0.  1.
</event>
<event>
 7    1  0.6089676E-006  0.1172266E+03  0.7818608E-02  0.1335545E+00
          2   -1    0    0  502    0  0.00000000000E+00  0.00000000000E+00  0.22478830520E+04  0.22478830520E+04  0.00000000000E+00 0. -1.
          1   -1    0    0  501    0 -0.00000000000E+00 -0.00000000000E+00 -0.17268152805E+02  0.17268152805E+02  0.00000000000E+00 0. -1.
         25    2    1    2    0    0  0.14778944940E+03  0.12679807751E+02  0.15566292514E+04  0.15686681397E+04  0.12499042927E+03 0.  0.
          2    1    1    2  501    0 -0.51537694196E+02 -0.19461608059E+01  0.83763837560E+02  0.98368195814E+02  0.00000000000E+00 0. -1.
          1    1    1    2  502    0 -0.96251755202E+02 -0.10733646945E+02  0.59022181025E+03  0.59811486928E+03  0.00000000000E+00 0. -1.
         22    1    3    3    0    0  0.12042994371E+03  0.17118547048E+02  0.63063902293E+03  0.64226318067E+03  0.00000000000E+00 0.  1.
         22    1    3    3    0    0  0.27359505688E+02 -0.44387392974E+01  0.92599022848E+03  0.92640495907E+03  0.00000000000E+00 0.  1.
</event>
<event>
 7    1  0.6089676E-006  0.3651877E+02  0.7818608E-02  0.1560246E+00
          2   -1    0    0  502    0  0.00000000000E+00  0.00000000000E+00  0.14341749283E+03  0.14341749283E+03  0.00000000000E+00 0. -1.
          1   -1    0    0  501    0 -0.00000000000E+00 -0.00000000000E+00 -0.20960633838E+04  0.20960633838E+04  0.00000000000E+00 0. -1.
         25    2    1    2    0    0  0.24229987054E+02  0.16950177303E+01 -0.99047666371E+01  0.12772439116E+03  0.12500180133E+03 0.  0.
          2    1    1    2  501    0 -0.47046866317E+01  0.30782962574E+02 -0.20228746322E+04  0.20231143078E+04  0.00000000000E+00 0. -1.
          1    1    1    2  502    0 -0.19525300423E+02 -0.32477980305E+02  0.80133507915E+02  0.88642177613E+02  0.00000000000E+00 0. -1.
         22    1    3    3    0    0  0.62294571184E+02  0.15547028182E+02 -0.41416073799E+02  0.76404285569E+02  0.00000000000E+00 0.  1.
         22    1    3    3    0    0 -0.38064584130E+02 -0.13852010452E+02  0.31511307162E+02  0.51320105588E+02  0.00000000000E+00 0.  1.
</event>
<event>
 7    1  0.6089676E-006  0.6325615E+02  0.7818608E-02  0.1389479E+00
          2   -1    0    0  502    0  0.00000000000E+00  0.00000000000E+00  0.11567031505E+04  0.11567031505E+04  0.00000000000E+00 0. -1.
          1   -1    0    0  501    0 -0.00000000000E+00 -0.00000000000E+00 -0.47264056755E+03  0.47264056755E+03  0.00000000000E+00 0. -1.
         25    2    1    2    0    0  0.35917698504E+01  0.97368976185E+00  0.13406270811E+03  0.18334253355E+03  0.12501130357E+03 0.  0.
          2    1    1    2  501    0 -0.17322870683E+02  0.60837974068E+02 -0.44475616732E+03  0.44923199942E+03  0.00000000000E+00 0. -1.
          1    1    1    2  502    0  0.13731100833E+02 -0.61811663829E+02  0.99475604214E+03  0.99676918506E+03  0.00000000000E+00 0. -1.
         22    1    3    3    0    0  0.30497727138E+02  0.53418999321E+02  0.93012516069E+02  0.11151246116E+03  0.00000000000E+00 0.  1.
         22    1    3    3    0    0 -0.26905957287E+02 -0.52445309559E+02  0.41050192045E+02  0.71830072387E+02  0.00000000000E+00 0.  1.
</event>
<event>
 7    1  0.6089676E-006  0.6606339E+02  0.7818608E-02  0.1431212E+00
          2   -1    0    0  502    0  0.00000000000E+00  0.00000000000E+00  0.60663862896E+02  0.60663862896E+02  0.00000000000E+00 0. -1.
          1   -1    0    0  501    0 -0.00000000000E+00 -0.00000000000E+00 -0.47024220836E+03  0.47024220836E+03  0.00000000000E+00 0. -1.
         25    2    1    2    0    0 -0.62902989491E+01 -0.30106499346E+02 -0.14566031490E+03  0.19439096899E+03  0.12499980930E+03 0.  0.
          2    1    1    2  501    0  0.18064428955E+02  0.70492921564E+02 -0.28162335760E+03  0.29087332489E+03  0.00000000000E+00 0. -1.
          1    1    1    2  502    0 -0.11774130006E+02 -0.40386422218E+02  0.17705327032E+02  0.45641777379E+02  0.00000000000E+00 0. -1.
         22    1    3    3    0    0  0.29664661268E+02 -0.49826100480E+02 -0.14180395269E+03  0.15320245891E+03  0.00000000000E+00 0.  1.
         22    1    3    3    0    0 -0.35954960217E+02  0.19719601135E+02 -0.38563622036E+01  0.41188510080E+02  0.00000000000E+00 0.  1.
</event>
<event>
 7    1  0.6089676E-006  0.1340984E+03  0.7818608E-02  0.1277109E+00
          2   -1    0    0  502    0  0.00000000000E+00  0.00000000000E+00  0.12293854034E+04  0.12293854034E+04  0.00000000000E+00 0. -1.
          1   -1    0    0  501    0 -0.00000000000E+00 -0.00000000000E+00 -0.28599529670E+03  0.28599529670E+03  0.00000000000E+00 0. -1.
         25    2    1    2    0    0  0.12290385367E+03  0.40572492851E+02 -0.19230361868E+03  0.26335758411E+03  0.12500020371E+03 0.  0.
          2    1    1    2  501    0 -0.40180004434E+02  0.65536140698E+02 -0.27071055727E+02  0.81500064736E+02  0.00000000000E+00 0. -1.
          1    1    1    2  502    0 -0.82723849235E+02 -0.10610863355E+03  0.11627647811E+04  0.11705230512E+04  0.00000000000E+00 0. -1.
         22    1    3    3    0    0  0.14328104058E+03  0.55686724192E+02 -0.15549999674E+03  0.21865661853E+03  0.00000000000E+00 0.  1.
         22    1    3    3    0    0 -0.20377186915E+02 -0.15114231341E+02 -0.36803621942E+02  0.44700965579E+02  0.00000000000E+00 0.  1.
</event>
<event>
 7    1  0.6089676E-006  0.1052594E+03  0.7818608E-02  0.1396414E+00
          2   -1    0    0  502    0  0.00000000000E+00  0.00000000000E+00  0.13597029833E+04  0.13597029833E+04  0.00000000000E+00 0. -1.
          1   -1    0    0  501    0 -0.00000000000E+00 -0.00000000000E+00 -0.55597312941E+02  0.55597312941E+02  0.00000000000E+00 0. -1.
         25    2    1    2    0    0 -0.80147693659E+02 -0.54918399886E+02  0.53317017367E+03  0.55618067500E+03  0.12500730263E+03 0.  0.
          2    1    1    2  501    0  0.63984346614E+02  0.85498395926E+02  0.21557201425E+02  0.10894349568E+03  0.00000000000E+00 0. -1.
          1    1    1    2  502    0  0.16163347045E+02 -0.30579996040E+02  0.74937829529E+03  0.75017612558E+03  0.00000000000E+00 0. -1.
         22    1    3    3    0    0 -0.82434386101E+02  0.32670577700E+01  0.42881156715E+03  0.43667546507E+03  0.00000000000E+00 0. -1.
         22    1    3    3    0    0  0.22866924419E+01 -0.58185457656E+02  0.10435860652E+03  0.11950520993E+03  0.00000000000E+00 0. -1.
</event>
<event>
 7    1  0.6089676E-006  0.1048246E+03  0.7818608E-02  0.1321645E+00
          2   -1    0    0  502    0  0.00000000000E+00  0.00000000000E+00  0.15213640987E+04  0.15213640987E+04  0.00000000000E+00 0. -1.
          1   -1    0    0  501    0 -0.00000000000E+00 -0.00000000000E+00 -0.74039618453E+03  0.74039618453E+03  0.00000000000E+00 0. -1.
         25    2    1    2    0    0  0.29774244747E+02 -0.13402701108E+03  0.27466590889E+03  0.33153623373E+03  0.12500066967E+03 0.  0.
          2    1    1    2  501    0  0.26541233201E+02  0.10117931169E+03 -0.70723920927E+03  0.71493285650E+03  0.00000000000E+00 0. -1.
          1    1    1    2  502    0 -0.56315477948E+02  0.32847699392E+02  0.12135412146E+04  0.12152911930E+04  0.00000000000E+00 0. -1.
         22    1    3    3    0    0  0.30456445926E+02 -0.87263828804E+02  0.26898859410E+03  0.28442474342E+03  0.00000000000E+00 0. -1.
         22    1    3    3    0    0 -0.68220117889E+00 -0.46763182279E+02  0.56773147911E+01  0.47111490303E+02  0.00000000000E+00 0. -1.
</event>
<event>
 7    1  0.6089676E-006  0.1548240E+03  0.7818608E-02  0.1329374E+00
          2   -1    0    0  502    0  0.00000000000E+00  0.00000000000E+00  0.18610247272E+04  0.18610247272E+04  0.00000000000E+00 0. -1.
          1   -1    0    0  501    0 -0.00000000000E+00 -0.00000000000E+00 -0.18414182815E+03  0.18414182815E+03  0.00000000000E+00 0. -1.
         25    2    1    2    0    0 -0.13227919232E+03  0.25186124167E+02  0.30043462599E+03  0.35216146434E+03  0.12499842758E+03 0.  0.
          2    1    1    2  501    0  0.15748597783E+03  0.74285260330E+01 -0.11866222656E+03  0.19732648130E+03  0.00000000000E+00 0. -1.
          1    1    1    2  502    0 -0.25206785503E+02 -0.32614650200E+02  0.14951104996E+04  0.14956786097E+04  0.00000000000E+00 0. -1.
         22    1    3    3    0    0 -0.14905034994E+03 -0.28563186262E+01  0.22443008480E+03  0.26943093426E+03  0.00000000000E+00 0. -1.
         22    1    3    3    0    0  0.16771157615E+02  0.28042442793E+02  0.76004541185E+02  0.82730530074E+02  0.00000000000E+00 0. -1.
</event>
<event>
 7    1  0.6089676E-006  0.7535116E+02  0.7818608E-02  0.1432006E+00
          2   -1    0    0  502    0  0.00000000000E+00  0.00000000000E+00  0.96966346097E+02  0.96966346097E+02  0.00000000000E+00 0. -1.
          1   -1    0    0  501    0 -0.00000000000E+00 -0.00000000000E+00 -0.14250601921E+04  0.14250601921E+04  0.00000000000E+00 0. -1.
         25    2    1    2    0    0  0.58213910697E+02 -0.71690425721E+02 -0.39607678825E+02  0.16037985478E+03  0.12499821222E+03 0.  0.
          2    1    1    2  501    0 -0.66056032539E+02  0.35877465286E+02 -0.13145291309E+04  0.13166766604E+04  0.00000000000E+00 0. -1.
          1    1    1    2  502    0  0.78421218419E+01  0.35812960435E+02  0.26042963753E+02  0.44970023028E+02  0.00000000000E+00 0. -1.
         22    1    3    3    0    0  0.49498252993E+02  0.22011480026E+02 -0.38159064257E+02  0.66262330832E+02  0.00000000000E+00 0. -1.
         22    1    3    3    0    0  0.87156577043E+01 -0.93701905747E+02 -0.14486145675E+01  0.94117523947E+02  0.00000000000E+00 0. -1.
</event>
<event>
 7    1  0.6089676E-006  0.1010426E+03  0.7818608E-02  0.1285793E+00
          2   -1    0    0  502    0  0.00000000000E+00  0.00000000000E+00  0.49131100178E+03  0.49131100178E+03  0.00000000000E+00 0. -1.
          1   -1    0    0  501    0 -0.00000000000E+00 -0.00000000000E+00 -0.20755147264E+04  0.20755147264E+04  0.00000000000E+00 0. -1.
         25    2    1    2    0    0  0.41853369250E+02 -0.89773617437E+02 -0.56174419363E+02  0.16909027424E+03  0.12499979418E+03 0.  0.
          2    1    1    2  501    0  0.52074351275E+02  0.87809602283E+02 -0.19564616475E+04  0.19591233862E+04  0.00000000000E+00 0. -1.
          1    1    1    2  502    0 -0.93927720525E+02  0.19640151548E+01  0.42843234226E+03  0.43861206770E+03  0.00000000000E+00 0. -1.
         22    1    3    3    0    0 -0.34649347384E+02 -0.73476603604E+02 -0.30274810643E+02  0.86694594473E+02  0.00000000000E+00 0.  1.
         22    1    3    3    0    0  0.76502716634E+02 -0.16297013833E+02 -0.25899608719E+02  0.82395679766E+02  0.00000000000E+00 0.  1.
</event>
<event>
 7    1  0.6089676E-006  0.9379210E+02  0.7818608E-02  0.1473128E+00
          2   -1    0    0  502    0  0.00000000000E+00  0.00000000000E+00  0.21816959671E+03  0.21816959671E+03  0.00000000000E+00 0. -1.
          1   -1    0    0  501    0 -0.00000000000E+00 -0.00000000000E+00 -0.13935336119E+04  0.13935336119E+04  0.00000000000E+00 0. -1.
         25    2    1    2    0    0  0.10353030995E+03  0.15321554074E+02  0.15509238335E+02  0.16374922565E+03  0.12497998772E+03 0.  0.
          2    1    1    2  501    0 -0.88361875131E+02 -0.30948092994E+02 -0.13168170525E+04  0.13201411876E+04  0.00000000000E+00 0. -1.
          1    1    1    2  502    0 -0.15168434816E+02  0.15626538921E+02  0.12594379902E+03  0.12781279531E+03  0.00000000000E+00 0. -1.
         22    1    3    3    0    0  0.12164575449E+03  0.42928544967E+02  0.19593041580E+02  0.13047772544E+03  0.00000000000E+00 0.  1.
         22    1    3    3    0    0 -0.18115444542E+02 -0.27606990893E+02 -0.40838032451E+01  0.33271500208E+02  0.00000000000E+00 0.  1.
</event>
<event>
 7    1  0.6089676E-006  0.7335965E+02  0.7818608E-02  0.1362865E+00
          2   -1    0    0  502    0  0.00000000000E+00  0.00000000000E+00  0.49789061357E+03  0.49789061357E+03  0.00000000000E+00 0. -1.
          1   -1    0    0  501    0 -0.00000000000E+00 -0.00000000000E+00 -0.94935668279E+02  0.94935668279E+02  0.00000000000E+00 0. -1.
         25    2    1    2    0    0  0.58252971210E+02 -0.84914666170E+02  0.13116109243E+03  0.20839967404E+03  0.12499313097E+03 0.  0.
          2    1    1    2  501    0 -0.63986083839E+02  0.12829180414E+02 -0.31618649571E+02  0.72515831347E+02  0.00000000000E+00 0. -1.
          1    1    1    2  502    0  0.57331126292E+01  0.72085485756E+02  0.30341250243E+03  0.31191077646E+03  0.00000000000E+00 0. -1.
         22    1    3    3    0    0  0.11814178484E+02 -0.10462537873E+03  0.11382496373E+03  0.15505536771E+03  0.00000000000E+00 0.  1.
         22    1    3    3    0    0  0.46438792726E+02  0.19710712565E+02  0.17336128697E+02  0.53344306330E+02  0.00000000000E+00 0.  1.
</event>
<event>
 7    1  0.6089676E-006  0.5660390E+02  0.7818608E-02  0.1430627E+00
          2   -1    0    0  502    0  0.00000000000E+00  0.00000000000E+00  0.16150021062E+04  0.16150021062E+04  0.00000000000E+00 0. -1.
          1   -1    0    0  501    0 -0.00000000000E+00 -0.00000000000E+00 -0.61578662012E+02  0.61578662012E+02  0.00000000000E+00 0. -1.
         25    2    1    2    0    0  0.28295003616E+02 -0.53689838409E+02  0.57789788380E+03  0.59436833954E+03  0.12499821186E+03 0.  0.
          2    1    1    2  501    0 -0.55623816716E+02  0.12638660800E+02 -0.37320989770E+02  0.68165981327E+02  0.00000000000E+00 0. -1.
          1    1    1    2  502    0  0.27328813100E+02  0.41051177609E+02  0.10128465502E+04  0.10140464474E+04  0.00000000000E+00 0. -1.
         22    1    3    3    0    0  0.53367079590E+02  0.21547951704E+02  0.19363277958E+03  0.20200498195E+03  0.00000000000E+00 0. -1.
         22    1    3    3    0    0 -0.25072075974E+02 -0.75237790113E+02  0.38426510422E+03  0.39236335758E+03  0.00000000000E+00 0. -1.
</event>
<event>
 7    1  0.6089676E-006  0.5570346E+02  0.7818608E-02  0.1538860E+00
          2   -1    0    0  502    0  0.00000000000E+00  0.00000000000E+00  0.19828375892E+04  0.19828375892E+04  0.00000000000E+00 0. -1.
          1   -1    0    0  501    0 -0.00000000000E+00 -0.00000000000E+00 -0.92832871285E+02  0.92832871285E+02  0.00000000000E+00 0. -1.
         25    2    1    2    0    0  0.22326131119E+02 -0.25096779713E+02  0.16174425820E+03  0.20715937774E+03  0.12500199294E+03 0.  0.
          2    1    1    2  501    0  0.20701868512E+02 -0.10958727363E+02 -0.67718430835E+02  0.71655055230E+02  0.00000000000E+00 0. -1.
          1    1    1    2  502    0 -0.43027999631E+02  0.36055507077E+02  0.17959788905E+04  0.17968560275E+04  0.00000000000E+00 0. -1.
         22    1    3    3    0    0  0.44115335716E+02  0.23499051123E+02  0.16785300484E+02  0.52726791684E+02  0.00000000000E+00 0.  1.
         22    1    3    3    0    0 -0.21789204597E+02 -0.48595830836E+02  0.14495895772E+03  0.15443258605E+03  0.00000000000E+00 0.  1.
</event>
<event>
 7    1  0.6089676E-006  0.1551207E+03  0.7818608E-02  0.1240361E+00
          2   -1    0    0  502    0  0.00000000000E+00  0.00000000000E+00  0.61339685576E+03  0.61339685576E+03  0.00000000000E+00 0. -1.
          1   -1    0    0  501    0 -0.00000000000E+00 -0.00000000000E+00 -0.17877565455E+04  0.17877565455E+04  0.00000000000E+00 0. -1.
         25    2    1    2    0    0  0.75989008248E+02 -0.29757459567E+02 -0.53576319786E+02  0.15860204171E+03  0.12499739924E+03 0.  0.
          2    1    1    2  501    0  0.88081816765E+02  0.36744877831E+02 -0.16682538528E+04  0.16709816007E+04  0.00000000000E+00 0. -1.
          1    1    1    2  502    0 -0.16407082501E+03 -0.69874182648E+01  0.54747048285E+03  0.57156975885E+03  0.00000000000E+00 0. -1.
         22    1    3    3    0    0 -0.71562671936E+01  0.33630594316E+02  0.10531538362E+02  0.35960288298E+02  0.00000000000E+00 0. -1.
         22    1    3    3    0    0  0.83145275442E+02 -0.63388053883E+02 -0.64107858148E+02  0.12264175341E+03  0.00000000000E+00 0. -1.
</event>
<event>
 7    1  0.6089676E-006  0.6873987E+02  0.7818608E-02  0.1463377E+00
          2   -1    0    0  502    0  0.00000000000E+00  0.00000000000E+00  0.21904902588E+03  0.21904902588E+03  0.00000000000E+00 0. -1.
          1   -1    0    0  501    0 -0.00000000000E+00 -0.00000000000E+00 -0.10028393522E+04  0.10028393522E+04  0.00000000000E+00 0. -1.
         25    2    1    2    0    0 -0.97184160322E+02 -0.14982633832E+02 -0.28088595368E+02  0.16150290848E+03  0.12499991970E+03 0.  0.
          2    1    1    2  501    0  0.31391304839E+02  0.55019414893E+01 -0.90049716914E+03  0.90106095077E+03  0.00000000000E+00 0. -1.
          1    1    1    2  502    0  0.65792855483E+02  0.94806923423E+01  0.14479543822E+03  0.15932451880E+03  0.00000000000E+00 0. -1.
         22    1    3    3    0    0 -0.10080446275E+03 -0.37673381953E+02  0.18839981842E+02  0.10925094202E+03  0.00000000000E+00 0. -1.
         22    1    3    3    0    0  0.36203024249E+01  0.22690748121E+02 -0.46928577210E+02  0.52251966460E+02  0.00000000000E+00 0. -1.
</event>
<event>
 7    1  0.6089676E-006  0.6134792E+02  0.7818608E-02  0.1400110E+00
          2   -1    0    0  502    0  0.00000000000E+00  0.00000000000E+00  0.65925471844E+03  0.65925471844E+03  0.00000000000E+00 0. -1.
          1   -1    0    0  501    0 -0.00000000000E+00 -0.00000000000E+00 -0.17077343616E+03  0.17077343616E+03  0.00000000000E+00 0. -1.
         25    2    1    2    0    0  0.98948365398E+02  0.23529804654E+02  0.20670460991E+02  0.16247203171E+03  0.12500184962E+03 0.  0.
          2    1    1    2  501    0 -0.43483937688E+02 -0.39184242302E+02 -0.89681129759E+02  0.10709324309E+03  0.00000000000E+00 0. -1.
          1    1    1    2  502    0 -0.55464427710E+02  0.15654437649E+02  0.55749195104E+03  0.56046287980E+03  0.00000000000E+00 0. -1.
         22    1    3    3    0    0  0.44727704949E+02  0.73241647076E+02  0.23092563846E+02  0.88871665683E+02  0.00000000000E+00 0. -1.
         22    1    3    3    0    0  0.54220660449E+02 -0.49711842422E+02 -0.24221028543E+01  0.73600366023E+02  0.00000000000E+00 0. -1.
</event>
<event>
 7    1  0.6089676E-006  0.7266409E+02  0.7818608E-02  0.1370305E+00
          2   -1    0    0  502    0  0.00000000000E+00  0.00000000000E+00  0.12698377260E+04  0.12698377260E+04  0.00000000000E+00 0. -1.
          1   -1    0    0  501    0 -0.00000000000E+00 -0.00000000000E+00 -0.50954693967E+02  0.50954693967E+02  0.00000000000E+00 0. -1.
         25    2    1    2    0    0  0.23552510598E+01  0.50596381788E+02  0.59455615722E+03  0.60966237421E+03  0.12500258150E+03 0.  0.
          2    1    1    2  501    0  0.61576516884E+02  0.66031851090E+01 -0.16897031307E+02  0.64193295228E+02  0.00000000000E+00 0. -1.
          1    1    1    2  502    0 -0.63931767944E+02 -0.57199566897E+02  0.64122390613E+03  0.64693675054E+03  0.00000000000E+00 0. -1.
         22    1    3    3    0    0 -0.28926776434E+01  0.35319356045E+02  0.34781096109E+02  0.49654296309E+02  0.00000000000E+00 0. -1.
         22    1    3    3    0    0  0.52479287032E+01  0.15277025742E+02  0.55977506111E+03  0.56000807790E+03  0.00000000000E+00 0. -1.
</event>
<event>
 7    1  0.6089676E-006  0.9951001E+02  0.7818608E-02  0.1412454E+00
          2   -1    0    0  502    0  0.00000000000E+00  0.00000000000E+00  0.26735874285E+04  0.26735874285E+04  0.00000000000E+00 0. -1.
          1   -1    0    0  501    0 -0.00000000000E+00 -0.00000000000E+00 -0.95685754715E+01  0.95685754715E+01  0.00000000000E+00 0. -1.
         25    2    1    2    0    0 -0.81962918973E+02 -0.12502279052E+02  0.99305155032E+03  0.10043160152E+04  0.12500019919E+03 0.  0.
          2    1    1    2  501    0  0.11420406642E+03  0.11747132538E+02  0.91344179173E+03  0.92062830218E+03  0.00000000000E+00 0. -1.
          1    1    1    2  502    0 -0.32241147449E+02  0.75514651382E+00  0.75752551094E+03  0.75821168651E+03  0.00000000000E+00 0. -1.
         22    1    3    3    0    0 -0.35584393268E+02 -0.63198992789E+02  0.33939723248E+03  0.34706028749E+03  0.00000000000E+00 0. -1.
         22    1    3    3    0    0 -0.46378525705E+02  0.50696713737E+02  0.65365431783E+03  0.65725572775E+03  0.00000000000E+00 0. -1.
</event>
<event>
 7    1  0.6089676E-006  0.7467751E+02  0.7818608E-02  0.1463692E+00
          2   -1    0    0  502    0  0.00000000000E+00  0.00000000000E+00  0.68669597335E+03  0.68669597335E+03  0.00000000000E+00 0. -1.
          1   -1    0    0  501    0 -0.00000000000E+00 -0.00000000000E+00 -0.76329019389E+02  0.76329019389E+02  0.00000000000E+00 0. -1.
         25    2    1    2    0    0 -0.34292641687E+02  0.35457351574E+02  0.41623734033E+03  0.43739199530E+03  0.12500010006E+03 0.  0.
          2    1    1    2  501    0  0.41255831720E+02 -0.63886013048E+02 -0.42554789858E+02  0.87145719653E+02  0.00000000000E+00 0. -1.
          1    1    1    2  502    0 -0.69631900327E+01  0.28428661474E+02  0.23668440348E+03  0.23848727778E+03  0.00000000000E+00 0. -1.
         22    1    3    3    0    0  0.42746127440E+02 -0.36718074823E+00  0.21059869806E+03  0.21489341045E+03  0.00000000000E+00 0. -1.
         22    1    3    3    0    0 -0.77038769127E+02  0.35824532322E+02  0.20563864228E+03  0.22249858485E+03  0.00000000000E+00 0. -1.
</event>
<event>
 7    1  0.6089676E-006  0.1556255E+03  0.7818608E-02  0.1344263E+00
          2   -1    0    0  502    0  0.00000000000E+00  0.00000000000E+00  0.50000131465E+03  0.50000131465E+03  0.00000000000E+00 0. -1.
          1   -1    0    0  501    0 -0.00000000000E+00 -0.00000000000E+00 -0.48542801580E+03  0.48542801580E+03  0.00000000000E+00 0. -1.
         25    2    1    2    0    0  0.40316406095E+02  0.16699031904E+03  0.92478857044E+02  0.23171613513E+03  0.12501539515E+03 0.  0.
          2    1    1    2  501    0 -0.64535086131E+02 -0.14032418402E+03 -0.40042908072E+03  0.42918422927E+03  0.00000000000E+00 0. -1.
          1    1    1    2  502    0  0.24218680037E+02 -0.26666135018E+02  0.32252352253E+03  0.32452896605E+03  0.00000000000E+00 0. -1.
         22    1    3    3    0    0  0.66734716906E+02  0.90236535534E+02  0.99834934692E+02  0.15021041565E+03  0.00000000000E+00 0.  1.
         22    1    3    3    0    0 -0.26418310811E+02  0.76753783505E+02 -0.73560776487E+01  0.81505719473E+02  0.00000000000E+00 0.  1.
</event>
<event>
 7    1  0.6089676E-006  0.5321699E+02  0.7818608E-02  0.1457476E+00
          2   -1    0    0  502    0  0.00000000000E+00  0.00000000000E+00  0.56422979998E+03  0.56422979998E+03  0.00000000000E+00 0. -1.
          1   -1    0    0  501    0 -0.00000000000E+00 -0.00000000000E+00 -0.35920807586E+03  0.35920807586E+03  0.00000000000E+00 0. -1.
         25    2    1    2    0    0  0.93995161819E+02 -0.94823333117E+01  0.42034029571E+02  0.16222596021E+03  0.12500158973E+03 0.  0.
          2    1    1    2  501    0 -0.51066510548E+02  0.11311496878E+02 -0.29581405979E+03  0.30040255730E+03  0.00000000000E+00 0. -1.
          1    1    1    2  502    0 -0.42928651272E+02 -0.18291635663E+01  0.45880175434E+03  0.46080935833E+03  0.00000000000E+00 0. -1.
         22    1    3    3    0    0  0.10721167986E+03 -0.26112603113E+02 -0.51653169567E+01  0.11046670466E+03  0.00000000000E+00 0.  1.
         22    1    3    3    0    0 -0.13216518040E+02  0.16630269801E+02  0.47199346527E+02  0.51759255553E+02  0.00000000000E+00 0.  1.
</event>
<event>
 7    1  0.6089676E-006  0.1049870E+03  0.7818608E-02  0.1323645E+00
          2   -1    0    0  502    0  0.00000000000E+00  0.00000000000E+00  0.57124089110E+03  0.57124089110E+03  0.00000000000E+00 0. -1.
          1   -1    0    0  501    0 -0.00000000000E+00 -0.00000000000E+00 -0.11587428480E+03  0.11587428480E+03  0.00000000000E+00 0. -1.
         25    2    1    2    0    0 -0.13142961386E+02 -0.49381241971E+02  0.18436691012E+03  0.22852465351E+03  0.12498445993E+03 0.  0.
          2    1    1    2  501    0  0.41649941396E+02  0.10662162535E+03 -0.54563151629E+02  0.12680704289E+03  0.00000000000E+00 0. -1.
          1    1    1    2  502    0 -0.28506980011E+02 -0.57240383381E+02  0.32556284780E+03  0.33178347950E+03  0.00000000000E+00 0. -1.
         22    1    3    3    0    0 -0.61211771432E+02 -0.57095751262E+02  0.13732776054E+03  0.16082823007E+03  0.00000000000E+00 0. -1.
         22    1    3    3    0    0  0.48068810047E+02  0.77145092906E+01  0.47039149576E+02  0.67696423434E+02  0.00000000000E+00 0. -1.
</event>
<event>
 7    1  0.6089676E-006  0.5814232E+02  0.7818608E-02  0.1434242E+00
          2   -1    0    0  502    0  0.00000000000E+00  0.00000000000E+00  0.72092687763E+02  0.72092687763E+02  0.00000000000E+00 0. -1.
          1   -1    0    0  501    0 -0.00000000000E+00 -0.00000000000E+00 -0.69689435443E+03  0.69689435443E+03  0.00000000000E+00 0. -1.
         25    2    1    2    0    0  0.74747628888E+02  0.34295548504E+02 -0.32608286985E+03  0.35877961692E+03  0.12501753011E+03 0.  0.
          2    1    1    2  501    0 -0.17797184484E+02 -0.43194850160E+02 -0.33751041605E+03  0.34072836072E+03  0.00000000000E+00 0. -1.
          1    1    1    2  502    0 -0.56950444404E+02  0.88993016560E+01  0.38791619238E+02  0.69479064551E+02  0.00000000000E+00 0. -1.
         22    1    3    3    0    0  0.47315682958E+02  0.44901903198E+01 -0.31244282651E+03  0.31603711095E+03  0.00000000000E+00 0.  1.
         22    1    3    3    0    0  0.27431945930E+02  0.29805358184E+02 -0.13640043344E+02  0.42742505968E+02  0.00000000000E+00 0.  1.
</event>
<event>
 7    1  0.6089676E-006  0.7467778E+02  0.7818608E-02  0.1463867E+00
          2   -1    0    0  502    0  0.00000000000E+00  0.00000000000E+00  0.15780549130E+04  0.15780549130E+04  0.00000000000E+00 0. -1.
          1   -1    0    0  501    0 -0.00000000000E+00 -0.00000000000E+00 -0.22010769581E+03  0.22010769581E+03  0.00000000000E+00 0. -1.
         25    2    1    2    0    0 -0.91558253480E+02 -0.27106960321E+02  0.10796630161E+03  0.19078547320E+03  0.12499869368E+03 0.  0.
          2    1    1    2  501    0  0.27379764263E+02 -0.10239976419E+02 -0.17653051865E+03  0.17893443666E+03  0.00000000000E+00 0. -1.
          1    1    1    2  502    0  0.64178489217E+02  0.37346936740E+02  0.14265114342E+04  0.14284426989E+04  0.00000000000E+00 0. -1.
         22    1    3    3    0    0 -0.64918457842E+02  0.41367185458E+02  0.82961147200E+02  0.11317332789E+03  0.00000000000E+00 0. -1.
         22    1    3    3    0    0 -0.26639795639E+02 -0.68474145778E+02  0.25005154409E+02  0.77612145305E+02  0.00000000000E+00 0. -1.
</event>
<event>
 7    1  0.6089676E-006  0.7231418E+02  0.7818608E-02  0.1369661E+00
          2   -1    0    0  502    0  0.00000000000E+00  0.00000000000E+00  0.21434113289E+04  0.21434113289E+04  0.00000000000E+00 0. -1.
          1   -1    0    0  501    0 -0.00000000000E+00 -0.00000000000E+00 -0.75502204102E+03  0.75502204102E+03  0.00000000000E+00 0. -1.
         25    2    1    2    0    0  0.36912497438E+02 -0.11623280420E+03  0.26480011646E+03  0.31720041406E+03  0.12499761503E+03 0.  0.
          2    1    1    2  501    0 -0.47142457748E+02  0.54513114262E+02 -0.72651018947E+03  0.73007612367E+03  0.00000000000E+00 0. -1.
          1    1    1    2  502    0  0.10229960310E+02  0.61719689936E+02  0.18500993608E+04  0.18511568321E+04  0.00000000000E+00 0. -1.
         22    1    3    3    0    0  0.24884455882E+02 -0.55159217922E+02  0.18679116540E+02  0.63329968112E+02  0.00000000000E+00 0.  1.
         22    1    3    3    0    0  0.12028041556E+02 -0.61073586276E+02  0.24612099992E+03  0.25387044595E+03  0.00000000000E+00 0.  1.
</event>
<event>
 7    1  0.6089676E-006  0.1072617E+03  0.7818608E-02  0.1395987E+00
          2   -1    0    0  502    0  0.00000000000E+00  0.00000000000E+00  0.33520755983E+03  0.33520755983E+03  0.00000000000E+00 0. -1.
          1   -1    0    0  501    0 -0.00000000000E+00 -0.00000000000E+00 -0.55450000796E+03  0.55450000796E+03  0.00000000000E+00 0. -1.
         25    2    1    2    0    0 -0.53539064785E+02 -0.54130220634E+02  0.95204483921E+01  0.14667052010E+03  0.12500036114E+03 0.  0.
          2    1    1    2  501    0  0.81723282918E+02  0.73252192820E+02 -0.47855763333E+03  0.49098063826E+03  0.00000000000E+00 0. -1.
          1    1    1    2  502    0 -0.28184218133E+02 -0.19121972185E+02  0.24974473681E+03  0.25205640943E+03  0.00000000000E+00 0. -1.
         22    1    3    3    0    0 -0.50997357230E+02 -0.92500258407E+02  0.18367232098E+02  0.10721186252E+03  0.00000000000E+00 0.  1.
         22    1    3    3    0    0 -0.25417075550E+01  0.38370037773E+02 -0.88467837057E+01  0.39458657579E+02  0.00000000000E+00 0.  1.
</event>
<event>
 7    1  0.6089676E-006  0.3538632E+02  0.7818608E-02  0.1604352E+00
          2   -1    0    0  502    0  0.00000000000E+00  0.00000000000E+00  0.65717879725E+03  0.65717879725E+03  0.00000000000E+00 0. -1.
          1   -1    0    0  501    0 -0.00000000000E+00 -0.00000000000E+00 -0.41759235813E+03  0.41759235813E+03  0.00000000000E+00 0. -1.
         25    2    1    2    0    0 -0.56618894064E+02  0.23935619088E+01  0.12679968880E+02  0.13783051655E+03  0.12500016551E+03 0.  0.
          2    1    1    2  501    0  0.23053012561E+02  0.82785970746E+01 -0.35406060439E+03  0.35490687249E+03  0.00000000000E+00 0. -1.
          1    1    1    2  502    0  0.33565881503E+02 -0.10672158983E+02  0.58096707463E+03  0.58203376636E+03  0.00000000000E+00 0. -1.
         22    1    3    3    0    0 -0.78579683310E+02  0.43871097187E+02  0.38826967896E+01  0.90080603527E+02  0.00000000000E+00 0.  1.
         22    1    3    3    0    0  0.21960789246E+02 -0.41477535278E+02  0.87972720906E+01  0.47749913018E+02  0.00000000000E+00 0.  1.
</event>
<event>
 7    1  0.6089676E-006  0.1989963E+03  0.7818608E-02  0.1286337E+00
          2   -1    0    0  502    0  0.00000000000E+00  0.00000000000E+00  0.11713451279E+04  0.11713451279E+04  0.00000000000E+00 0. -1.
          1   -1    0    0  501    0 -0.00000000000E+00 -0.00000000000E+00 -0.34783551479E+03  0.34783551479E+03  0.00000000000E+00 0. -1.
         25    2    1    2    0    0 -0.70590713782E+02 -0.14778838320E+03  0.12032042226E+03  0.23859125294E+03  0.12499730751E+03 0.  0.
          2    1    1    2  501    0 -0.40077038136E+02 -0.25421375566E+02 -0.27600436387E+03  0.28005503780E+03  0.00000000000E+00 0. -1.
          1    1    1    2  502    0  0.11066775192E+03  0.17320975877E+03  0.97919355470E+03  0.10005343519E+04  0.00000000000E+00 0. -1.
         22    1    3    3    0    0 -0.84438772728E+02 -0.16012242631E+03  0.12434503816E+03  0.21961508660E+03  0.00000000000E+00 0. -1.
         22    1    3    3    0    0  0.13848058946E+02  0.12334043103E+02 -0.40246159034E+01  0.18976166341E+02  0.00000000000E+00 0. -1.
</event>
<event>
 7    1  0.6089676E-006  0.1345916E+03  0.7818608E-02  0.1273170E+00
          2   -1    0    0  502    0  0.00000000000E+00  0.00000000000E+00  0.21656695449E+03  0.21656695449E+03  0.00000000000E+00 0. -1.
          1   -1    0    0  501    0 -0.00000000000E+00 -0.00000000000E+00 -0.25929933341E+04  0.25929933341E+04  0.00000000000E+00 0. -1.
         25    2    1    2    0    0 -0.99603345785E+02  0.16462658044E+03 -0.95503624336E+03  0.98221280952E+03  0.12500015829E+03 0.  0.
          2    1    1    2  501    0  0.71895725731E+02 -0.34022546508E+02 -0.16013199913E+04  0.16032941850E+04  0.00000000000E+00 0. -1.
          1    1    1    2  502    0  0.27707620053E+02 -0.13060403393E+03  0.17992985501E+03  0.22405329413E+03  0.00000000000E+00 0. -1.
         22    1    3    3    0    0 -0.10179023150E+03  0.51409379915E+02 -0.54665005368E+03  0.55841781559E+03  0.00000000000E+00 0.  1.
         22    1    3    3    0    0  0.21868857166E+01  0.11321720052E+03 -0.40838618967E+03  0.42379499393E+03  0.00000000000E+00 0.  1.
</event>
<event>
 7    1  0.6089676E-006  0.1111161E+03  0.7818608E-02  0.1272185E+00
          2   -1    0    0  502    0  0.00000000000E+00  0.00000000000E+00  0.75139199972E+03  0.75139199972E+03  0.00000000000E+00 0. -1.
          1   -1    0    0  501    0 -0.00000000000E+00 -0.00000000000E+00 -0.20806966207E+03  0.20806966207E+03  0.00000000000E+00 0. -1.
         25    2    1    2    0    0  0.60428860965E+02  0.73323578405E+02 -0.87812374848E+02  0.17989980586E+03  0.12499973034E+03 0.  0.
          2    1    1    2  501    0 -0.13010850002E+03  0.13230023163E+02 -0.78242116787E+01  0.13101325726E+03  0.00000000000E+00 0. -1.
          1    1    1    2  502    0  0.69679639052E+02 -0.86553601569E+02  0.63895892418E+03  0.64854859867E+03  0.00000000000E+00 0. -1.
         22    1    3    3    0    0  0.40273259163E+02  0.93189104303E+02 -0.10559214601E+03  0.14647814125E+03  0.00000000000E+00 0. -1.
         22    1    3    3    0    0  0.20155601802E+02 -0.19865525897E+02  0.17779771162E+02  0.33421664617E+02  0.00000000000E+00 0. -1.
</event>
<event>
 7    1  0.6089676E-006  0.1011555E+03  0.7818608E-02  0.1383237E+00
          2   -1    0    0  502    0  0.00000000000E+00  0.00000000000E+00  0.18513920962E+04  0.18513920962E+04  0.00000000000E+00 0. -1.
          1   -1    0    0  501    0 -0.00000000000E+00 -0.00000000000E+00 -0.53941287914E+03  0.53941287914E+03  0.00000000000E+00 0. -1.
         25    2    1    2    0    0 -0.12448371487E+03 -0.16057791685E+02  0.35435493993E+03  0.39616469500E+03  0.12499997666E+03 0.  0.
          2    1    1    2  501    0  0.92556415652E+02  0.40176777440E+02 -0.51332462822E+03  0.52314724262E+03  0.00000000000E+00 0. -1.
          1    1    1    2  502    0  0.31927299221E+02 -0.24118985755E+02  0.14709489053E+04  0.14714930377E+04  0.00000000000E+00 0. -1.
         22    1    3    3    0    0  0.18581166496E+02 -0.15280683140E+02  0.11351346035E+03  0.11603475646E+03  0.00000000000E+00 0. -1.
         22    1    3    3    0    0 -0.14306488137E+03 -0.77710854549E+00  0.24084147958E+03  0.28012993854E+03  0.00000000000E+00 0. -1.
</event>
<event>
 7    1  0.6089676E-006  0.7502610E+02  0.7818608E-02  0.1346940E+00
          2   -1    0    0  502    0  0.00000000000E+00  0.00000000000E+00  0.17476938216E+04  0.17476938216E+04  0.00000000000E+00 0. -1.
          1   -1    0    0  501    0 -0.00000000000E+00 -0.00000000000E+00 -0.17924582649E+03  0.17924582649E+03  0.00000000000E+00 0. -1.
         25    2    1    2    0    0  0.11164340557E+03 -0.17112709398E+02  0.47247214206E+03  0.50160947666E+03  0.12500018889E+03 0.  0.
          2    1    1    2  501    0 -0.62356886815E+02 -0.38000187167E+02 -0.15543680403E+03  0.17173524858E+03  0.00000000000E+00 0. -1.
          1    1    1    2  502    0 -0.49286518752E+02  0.55112896565E+02  0.12514126571E+04  0.12535949228E+04  0.00000000000E+00 0. -1.
         22    1    3    3    0    0 -0.50643069632E+01  0.40506971398E+01 -0.58906998986E+01  0.87610329089E+01  0.00000000000E+00 0.  1.
         22    1    3    3    0    0  0.11670771253E+03 -0.21163406538E+02  0.47836284196E+03  0.49284844375E+03  0.00000000000E+00 0.  1.
</event>
<event>
 7    1  0.6089676E-006  0.7668477E+02  0.7818608E-02  0.1402480E+00
          2   -1    0    0  502    0  0.00000000000E+00  0.00000000000E+00  0.46788301380E+03  0.46788301380E+03  0.00000000000E+00 0. -1.
          1   -1    0    0  501    0 -0.00000000000E+00 -0.00000000000E+00 -0.32847388910E+03  0.32847388910E+03  0.00000000000E+00 0. -1.
         25    2    1    2    0    0 -0.67861168137E+02  0.30603208135E+02  0.23058446452E+03  0.27264627935E+03  0.12500041549E+03 0.  0.
          2    1    1    2  501    0  0.75702975567E+02  0.13961707864E+02 -0.30016479195E+03  0.30987864096E+03  0.00000000000E+00 0. -1.
          1    1    1    2  502    0 -0.78418074301E+01 -0.44564915999E+02  0.20898945212E+03  0.21383198259E+03  0.00000000000E+00 0. -1.
         22    1    3    3    0    0  0.18162383680E+02 -0.31004938523E+02  0.88302191421E+02  0.95333390811E+02  0.00000000000E+00 0.  1.
         22    1    3    3    0    0 -0.86023551816E+02  0.61608146659E+02  0.14228227310E+03  0.17731288854E+03  0.00000000000E+00 0.  1.
</event>
<event>
 7    1  0.6089676E-006  0.4606970E+02  0.7818608E-02  0.1560631E+00
          2   -1    0    0  502    0  0.00000000000E+00  0.00000000000E+00  0.15365822628E+03  0.15365822628E+03  0.00000000000E+00 0. -1.
          1   -1    0    0  501    0 -0.00000000000E+00 -0.00000000000E+00 -0.20151545567E+03  0.20151545567E+03  0.00000000000E+00 0. -1.
         25    2    1    2    0    0 -0.44267558642E+02 -0.53662781172E+02 -0.13550708389E+03  0.19704405428E+03  0.12499951485E+03 0.  0.
          2    1    1    2  501    0  0.12328030552E+02  0.21316315909E+02 -0.25948968993E+02  0.35773099572E+02  0.00000000000E+00 0. -1.
          1    1    1    2  502    0  0.31939528090E+02  0.32346465263E+02  0.11359882349E+03  0.12235652810E+03  0.00000000000E+00 0. -1.
         22    1    3    3    0    0 -0.84465868391E+01 -0.53269986170E+02 -0.14923359775E+03  0.15868113610E+03  0.00000000000E+00 0.  1.
         22    1    3    3    0    0 -0.35820971803E+02 -0.39279500232E+00  0.13726513861E+02  0.38362918184E+02  0.00000000000E+00 0.  1.
</event>
<event>
 7    1  0.6089676E-006  0.9785306E+02  0.7818608E-02  0.1287564E+00
          2   -1    0    0  502    0  0.00000000000E+00  0.00000000000E+00  0.22844234562E+04  0.22844234562E+04  0.00000000000E+00 0. -1.
          1   -1    0    0  501    0 -0.00000000000E+00 -0.00000000000E+00 -0.77608897412E+02  0.77608897412E+02  0.00000000000E+00 0. -1.
         25    2    1    2    0    0 -0.13547245456E+03 -0.48517183912E+02  0.20741671065E+03  0.28169700892E+03  0.12499923958E+03 0.  0.
          2    1    1    2  501    0  0.88082705305E+02 -0.36657801728E+02  0.18676420379E+02  0.97217107957E+02  0.00000000000E+00 0. -1.
          1    1    1    2  502    0  0.47389749250E+02  0.85174985640E+02  0.19807214277E+04  0.19831182367E+04  0.00000000000E+00 0. -1.
         22    1    3    3    0    0 -0.12207520675E+03 -0.23339129727E+02  0.72685172457E+02  0.14397987837E+03  0.00000000000E+00 0.  1.
         22    1    3    3    0    0 -0.13397247801E+02 -0.25178054185E+02  0.13473153820E+03  0.13771713055E+03  0.00000000000E+00 0.  1.
</event>
<event>
 7    1  0.6089676E-006  0.1003348E+03  0.7818608E-02  0.1377616E+00
          2   -1    0    0  502    0  0.00000000000E+00  0.00000000000E+00  0.61486412970E+03  0.61486412970E+03  0.00000000000E+00 0. -1.
          1   -1    0    0  501    0 -0.00000000000E+00 -0.00000000000E+00 -0.98101538237E+02  0.98101538237E+02  0.00000000000E+00 0. -1.
         25    2    1    2    0    0 -0.55037938080E+02 -0.86606161753E+02  0.18737503347E+03  0.24751825667E+03  0.12500432928E+03 0.  0.
          2    1    1    2  501    0  0.15031864703E+02  0.10013498218E+03 -0.28409298098E+02  0.10516681906E+03  0.00000000000E+00 0. -1.
          1    1    1    2  502    0  0.40006073377E+02 -0.13528820428E+02  0.35779685609E+03  0.36028059220E+03  0.00000000000E+00 0. -1.
         22    1    3    3    0    0 -0.46481557705E+02  0.10610298147E+02  0.11945346153E+03  0.12861665175E+03  0.00000000000E+00 0.  1.
         22    1    3    3    0    0 -0.85563803743E+01 -0.97216459900E+02  0.67921571935E+02  0.11890160493E+03  0.00000000000E+00 0.  1.
</event>
<event>
 7    1  0.6089676E-006  0.5469596E+02  0.7818608E-02  0.1474706E+00
          2   -1    0    0  502    0  0.00000000000E+00  0.00000000000E+00  0.49582512680E+03  0.49582512680E+03  0.00000000000E+00 0. -1.
          1   -1    0    0  501    0 -0.00000000000E+00 -0.00000000000E+00 -0.79304282701E+02  0.79304282701E+02  0.00000000000E+00 0. -1.
         25    2    1    2    0    0  0.43618717273E+02  0.22638890419E+02  0.32923489145E+02  0.13829042396E+03  0.12500069346E+03 0.  0.
          2    1    1    2  501    0 -0.23156549930E+02  0.28764144180E+02 -0.10883376843E+02  0.38497398439E+02  0.00000000000E+00 0. -1.
          1    1    1    2  502    0 -0.20462167343E+02 -0.51403034599E+02  0.39448073180E+03  0.39834158711E+03  0.00000000000E+00 0. -1.
         22    1    3    3    0    0  0.35002105092E+02  0.54249688199E+02 -0.27011732136E+02  0.69984353277E+02  0.00000000000E+00 0. -1.
         22    1    3    3    0    0  0.86166121805E+01 -0.31610797780E+02  0.59935221281E+02  0.68306070680E+02  0.00000000000E+00 0. -1.
</event>
<event>
 7    1  0.6089676E-006  0.1497799E+03  0.7818608E-02  0.1206762E+00
          2   -1    0    0  502    0  0.00000000000E+00  0.00000000000E+00  0.41816370296E+03  0.41816370296E+03  0.00000000000E+00 0. -1.
          1   -1    0    0  501    0 -0.00000000000E+00 -0.00000000000E+00 -0.52170226908E+03  0.52170226908E+03  0.00000000000E+00 0. -1.
         25    2    1    2    0    0 -0.14901956070E+03 -0.10084906688E+03  0.64024041810E+02  0.22825804234E+03  0.12500116879E+03 0.  0.
          2    1    1    2  501    0  0.14708587783E+03 -0.39500076558E+02 -0.40672233749E+03  0.43430124489E+03  0.00000000000E+00 0. -1.
          1    1    1    2  502    0  0.19336828728E+01  0.14034914344E+03  0.23915972956E+03  0.27730668481E+03  0.00000000000E+00 0. -1.
         22    1    3    3    0    0 -0.12151000600E+03 -0.12908524184E+03  0.38854064312E+02  0.18148641693E+03  0.00000000000E+00 0.  1.
         22    1    3    3    0    0 -0.27509554700E+02  0.28236174952E+02  0.25169977498E+02  0.46771625405E+02  0.00000000000E+00 0.  1.
</event>
<event>
 7    1  0.6089676E-006  0.1003307E+03  0.7818608E-02  0.1335556E+00
          2   -1    0    0  502    0  0.00000000000E+00  0.00000000000E+00  0.35271200679E+03  0.35271200679E+03  0.00000000000E+00 0. -1.
          1   -1    0    0  501    0 -0.00000000000E+00 -0.00000000000E+00 -0.92930073894E+02  0.92930073894E+02  0.00000000000E+00 0. -1.
         25    2    1    2    0    0  0.53963390097E+02  0.27494695158E+02  0.96925387526E+02  0.16937386584E+03  0.12499987980E+03 0.  0.
          2    1    1    2  501    0  0.54679816045E+02  0.25310736027E+02 -0.14224442987E+02  0.61910018731E+02  0.00000000000E+00 0. -1.
          1    1    1    2  502    0 -0.10864320614E+03 -0.52805431185E+02  0.17708098836E+03  0.21435819611E+03  0.00000000000E+00 0. -1.
         22    1    3    3    0    0  0.21831270168E+02  0.48178045105E+02 -0.11743773326E+02  0.54181589117E+02  0.00000000000E+00 0. -1.
         22    1    3    3    0    0  0.32132119929E+02 -0.20683349947E+02  0.10866916085E+03  0.11519227672E+03  0.00000000000E+00 0. -1.
</event>
<event>
 7    1  0.6089676E-006  0.1278311E+03  0.7818608E-02  0.1231621E+00
          2   -1    0    0  502    0  0.00000000000E+00  0.00000000000E+00  0.22046425307E+03  0.22046425307E+03  0.00000000000E+00 0. -1.
          1   -1    0    0  501    0 -0.00000000000E+00 -0.00000000000E+00 -0.10153844423E+04  0.10153844423E+04  0.00000000000E+00 0. -1.
         25    2    1    2    0    0  0.11237974415E+03 -0.13995689979E+03 -0.40355126699E+03  0.45901484838E+03  0.12499546092E+03 0.  0.
          2    1    1    2  501    0  0.14541105445E+02  0.12579841216E+03 -0.55500092945E+03  0.56926506650E+03  0.00000000000E+00 0. -1.
          1    1    1    2  502    0 -0.12692084960E+03  0.14158487631E+02  0.16363200724E+03  0.20756878047E+03  0.00000000000E+00 0. -1.
         22    1    3    3    0    0  0.36647022877E+01 -0.73436414942E+02 -0.24382881491E+03  0.25467396424E+03  0.00000000000E+00 0.  1.
         22    1    3    3    0    0  0.10871504186E+03 -0.66520484850E+02 -0.15972245208E+03  0.20434088414E+03  0.00000000000E+00 0.  1.
</event>
<event>
 7    1  0.6089676E-006  0.2023851E+03  0.7818608E-02  0.1179340E+00
          2   -1    0    0  502    0  0.00000000000E+00  0.00000000000E+00  0.25367137550E+04  0.25367137550E+04  0.00000000000E+00 0. -1.
          1   -1    0    0  501    0 -0.00000000000E+00 -0.00000000000E+00 -0.69326112988E+03  0.69326112988E+03  0.00000000000E+00 0. -1.
         25    2    1    2    0    0  0.25005039453E+03  0.35475511180E+02  0.90492128170E+03  0.94778209875E+03  0.12499867570E+03 0.  0.
          2    1    1    2  501    0 -0.15078300310E+03 -0.13478745524E+03 -0.65344931511E+03  0.68403156325E+03  0.00000000000E+00 0. -1.
          1    1    1    2  502    0 -0.99267391428E+02  0.99311944061E+02  0.15919806585E+04  0.15981612229E+04  0.00000000000E+00 0. -1.
         22    1    3    3    0    0  0.21702762530E+03  0.47624492470E+02  0.87104870636E+03  0.89894100545E+03  0.00000000000E+00 0.  1.
         22    1    3    3    0    0  0.33022769234E+02 -0.12148981290E+02  0.33872575345E+02  0.48841093300E+02  0.00000000000E+00 0.  1.
</event>
<event>
 7    1  0.6089676E-006  0.5142747E+02  0.7818608E-02  0.1561737E+00
          2   -1    0    0  502    0  0.00000000000E+00  0.00000000000E+00  0.11628349199E+04  0.11628349199E+04  0.00000000000E+00 0. -1.
          1   -1    0    0  501    0 -0.00000000000E+00 -0.00000000000E+00 -0.23433277619E+03  0.23433277619E+03  0.00000000000E+00 0. -1.
         25    2    1    2    0    0  0.69881457993E+02  0.15721577694E+02  0.10272694451E+03  0.17693748560E+03  0.12499384987E+03 0.  0.
          2    1    1    2  501    0 -0.48018108730E+02 -0.17074230293E+02 -0.19381567686E+03  0.20040405361E+03  0.00000000000E+00 0. -1.
          1    1    1    2  502    0 -0.21863349263E+02  0.13526525986E+01  0.10195908761E+04  0.10198261569E+04  0.00000000000E+00 0. -1.
         22    1    3    3    0    0  0.80642623394E+01 -0.34271263084E+02 -0.12139675347E+02  0.37241422073E+02  0.00000000000E+00 0.  1.
         22    1    3    3    0    0  0.61817195653E+02  0.49992840779E+02  0.11486661986E+03  0.13969606353E+03  0.00000000000E+00 0.  1.
</event>
<event>
 7    1  0.6089676E-006  0.7136511E+02  0.7818608E-02  0.1368449E+00
          2   -1    0    0  502    0  0.00000000000E+00  0.00000000000E+00  0.49829458290E+03  0.49829458290E+03  0.00000000000E+00 0. -1.
          1   -1    0    0  501    0 -0.00000000000E+00 -0.00000000000E+00 -0.41399631076E+03  0.41399631076E+03  0.00000000000E+00 0. -1.
         25    2    1    2    0    0 -0.19848620453E+02 -0.71127548186E+02  0.33571523327E+02  0.14901231578E+03  0.12499810890E+03 0.  0.
          2    1    1    2  501    0 -0.47308846546E+02  0.43153582784E+02 -0.35009762490E+03  0.35590547289E+03  0.00000000000E+00 0. -1.
          1    1    1    2  502    0  0.67157466999E+02  0.27973965401E+02  0.40082437371E+03  0.40737310500E+03  0.00000000000E+00 0. -1.
         22    1    3    3    0    0 -0.66027965493E+02 -0.47022570842E+02  0.48954844881E+02  0.94696310557E+02  0.00000000000E+00 0. -1.
         22    1    3    3    0    0  0.46179345040E+02 -0.24104977343E+02 -0.15383321554E+02  0.54316005220E+02  0.00000000000E+00 0. -1.
</event>
<event>
 7    1  0.6089676E-006  0.7088193E+02  0.7818608E-02  0.1382981E+00
          2   -1    0    0  502    0  0.00000000000E+00  0.00000000000E+00  0.21031801677E+04  0.21031801677E+04  0.00000000000E+00 0. -1.
          1   -1    0    0  501    0 -0.00000000000E+00 -0.00000000000E+00 -0.41482650289E+02  0.41482650289E+02  0.00000000000E+00 0. -1.
         25    2    1    2    0    0 -0.60363786895E+02  0.39421221809E+02  0.60692148306E+03  0.62384266880E+03  0.12501267660E+03 0.  0.
          2    1    1    2  501    0  0.12697328775E+02 -0.71079394170E+02  0.77008962202E+01  0.72614091168E+02  0.00000000000E+00 0. -1.
          1    1    1    2  502    0  0.47666458120E+02  0.31658172361E+02  0.14470751381E+04  0.14482060580E+04  0.00000000000E+00 0. -1.
         22    1    3    3    0    0 -0.17173100652E+02 -0.40516247708E+02  0.10639614812E+03  0.11513740508E+03  0.00000000000E+00 0.  1.
         22    1    3    3    0    0 -0.43190686243E+02  0.79937469517E+02  0.50052533494E+03  0.50870526371E+03  0.00000000000E+00 0.  1.
</event>
<event>
 7    1  0.6089676E-006  0.1216487E+03  0.7818608E-02  0.1256450E+00
          2   -1    0    0  502    0  0.00000000000E+00  0.00000000000E+00  0.20556662384E+03  0.20556662384E+03  0.00000000000E+00 0. -1.
          1   -1    0    0  501    0 -0.00000000000E+00 -0.00000000000E+00 -0.68078143191E+03  0.68078143191E+03  0.00000000000E+00 0. -1.
         25    2    1    2    0    0 -0.87868300360E+01 -0.97732245779E+01 -0.56734645134E+02  0.13789982180E+03  0.12499926638E+03 0.  0.
          2    1    1    2  501    0  0.29172777520E+02 -0.11809895179E+03 -0.55034949548E+03  0.56363372907E+03  0.00000000000E+00 0. -1.
          1    1    1    2  502    0 -0.20385947484E+02  0.12787217637E+03  0.13186933256E+03  0.18481450488E+03  0.00000000000E+00 0. -1.
         22    1    3    3    0    0 -0.41809130663E+02 -0.10703088808E+02  0.24906180436E+02  0.49828479213E+02  0.00000000000E+00 0.  1.
         22    1    3    3    0    0  0.33022300627E+02  0.92986423059E+00 -0.81640825570E+02  0.88071342591E+02  0.00000000000E+00 0.  1.
</event>
<event>
 7    1  0.6089676E-006  0.1725189E+03  0.7818608E-02  0.1349527E+00
          2   -1    0    0  502    0  0.00000000000E+00  0.00000000000E+00  0.72811430911E+03  0.72811430911E+03  0.00000000000E+00 0. -1.
          1   -1    0    0  501    0 -0.00000000000E+00 -0.00000000000E+00 -0.56792227019E+03  0.56792227019E+03  0.00000000000E+00 0. -1.
         25    2    1    2    0    0  0.33812706851E+02 -0.19628513928E+03  0.71984691699E+02  0.24592165397E+03  0.12499803602E+03 0.  0.
          2    1    1    2  501    0 -0.10617939061E+02  0.29190356393E+02 -0.46792729606E+03  0.46895711098E+03  0.00000000000E+00 0. -1.
          1    1    1    2  502    0 -0.23194767790E+02  0.16709478289E+03  0.55613464328E+03  0.58115781435E+03  0.00000000000E+00 0. -1.
         22    1    3    3    0    0  0.71326085873E+02 -0.58571493390E+02  0.24352257847E+02  0.95451887494E+02  0.00000000000E+00 0.  1.
         22    1    3    3    0    0 -0.37513379022E+02 -0.13771364589E+03  0.47632433852E+02  0.15046976648E+03  0.00000000000E+00 0.  1.
</event>
<event>
 7    1  0.6089676E-006  0.4479328E+02  0.7818608E-02  0.1519797E+00
          2   -1    0    0  502    0  0.00000000000E+00  0.00000000000E+00  0.21013680361E+04  0.21013680361E+04  0.00000000000E+00 0. -1.
          1   -1    0    0  501    0 -0.00000000000E+00 -0.00000000000E+00 -0.46545196193E+02  0.46545196193E+02  0.00000000000E+00 0. -1.
         25    2    1    2    0    0  0.56862210327E+02 -0.13671583850E+02  0.10293124991E+04  0.10385231311E+04  0.12500339920E+03 0.  0.
          2    1    1    2  501    0 -0.30131906495E+02  0.33084964482E+02 -0.29670321974E+02  0.53692407934E+02  0.00000000000E+00 0. -1.
          1    1    1    2  502    0 -0.26730303832E+02 -0.19413380632E+02  0.10551806628E+04  0.10556976933E+04  0.00000000000E+00 0. -1.
         22    1    3    3    0    0  0.84496628960E+02  0.21205048420E+02  0.81480573869E+03  0.81944964835E+03  0.00000000000E+00 0.  1.
         22    1    3    3    0    0 -0.27634418633E+02 -0.34876632270E+02  0.21450676044E+03  0.21907348276E+03  0.00000000000E+00 0.  1.
</event>
<event>
 7    1  0.6089676E-006  0.1066256E+03  0.7818608E-02  0.1332133E+00
          2   -1    0    0  502    0  0.00000000000E+00  0.00000000000E+00  0.91165829158E+02  0.91165829158E+02  0.00000000000E+00 0. -1.
          1   -1    0    0  501    0 -0.00000000000E+00 -0.00000000000E+00 -0.12595549316E+04  0.12595549316E+04  0.00000000000E+00 0. -1.
         25    2    1    2    0    0  0.41469307326E+02  0.77078431868E+02 -0.15482477945E+03  0.21738600173E+03  0.12500069323E+03 0.  0.
          2    1    1    2  501    0 -0.44257433988E+02  0.38132823623E+02 -0.10163778972E+04  0.10180554320E+04  0.00000000000E+00 0. -1.
          1    1    1    2  502    0  0.27881266621E+01 -0.11521125549E+03  0.28135741994E+01  0.11527932704E+03  0.00000000000E+00 0. -1.
         22    1    3    3    0    0 -0.20688062861E+02  0.28416684660E+02  0.83426363030E+01  0.36126216138E+02  0.00000000000E+00 0.  1.
         22    1    3    3    0    0  0.62157370187E+02  0.48661747209E+02 -0.16316741575E+03  0.18125978559E+03  0.00000000000E+00 0.  1.
</event>
<event>
 7    1  0.6089676E-006  0.1001010E+03  0.7818608E-02  0.1392179E+00
          2   -1    0    0  502    0  0.00000000000E+00  0.00000000000E+00  0.15390565753E+04  0.15390565753E+04  0.00000000000E+00 0. -1.
          1   -1    0    0  501    0 -0.00000000000E+00 -0.00000000000E+00 -0.63923921368E+02  0.63923921368E+02  0.00000000000E+00 0. -1.
         25    2    1    2    0    0  0.98503761005E+01 -0.10782418478E+03  0.33906531604E+03  0.37724371756E+03  0.12499779662E+03 0.  0.
          2    1    1    2  501    0 -0.42977892953E+02  0.89991728656E+02  0.11328674341E+02  0.10036906581E+03  0.00000000000E+00 0. -1.
          1    1    1    2  502    0  0.33127516852E+02  0.17832456122E+02  0.11247386636E+04  0.11253677133E+04  0.00000000000E+00 0. -1.
         22    1    3    3    0    0  0.34439431272E+02 -0.50984874789E+01  0.19787719360E+03  0.20091653180E+03  0.00000000000E+00 0. -1.
         22    1    3    3    0    0 -0.24589055172E+02 -0.10272569730E+03  0.14118812244E+03  0.17632718576E+03  0.00000000000E+00 0. -1.
</event>
<event>
 7    1  0.6089676E-006  0.7481975E+02  0.7818608E-02  0.1406162E+00
          2   -1    0    0  502    0  0.00000000000E+00  0.00000000000E+00  0.11206247978E+03  0.11206247978E+03  0.00000000000E+00 0. -1.
          1   -1    0    0  501    0 -0.00000000000E+00 -0.00000000000E+00 -0.13908997989E+04  0.13908997989E+04  0.00000000000E+00 0. -1.
         25    2    1    2    0    0  0.11197184325E+03  0.72300577084E+01 -0.50657348360E+02  0.17542967001E+03  0.12497773707E+03 0.  0.
          2    1    1    2  501    0 -0.45047633785E+02 -0.70233730931E+00 -0.12545105705E+04  0.12553193036E+04  0.00000000000E+00 0. -1.
          1    1    1    2  502    0 -0.66924209463E+02 -0.65277203991E+01  0.26330599712E+02  0.72213305055E+02  0.00000000000E+00 0. -1.
         22    1    3    3    0    0 -0.12536505617E+02 -0.16984755722E+02 -0.43541391809E+02  0.48389034922E+02  0.00000000000E+00 0. -1.
         22    1    3    3    0    0  0.12450834887E+03  0.24214813430E+02 -0.71159565512E+01  0.12704063509E+03  0.00000000000E+00 0. -1.
</event>
<event>
 7    1  0.6089676E-006  0.1171519E+03  0.7818608E-02  0.1291218E+00
          2   -1    0    0  502    0  0.00000000000E+00  0.00000000000E+00  0.10132995877E+04  0.10132995877E+04  0.00000000000E+00 0. -1.
          1   -1    0    0  501    0 -0.00000000000E+00 -0.00000000000E+00 -0.13869269893E+03  0.13869269893E+03  0.00000000000E+00 0. -1.
         25    2    1    2    0    0 -0.26939066772E+02 -0.79098492292E+02  0.16791200223E+03  0.22539051512E+03  0.12499663599E+03 0.  0.
          2    1    1    2  501    0  0.65661847378E+02 -0.40231114340E+02 -0.90938240882E+02  0.11916284831E+03  0.00000000000E+00 0. -1.
          1    1    1    2  502    0 -0.38722780606E+02  0.11932960663E+03  0.79763312741E+03  0.80743892320E+03  0.00000000000E+00 0. -1.
         22    1    3    3    0    0 -0.20035864351E+02 -0.10114287722E+03  0.17331546391E+03  0.20166697177E+03  0.00000000000E+00 0. -1.
         22    1    3    3    0    0 -0.69032024209E+01  0.22044384931E+02 -0.54034616771E+01  0.23723543343E+02  0.00000000000E+00 0. -1.
</event>
<event>
 7    1  0.6089676E-006  0.2413963E+03  0.7818608E-02  0.1336661E+00
          2   -1    0    0  502    0  0.00000000000E+00  0.00000000000E+00  0.31353981227E+03  0.31353981227E+03  0.00000000000E+00 0. -1.
          1   -1    0    0  501    0 -0.00000000000E+00 -0.00000000000E+00 -0.14501193777E+04  0.14501193777E+04  0.00000000000E+00 0. -1.
         25    2    1    2    0    0 -0.22192661971E+03  0.15200688620E+01 -0.20933123690E+02  0.25557339317E+03  0.12500331389E+03 0.  0.
          2    1    1    2  501    0  0.24284441943E+03 -0.14847999414E+02 -0.12997468511E+04  0.13223221061E+04  0.00000000000E+00 0. -1.
          1    1    1    2  502    0 -0.20917799721E+02  0.13327930552E+02  0.18410040937E+03  0.18576369077E+03  0.00000000000E+00 0. -1.
         22    1    3    3    0    0 -0.79449840633E+02  0.48037542374E+02  0.29532217758E+02  0.97427072930E+02  0.00000000000E+00 0. -1.
         22    1    3    3    0    0 -0.14247677907E+03 -0.46517473512E+02 -0.50465341448E+02  0.15814632024E+03  0.00000000000E+00 0. -1.
</event>
<event>
 7    1  0.6089676E-006  0.5584605E+02  0.7818608E-02  0.1419086E+00
          2   -1    0    0  502    0  0.00000000000E+00  0.00000000000E+00  0.11368073470E+04  0.11368073470E+04  0.00000000000E+00 0. -1.
          1   -1    0    0  501    0 -0.00000000000E+00 -0.00000000000E+00 -0.12334191468E+03  0.12334191468E+03  0.00000000000E+00 0. -1.
         25    2    1    2    0    0 -0.22502185570E+02 -0.59038116539E+02  0.26751688271E+03  0.30196450169E+03  0.12500172073E+03 0.  0.
          2    1    1    2  501    0  0.53394137070E+02  0.11366438805E+02 -0.98078856805E+02  0.11224790402E+03  0.00000000000E+00 0. -1.
          1    1    1    2  502    0 -0.30891951500E+02  0.47671677734E+02  0.84402740640E+03  0.84593685596E+03  0.00000000000E+00 0. -1.
         22    1    3    3    0    0 -0.73890243255E+02 -0.39776084850E+02  0.14142232517E+03  0.16444506387E+03  0.00000000000E+00 0. -1.
         22    1    3    3    0    0  0.51388057685E+02 -0.19262031689E+02  0.12609455753E+03  0.13751943781E+03  0.00000000000E+00 0. -1.
</event>
<event>
 7    1  0.6089676E-006  0.9647667E+02  0.7818608E-02  0.1348816E+00
          2   -1    0    0  502    0  0.00000000000E+00  0.00000000000E+00  0.21608710698E+04  0.21608710698E+04  0.00000000000E+00 0. -1.
          1   -1    0    0  501    0 -0.00000000000E+00 -0.00000000000E+00 -0.12190973878E+03  0.12190973878E+03  0.00000000000E+00 0. -1.
         25    2    1    2    0    0  0.73230064758E+02 -0.19597087579E+02  0.23244573499E+03  0.27459653960E+03  0.12500220647E+03 0.  0.
          2    1    1    2  501    0  0.19679737872E+02  0.52302876822E+02 -0.91715527351E+02  0.10739935272E+03  0.00000000000E+00 0. -1.
          1    1    1    2  502    0 -0.92909802630E+02 -0.32705789243E+02  0.18982311234E+04  0.19007849163E+04  0.00000000000E+00 0. -1.
         22    1    3    3    0    0 -0.26451118533E+01  0.43781611642E+02  0.10107770400E+03  0.11018406591E+03  0.00000000000E+00 0. -1.
         22    1    3    3    0    0  0.75875176611E+02 -0.63378699221E+02  0.13136803098E+03  0.16441247369E+03  0.00000000000E+00 0. -1.
</event>
<event>
 7    1  0.6089676E-006  0.7430231E+02  0.7818608E-02  0.1509945E+00
          2   -1    0    0  502    0  0.00000000000E+00  0.00000000000E+00  0.16586191280E+04  0.16586191280E+04  0.00000000000E+00 0. -1.
          1   -1    0    0  501    0 -0.00000000000E+00 -0.00000000000E+00 -0.59287297628E+03  0.59287297628E+03  0.00000000000E+00 0. -1.
         25    2    1    2    0    0 -0.30858631459E+02 -0.66552193568E+02  0.27459509101E+02  0.14748267073E+03  0.12496265011E+03 0.  0.
          2    1    1    2  501    0  0.20089324939E+02 -0.70239171352E+01 -0.53176859434E+03  0.53219428249E+03  0.00000000000E+00 0. -1.
          1    1    1    2  502    0  0.10769306520E+02  0.73576110703E+02  0.15700552370E+04  0.15718151511E+04  0.00000000000E+00 0. -1.
         22    1    3    3    0    0 -0.21047307029E+02 -0.96912294091E+02  0.47338520292E+02  0.10989047903E+03  0.00000000000E+00 0.  1.
         22    1    3    3    0    0 -0.98113244304E+01  0.30360100523E+02 -0.19879011191E+02  0.37592191699E+02  0.00000000000E+00 0.  1.
</event>
<event>
 7    1  0.6089676E-006  0.7388783E+02  0.7818608E-02  0.1419303E+00
          2   -1    0    0  502    0  0.00000000000E+00  0.00000000000E+00  0.18559512490E+04  0.18559512490E+04  0.00000000000E+00 0. -1.
          1   -1    0    0  501    0 -0.00000000000E+00 -0.00000000000E+00 -0.14735881909E+03  0.14735881909E+03  0.00000000000E+00 0. -1.
         25    2    1    2    0    0  0.15219476638E+01 -0.41954581403E+02  0.10898087833E+03  0.17106975587E+03  0.12500210521E+03 0.  0.
          2    1    1    2  501    0  0.33253611829E+02 -0.24309960267E+02 -0.11182391391E+03  0.11916947843E+03  0.00000000000E+00 0. -1.
          1    1    1    2  502    0 -0.34775559493E+02  0.66264541670E+02  0.17114354655E+04  0.17130708338E+04  0.00000000000E+00 0. -1.
         22    1    3    3    0    0  0.33705080497E+02 -0.17012968691E+01 -0.14903982303E+02  0.36892486374E+02  0.00000000000E+00 0. -1.
         22    1    3    3    0    0 -0.32183132833E+02 -0.40253284534E+02  0.12388486063E+03  0.13417726949E+03  0.00000000000E+00 0. -1.
</event>
<event>
 7    1  0.6089676E-006  0.1288900E+03  0.7818608E-02  0.1255066E+00
          2   -1    0    0  502    0  0.00000000000E+00  0.00000000000E+00  0.13174598605E+03  0.13174598605E+03  0.00000000000E+00 0. -1.
          1   -1    0    0  501    0 -0.00000000000E+00 -0.00000000000E+00 -0.11214379160E+04  0.11214379160E+04  0.00000000000E+00 0. -1.
         25    2    1    2    0    0  0.34020055543E+02  0.33924510393E+02 -0.14388988100E+03  0.19656550885E+03  0.12500185930E+03 0.  0.
          2    1    1    2  501    0 -0.11397820386E+03 -0.92495394184E+02 -0.92073699238E+03  0.93236421962E+03  0.00000000000E+00 0. -1.
          1    1    1    2  502    0  0.79958148320E+02  0.58570883790E+02  0.74934943416E+02  0.12425417359E+03  0.00000000000E+00 0. -1.
         22    1    3    3    0    0  0.42358342137E+01  0.49434555437E+02 -0.83563467722E+00  0.49622735194E+02  0.00000000000E+00 0.  1.
         22    1    3    3    0    0  0.29784221329E+02 -0.15510045044E+02 -0.14305424633E+03  0.14694277366E+03  0.00000000000E+00 0.  1.
</event>
<event>
 7    1  0.6089676E-006  0.1969250E+03  0.7818608E-02  0.1247026E+00
          2   -1    0    0  502    0  0.00000000000E+00  0.00000000000E+00  0.23280307783E+03  0.23280307783E+03  0.00000000000E+00 0. -1.
          1   -1    0    0  501    0 -0.00000000000E+00 -0.00000000000E+00 -0.31791096802E+03  0.31791096802E+03  0.00000000000E+00 0. -1.
         25    2    1    2    0    0 -0.12486494503E+02  0.20271869765E+03 -0.13581961031E+03  0.27445786717E+03  0.12501748431E+03 0.  0.
          2    1    1    2  501    0 -0.55471276499E+02 -0.18477205220E+03  0.66789182799E+02  0.20415329713E+03  0.00000000000E+00 0. -1.
          1    1    1    2  502    0  0.67957771002E+02 -0.17946645449E+02 -0.16077462677E+02  0.72102881556E+02  0.00000000000E+00 0. -1.
         22    1    3    3    0    0 -0.11030936028E+00  0.22263552710E+02  0.24251373937E+02  0.32921225452E+02  0.00000000000E+00 0. -1.
         22    1    3    3    0    0 -0.12376185143E+02  0.18045514494E+03 -0.16007098425E+03  0.24153664172E+03  0.00000000000E+00 0. -1.
</event>
<event>
 7    1  0.6089676E-006  0.1117763E+03  0.7818608E-02  0.1339569E+00
          2   -1    0    0  502    0  0.00000000000E+00  0.00000000000E+00  0.92576781317E+03  0.92576781317E+03  0.00000000000E+00 0. -1.
          1   -1    0    0  501    0 -0.00000000000E+00 -0.00000000000E+00 -0.12151906503E+04  0.12151906503E+04  0.00000000000E+00 0. -1.
         25    2    1    2    0    0 -0.85671682584E+02  0.78551023710E+02 -0.21629661209E+03  0.27553443949E+03  0.12500040968E+03 0.  0.
          2    1    1    2  501    0  0.10802838266E+03 -0.31348330579E+02 -0.96524527385E+03  0.97177738602E+03  0.00000000000E+00 0. -1.
          1    1    1    2  502    0 -0.22356700081E+02 -0.47202693131E+02  0.89211904881E+03  0.89364663795E+03  0.00000000000E+00 0. -1.
         22    1    3    3    0    0  0.24733917283E+02 -0.66056026925E+01 -0.64628714199E+02  0.69514540566E+02  0.00000000000E+00 0. -1.
         22    1    3    3    0    0 -0.11040559987E+03  0.85156626403E+02 -0.15166789790E+03  0.20601989893E+03  0.00000000000E+00 0. -1.
</event>
<event>
 7    1  0.6089676E-006  0.5950345E+02  0.7818608E-02  0.1464102E+00
          2   -1    0    0  502    0  0.00000000000E+00  0.00000000000E+00  0.15474608188E+03  0.15474608188E+03  0.00000000000E+00 0. -1.
          1   -1    0    0  501    0 -0.00000000000E+00 -0.00000000000E+00 -0.11761217375E+03  0.11761217375E+03  0.00000000000E+00 0. -1.
         25    2    1    2    0    0 -0.33921204641E+02  0.36594467451E+01  0.11181678069E+02  0.13005505259E+03  0.12500098841E+03 0.  0.
          2    1    1    2  501    0  0.66425780326E+02  0.13216760324E+02 -0.31084177251E+02  0.74520420831E+02  0.00000000000E+00 0. -1.
          1    1    1    2  502    0 -0.32504575685E+02 -0.16876207069E+02  0.57036407315E+02  0.67782782215E+02  0.00000000000E+00 0. -1.
         22    1    3    3    0    0 -0.63835442552E+02 -0.17883339924E+02 -0.31719836093E+02  0.73490989750E+02  0.00000000000E+00 0. -1.
         22    1    3    3    0    0  0.29914237911E+02  0.21542786669E+02  0.42901514162E+02  0.56564062837E+02  0.00000000000E+00 0. -1.
</event>
<event>
 7    1  0.6089676E-006  0.6180000E+02  0.7818608E-02  0.1531717E+00
          2   -1    0    0  502    0  0.00000000000E+00  0.00000000000E+00  0.12598435573E+03  0.12598435573E+03  0.00000000000E+00 0. -1.
          1   -1    0    0  501    0 -0.00000000000E+00 -0.00000000000E+00 -0.34865596853E+03  0.34865596853E+03  0.00000000000E+00 0. -1.
         25    2    1    2    0    0  0.32468439703E+02 -0.71290957043E+02 -0.14847749694E+03  0.20929974405E+03  0.12499686248E+03 0.  0.
          2    1    1    2  501    0 -0.18647895026E+02  0.11905183434E+02 -0.15919921983E+03  0.16072917899E+03  0.00000000000E+00 0. -1.
          1    1    1    2  502    0 -0.13820544677E+02  0.59385773609E+02  0.85005103984E+02  0.10461140122E+03  0.00000000000E+00 0. -1.
         22    1    3    3    0    0  0.60718770916E+02 -0.30852031555E+02 -0.18946539974E+02  0.70693623260E+02  0.00000000000E+00 0. -1.
         22    1    3    3    0    0 -0.28250331213E+02 -0.40438925488E+02 -0.12953095697E+03  0.13860612079E+03  0.00000000000E+00 0. -1.
</event>
<event>
 7    1  0.6089676E-006  0.1285638E+03  0.7818608E-02  0.1246042E+00
          2   -1    0    0  502    0  0.00000000000E+00  0.00000000000E+00  0.20778898058E+03  0.20778898058E+03  0.00000000000E+00 0. -1.
          1   -1    0    0  501    0 -0.00000000000E+00 -0.00000000000E+00 -0.21327883357E+04  0.21327883357E+04  0.00000000000E+00 0. -1.
         25    2    1    2    0    0 -0.22044552230E+02 -0.98744386268E+02 -0.20228718799E+03  0.25842028475E+03  0.12499808416E+03 0.  0.
          2    1    1    2  501    0  0.12195011796E+03  0.55833634427E+02 -0.18833831353E+04  0.18881528700E+04  0.00000000000E+00 0. -1.
          1    1    1    2  502    0 -0.99905565726E+02  0.42910751841E+02  0.16067096818E+03  0.19400416156E+03  0.00000000000E+00 0. -1.
         22    1    3    3    0    0 -0.11758386417E+02  0.10280655756E+02 -0.12108848828E+03  0.12209166035E+03  0.00000000000E+00 0. -1.
         22    1    3    3    0    0 -0.10286165813E+02 -0.10902504202E+03 -0.81198699707E+02  0.13632862440E+03  0.00000000000E+00 0. -1.
</event>
<event>
 7    1  0.6089676E-006  0.9502055E+02  0.7818608E-02  0.1448855E+00
          2   -1    0    0  502    0  0.00000000000E+00  0.00000000000E+00  0.13067718474E+03  0.13067718474E+03  0.00000000000E+00 0. -1.
          1   -1    0    0  501    0 -0.00000000000E+00 -0.00000000000E+00 -0.43142421024E+03  0.43142421024E+03  0.00000000000E+00 0. -1.
         25    2    1    2    0    0 -0.95318427602E+02 -0.10744703215E+02  0.10753646936E+02  0.15793944010E+03  0.12501269748E+03 0.  0.
          2    1    1    2  501    0  0.63678283877E+01 -0.24831678350E+02 -0.30719625267E+03  0.30826400883E+03  0.00000000000E+00 0. -1.
          1    1    1    2  502    0  0.88950599215E+02  0.35576381565E+02 -0.43044197650E+01  0.95897946044E+02  0.00000000000E+00 0. -1.
         22    1    3    3    0    0 -0.21176965533E+02 -0.10487145282E+02  0.62968241250E+02  0.67256549803E+02  0.00000000000E+00 0.  1.
         22    1    3    3    0    0 -0.74141462070E+02 -0.25755793354E+00 -0.52214594314E+02  0.90682890301E+02  0.00000000000E+00 0.  1.
</event>
<event>
 7    1  0.6089676E-006  0.9580205E+02  0.7818608E-02  0.1293408E+00
          2   -1    0    0  502    0  0.00000000000E+00  0.00000000000E+00  0.12222166201E+04  0.12222166201E+04  0.00000000000E+00 0. -1.
          1   -1    0    0  501    0 -0.00000000000E+00 -0.00000000000E+00 -0.94540900989E+03  0.94540900989E+03  0.00000000000E+00 0. -1.
         25    2    1    2    0    0  0.15318261370E+03 -0.68883935554E+02  0.37034927161E+03  0.42542969030E+03  0.12498771416E+03 0.  0.
          2    1    1    2  501    0 -0.61029915853E+02  0.73397897808E+02 -0.91279050175E+03  0.91776816360E+03  0.00000000000E+00 0. -1.
          1    1    1    2  502    0 -0.92152697846E+02 -0.45139622536E+01  0.81924884036E+03  0.82442777610E+03  0.00000000000E+00 0. -1.
         22    1    3    3    0    0  0.11572444383E+03 -0.41227377549E+02  0.35616343459E+03  0.37675487481E+03  0.00000000000E+00 0.  1.
         22    1    3    3    0    0  0.37458169872E+02 -0.27656558006E+02  0.14185837024E+02  0.48674815489E+02  0.00000000000E+00 0.  1.
</event>
<event>
 7    1  0.6089676E-006  0.3132519E+02  0.7818608E-02  0.1586431E+00
          2   -1    0    0  502    0  0.00000000000E+00  0.00000000000E+00  0.65528330459E+03  0.65528330459E+03  0.00000000000E+00 0. -1.
          1   -1    0    0  501    0 -0.00000000000E+00 -0.00000000000E+00 -0.54191837289E+03  0.54191837289E+03  0.00000000000E+00 0. -1.
         25    2    1    2    0    0 -0.27131150889E+02 -0.54009976278E+02 -0.65509820440E+02  0.15351898763E+03  0.12499346424E+03 0.  0.
          2    1    1    2  501    0  0.19384601175E+02  0.24158734291E+02 -0.43145943954E+03  0.43256982694E+03  0.00000000000E+00 0. -1.
          1    1    1    2  502    0  0.77465497146E+01  0.29851241987E+02  0.61033419168E+03  0.61111286291E+03  0.00000000000E+00 0. -1.
         22    1    3    3    0    0  0.47085050797E+02 -0.38585241281E+01 -0.35353592617E+02  0.59006497337E+02  0.00000000000E+00 0. -1.
         22    1    3    3    0    0 -0.74216201687E+02 -0.50151452150E+02 -0.30156227823E+02  0.94512490297E+02  0.00000000000E+00 0. -1.
</event>
<event>
 7    1  0.6089676E-006  0.8445109E+02  0.7818608E-02  0.1419308E+00
          2   -1    0    0  502    0  0.00000000000E+00  0.00000000000E+00  0.90799991078E+03  0.90799991078E+03  0.00000000000E+00 0. -1.
          1   -1    0    0  501    0 -0.00000000000E+00 -0.00000000000E+00 -0.14835008290E+04  0.14835008290E+04  0.00000000000E+00 0. -1.
         25    2    1    2    0    0 -0.30855348110E+02  0.10237989612E+03  0.11252206474E+03  0.19929843060E+03  0.12499981500E+03 0.  0.
          2    1    1    2  501    0  0.46857511620E+02 -0.70089265264E+02 -0.14384458965E+04  0.14409145459E+04  0.00000000000E+00 0. -1.
          1    1    1    2  502    0 -0.16002163509E+02 -0.32290630861E+02  0.75042291353E+03  0.75128776327E+03  0.00000000000E+00 0. -1.
         22    1    3    3    0    0  0.14832325188E+02  0.96733514779E+02  0.25947627402E+02  0.10124549432E+03  0.00000000000E+00 0. -1.
         22    1    3    3    0    0 -0.45687673298E+02  0.56463813455E+01  0.86574437334E+02  0.98052936281E+02  0.00000000000E+00 0. -1.
</event>
<event>
 7    1  0.6089676E-006  0.1201768E+03  0.7818608E-02  0.1379626E+00
          2   -1    0    0  502    0  0.00000000000E+00  0.00000000000E+00  0.11590419032E+04  0.11590419032E+04  0.00000000000E+00 0. -1.
          1   -1    0    0  501    0 -0.00000000000E+00 -0.00000000000E+00 -0.39168942790E+02  0.39168942790E+02  0.00000000000E+00 0. -1.
         25    2    1    2    0    0 -0.73538799425E+02 -0.63911913745E+02  0.38128955458E+03  0.41291527625E+03  0.12499845273E+03 0.  0.
          2    1    1    2  501    0 -0.34164024464E+02 -0.59869876117E+01 -0.95119745552E+00  0.34697685295E+02  0.00000000000E+00 0. -1.
          1    1    1    2  502    0  0.10770282389E+03  0.69898901357E+02  0.73953460326E+03  0.75059788442E+03  0.00000000000E+00 0. -1.
         22    1    3    3    0    0 -0.82275529677E+02 -0.58163891965E+02  0.14599800766E+03  0.17739142976E+03  0.00000000000E+00 0. -1.
         22    1    3    3    0    0  0.87367302513E+01 -0.57480217803E+01  0.23529154693E+03  0.23552384649E+03  0.00000000000E+00 0. -1.
</event>
<event>
 7    1  0.6089676E-006  0.8147319E+02  0.7818608E-02  0.1397105E+00
          2   -1    0    0  502    0  0.00000000000E+00  0.00000000000E+00  0.97359121351E+03  0.97359121351E+03  0.00000000000E+00 0. -1.
          1   -1    0    0  501    0 -0.00000000000E+00 -0.00000000000E+00 -0.35413705839E+02  0.35413705839E+02  0.00000000000E+00 0. -1.
         25    2    1    2    0    0 -0.11122000768E+03 -0.39545107026E+02  0.29433581768E+03  0.34087225027E+03  0.12500644718E+03 0.  0.
          2    1    1    2  501    0  0.44441177582E+02 -0.28484387308E+00  0.41541187806E+02  0.60833951747E+02  0.00000000000E+00 0. -1.
          1    1    1    2  502    0  0.66778830102E+02  0.39829950899E+02  0.60230050219E+03  0.60729871734E+03  0.00000000000E+00 0. -1.
         22    1    3    3    0    0 -0.76013206735E+02 -0.85140334628E+02  0.18794027676E+03  0.21988276832E+03  0.00000000000E+00 0.  1.
         22    1    3    3    0    0 -0.35206800948E+02  0.45595227602E+02  0.10639554092E+03  0.12098948194E+03  0.00000000000E+00 0.  1.
</event>
<event>
 7    1  0.6089676E-006  0.4653064E+02  0.7818608E-02  0.1501297E+00
          2   -1    0    0  502    0  0.00000000000E+00  0.00000000000E+00  0.16421445967E+04  0.16421445967E+04  0.00000000000E+00 0. -1.
          1   -1    0    0  501    0 -0.00000000000E+00 -0.00000000000E+00 -0.50040728340E+03  0.50040728340E+03  0.00000000000E+00 0. -1.
         25    2    1    2    0    0 -0.44790938982E+02 -0.67667691017E+01 -0.10356869376E+03  0.16852447205E+03  0.12498802332E+03 0.  0.
          2    1    1    2  501    0  0.37596065884E+02 -0.28555775234E+02 -0.36262852059E+03  0.36568885738E+03  0.00000000000E+00 0. -1.
          1    1    1    2  502    0  0.71948730979E+01  0.35322544336E+02  0.16079345276E+04  0.16083385506E+04  0.00000000000E+00 0. -1.
         22    1    3    3    0    0 -0.48767001573E+02  0.13665675566E+02  0.11211829899E+02  0.51871728916E+02  0.00000000000E+00 0. -1.
         22    1    3    3    0    0  0.39760625904E+01 -0.20432444667E+02 -0.11478052366E+03  0.11665274313E+03  0.00000000000E+00 0. -1.
</event>
<event>
 7    1  0.6089676E-006  0.8401680E+02  0.7818608E-02  0.1478214E+00
          2   -1    0    0  502    0  0.00000000000E+00  0.00000000000E+00  0.32866088870E+03  0.32866088870E+03  0.00000000000E+00 0. -1.
          1   -1    0    0  501    0 -0.00000000000E+00 -0.00000000000E+00 -0.65007894731E+03  0.65007894731E+03  0.00000000000E+00 0. -1.
         25    2    1    2    0    0  0.64994771368E+02 -0.13999557539E+01 -0.31855998590E+03  0.34832784426E+03  0.12500216916E+03 0.  0.
          2    1    1    2  501    0  0.17670488286E+02 -0.15414167529E+02 -0.31051513713E+03  0.31139925033E+03  0.00000000000E+00 0. -1.
          1    1    1    2  502    0 -0.82665259655E+02  0.16814123282E+02  0.30765706442E+03  0.31901274141E+03  0.00000000000E+00 0. -1.
         22    1    3    3    0    0  0.54939619957E+02  0.37333918033E+01 -0.36550919540E+02  0.66092887474E+02  0.00000000000E+00 0. -1.
         22    1    3    3    0    0  0.10055151411E+02 -0.51333475572E+01 -0.28200906636E+03  0.28223495679E+03  0.00000000000E+00 0. -1.
</event>
<event>
 7    1  0.6089676E-006  0.1175494E+03  0.7818608E-02  0.1288504E+00
          2   -1    0    0  502    0  0.00000000000E+00  0.00000000000E+00  0.47484649714E+03  0.47484649714E+03  0.00000000000E+00 0. -1.
          1   -1    0    0  501    0 -0.00000000000E+00 -0.00000000000E+00 -0.74663674073E+03  0.74663674073E+03  0.00000000000E+00 0. -1.
         25    2    1    2    0    0  0.82054293909E+02 -0.75718204963E+02 -0.20436058976E+03  0.26430492234E+03  0.12501074999E+03 0.  0.
          2    1    1    2  501    0 -0.18881107829E+02  0.12268935551E+03 -0.50118925196E+03  0.51633307126E+03  0.00000000000E+00 0. -1.
          1    1    1    2  502    0 -0.63173186080E+02 -0.46971150545E+02  0.43375959814E+03  0.44084524428E+03  0.00000000000E+00 0. -1.
         22    1    3    3    0    0  0.11445953357E+03 -0.52581710828E+02 -0.13738858362E+03  0.18639056856E+03  0.00000000000E+00 0.  1.
         22    1    3    3    0    0 -0.32405239660E+02 -0.23136494135E+02 -0.66972006141E+02  0.77914353779E+02  0.00000000000E+00 0.  1.
</event>
<event>
 7    1  0.6089676E-006  0.1764370E+03  0.7818608E-02  0.1294254E+00
          2   -1    0    0  502    0  0.00000000000E+00  0.00000000000E+00  0.27724780817E+04  0.27724780817E+04  0.00000000000E+00 0. -1.
          1   -1    0    0  501    0 -0.00000000000E+00 -0.00000000000E+00 -0.82873025877E+03  0.82873025877E+03  0.00000000000E+00 0. -1.
         25    2    1    2    0    0 -0.71169209402E+02  0.12376950823E+03  0.24443219977E+03  0.30944446591E+03  0.12499931864E+03 0.  0.
          2    1    1    2  501    0  0.15092976021E+02  0.47357097868E+02 -0.79219556060E+03  0.79375329850E+03  0.00000000000E+00 0. -1.
          1    1    1    2  502    0  0.56076233382E+02 -0.17112660610E+03  0.24915111838E+04  0.24980105761E+04  0.00000000000E+00 0. -1.
         22    1    3    3    0    0 -0.85842721367E+02  0.12918363715E+03  0.15725999788E+03  0.22088026588E+03  0.00000000000E+00 0.  1.
         22    1    3    3    0    0  0.14673511964E+02 -0.54141289152E+01  0.87172201888E+02  0.88564200032E+02  0.00000000000E+00 0.  1.
</event>
<event>
 7    1  0.6089676E-006  0.1097304E+03  0.7818608E-02  0.1278843E+00
          2   -1    0    0  502    0  0.00000000000E+00  0.00000000000E+00  0.25190549716E+04  0.25190549716E+04  0.00000000000E+00 0. -1.
          1   -1    0    0  501    0 -0.00000000000E+00 -0.00000000000E+00 -0.31105941597E+04  0.31105941597E+04  0.00000000000E+00 0. -1.
         25    2    1    2    0    0 -0.85366481981E+02  0.81384936071E+02  0.41685376974E+02  0.17684979154E+03  0.12500893587E+03 0.  0.
          2    1    1    2  501    0 -0.25009709986E+01 -0.10997496253E+03 -0.30411313839E+04  0.30431202476E+04  0.00000000000E+00 0. -1.
          1    1    1    2  502    0  0.87867452979E+02  0.28590026461E+02  0.24079068189E+04  0.24096790922E+04  0.00000000000E+00 0. -1.
         22    1    3    3    0    0 -0.10678788120E+03  0.64954841390E+02 -0.25613767838E+01  0.12501737336E+03  0.00000000000E+00 0.  1.
         22    1    3    3    0    0  0.21421399220E+02  0.16430094681E+02  0.44246753757E+02  0.51832418175E+02  0.00000000000E+00 0.  1.
</event>
<event>
 7    1  0.6089676E-006  0.4840791E+02  0.7818608E-02  0.1467205E+00
          2   -1    0    0  502    0  0.00000000000E+00  0.00000000000E+00  0.21850723188E+03  0.21850723188E+03  0.00000000000E+00 0. -1.
          1   -1    0    0  501    0 -0.00000000000E+00 -0.00000000000E+00 -0.38491188694E+03  0.38491188694E+03  0.00000000000E+00 0. -1.
         25    2    1    2    0    0 -0.23796440658E+02 -0.28709208046E+02  0.17054267812E+03  0.21470876410E+03  0.12499823642E+03 0.  0.
          2    1    1    2  501    0 -0.16827825933E+02  0.45671957346E+02 -0.34104112122E+03  0.34449695176E+03  0.00000000000E+00 0. -1.
          1    1    1    2  502    0  0.40624266591E+02 -0.16962749299E+02  0.40937880365E+01  0.44213402949E+02  0.00000000000E+00 0. -1.
         22    1    3    3    0    0  0.19498123779E+02 -0.64417306192E+02  0.12679907006E+03  0.14355406764E+03  0.00000000000E+00 0. -1.
         22    1    3    3    0    0 -0.43294564438E+02  0.35708098146E+02  0.43743608060E+02  0.71154696466E+02  0.00000000000E+00 0. -1.
</event>
<event>
 7    1  0.6089676E-006  0.4257388E+02  0.7818608E-02  0.1574527E+00
          2   -1    0    0  502    0  0.00000000000E+00  0.00000000000E+00  0.96693160845E+03  0.96693160845E+03  0.00000000000E+00 0. -1.
          1   -1    0    0  501    0 -0.00000000000E+00 -0.00000000000E+00 -0.61399160759E+03  0.61399160759E+03  0.00000000000E+00 0. -1.
         25    2    1    2    0    0  0.23586818298E+02 -0.76022100232E+00 -0.71009050063E+01  0.12740747438E+03  0.12500130296E+03 0.  0.
          2    1    1    2  501    0  0.14891558789E+02  0.19355564667E+02 -0.54596077456E+03  0.54650669141E+03  0.00000000000E+00 0. -1.
          1    1    1    2  502    0 -0.38478377087E+02 -0.18595343665E+02  0.90600168042E+03  0.90700905025E+03  0.00000000000E+00 0. -1.
         22    1    3    3    0    0  0.33515135138E+02  0.36394915255E+01 -0.62468657564E+02  0.70984810768E+02  0.00000000000E+00 0.  1.
         22    1    3    3    0    0 -0.99283168404E+01 -0.43997125278E+01  0.55367752557E+02  0.56422663610E+02  0.00000000000E+00 0.  1.
</event>
<event>
 7    1  0.6089676E-006  0.3137063E+02  0.7818608E-02  0.1628492E+00
          2   -1    0    0  502    0  0.00000000000E+00  0.00000000000E+00  0.40231836856E+03  0.40231836856E+03  0.00000000000E+00 0. -1.
          1   -1    0    0  501    0 -0.00000000000E+00 -0.00000000000E+00 -0.12896982904E+03  0.12896982904E+03  0.00000000000E+00 0. -1.
         25    2    1    2    0    0 -0.18034200809E+02 -0.23927279244E+02  0.12707172900E+03  0.18074623885E+03  0.12499692579E+03 0.  0.
          2    1    1    2  501    0  0.31286196543E+02  0.39571308429E+01 -0.99100424121E+02  0.10399701457E+03  0.00000000000E+00 0. -1.
          1    1    1    2  502    0 -0.13251995733E+02  0.19970148401E+02  0.24537723465E+03  0.24654494418E+03  0.00000000000E+00 0. -1.
         22    1    3    3    0    0  0.14834273164E+02  0.42640991351E+02  0.17561436488E+02  0.48442892721E+02  0.00000000000E+00 0.  1.
         22    1    3    3    0    0 -0.32868473974E+02 -0.66568270595E+02  0.10951029251E+03  0.13230334613E+03  0.00000000000E+00 0.  1.
</event>
<event>
 7    1  0.6089676E-006  0.8838543E+02  0.7818608E-02  0.1352759E+00
          2   -1    0    0  502    0  0.00000000000E+00  0.00000000000E+00  0.83018339064E+02  0.83018339064E+02  0.00000000000E+00 0. -1.
          1   -1    0    0  501    0 -0.00000000000E+00 -0.00000000000E+00 -0.83270127874E+03  0.83270127874E+03  0.00000000000E+00 0. -1.
         25    2    1    2    0    0 -0.55524547108E+02  0.44250618533E+02 -0.25812695606E+03  0.29545658404E+03  0.12499590008E+03 0.  0.
          2    1    1    2  501    0  0.21880122177E+02 -0.92696537310E+02 -0.53726519762E+03  0.54564208081E+03  0.00000000000E+00 0. -1.
          1    1    1    2  502    0  0.33644424931E+02  0.48445918777E+02  0.45709214003E+02  0.74620952955E+02  0.00000000000E+00 0. -1.
         22    1    3    3    0    0 -0.94331032842E+02  0.15848391429E+02 -0.17007127057E+03  0.19512496596E+03  0.00000000000E+00 0.  1.
         22    1    3    3    0    0  0.38806485734E+02  0.28402227103E+02 -0.88055685494E+02  0.10033161808E+03  0.00000000000E+00 0.  1.
</event>
<event>
 7    1  0.6089676E-006  0.5789144E+02  0.7818608E-02  0.1532733E+00
          2   -1    0    0  502    0  0.00000000000E+00  0.00000000000E+00  0.72003947022E+03  0.72003947022E+03  0.00000000000E+00 0. -1.
          1   -1    0    0  501    0 -0.00000000000E+00 -0.00000000000E+00 -0.32126151245E+03  0.32126151245E+03  0.00000000000E+00 0. -1.
         25    2    1    2    0    0  0.42144952286E+02  0.26576848710E+02 -0.37736064263E+02  0.13975725744E+03  0.12500221827E+03 0.  0.
          2    1    1    2  501    0 -0.58013918645E+02 -0.92976066508E+01 -0.22859307328E+03  0.23602299337E+03  0.00000000000E+00 0. -1.
          1    1    1    2  502    0  0.15868966359E+02 -0.17279242059E+02  0.66510709531E+03  0.66552073186E+03  0.00000000000E+00 0. -1.
         22    1    3    3    0    0  0.34686161927E+02  0.66169408451E+02 -0.58073792848E+02  0.94626031618E+02  0.00000000000E+00 0. -1.
         22    1    3    3    0    0  0.74587903583E+01 -0.39592559741E+02  0.20337728585E+02  0.45131225825E+02  0.00000000000E+00 0. -1.
</event>
<event>
 7    1  0.6089676E-006  0.1752239E+03  0.7818608E-02  0.1240278E+00
          2   -1    0    0  502    0  0.00000000000E+00  0.00000000000E+00  0.30594677378E+04  0.30594677378E+04  0.00000000000E+00 0. -1.
          1   -1    0    0  501    0 -0.00000000000E+00 -0.00000000000E+00 -0.15835312428E+03  0.15835312428E+03  0.00000000000E+00 0. -1.
         25    2    1    2    0    0  0.85068270017E+02  0.54062798223E+02  0.16758379454E+04  0.16835152530E+04  0.12502556284E+03 0.  0.
          2    1    1    2  501    0 -0.16961717894E+03 -0.52686421994E+02 -0.10167995841E+03  0.20465742204E+03  0.00000000000E+00 0. -1.
          1    1    1    2  502    0  0.84548908920E+02 -0.13763762282E+01  0.13269566265E+04  0.13296481870E+04  0.00000000000E+00 0. -1.
         22    1    3    3    0    0  0.25430802422E+02 -0.41069551098E+02  0.51254872576E+03  0.51481999768E+03  0.00000000000E+00 0.  1.
         22    1    3    3    0    0  0.59637467595E+02  0.95132349321E+02  0.11632892196E+04  0.11686952553E+04  0.00000000000E+00 0.  1.
</event>
<event>
 7    1  0.6089676E-006  0.1575066E+03  0.7818608E-02  0.1241661E+00
          2   -1    0    0  502    0  0.00000000000E+00  0.00000000000E+00  0.18615325644E+04  0.18615325644E+04  0.00000000000E+00 0. -1.
          1   -1    0    0  501    0 -0.00000000000E+00 -0.00000000000E+00 -0.47364793685E+03  0.47364793685E+03  0.00000000000E+00 0. -1.
         25    2    1    2    0    0 -0.17360687573E+03 -0.11725504679E+03  0.23717733091E+03  0.34024201127E+03  0.12499378638E+03 0.  0.
          2    1    1    2  501    0  0.91673184024E+02 -0.14173704466E+02 -0.41314753635E+03  0.42343329269E+03  0.00000000000E+00 0. -1.
          1    1    1    2  502    0  0.81933691707E+02  0.13142875125E+03  0.15638548330E+04  0.15715051973E+04  0.00000000000E+00 0. -1.
         22    1    3    3    0    0 -0.63618449417E+02  0.24743605187E+01  0.13215179382E+03  0.14668853458E+03  0.00000000000E+00 0. -1.
         22    1    3    3    0    0 -0.10998842631E+03 -0.11972940731E+03  0.10502553709E+03  0.19355347669E+03  0.00000000000E+00 0. -1.
</event>
<event>
 7    1  0.6089676E-006  0.4164472E+02  0.7818608E-02  0.1555332E+00
          2   -1    0    0  502    0  0.00000000000E+00  0.00000000000E+00  0.21610159178E+03  0.21610159178E+03  0.00000000000E+00 0. -1.
          1   -1    0    0  501    0 -0.00000000000E+00 -0.00000000000E+00 -0.21437197868E+04  0.21437197868E+04  0.00000000000E+00 0. -1.
         25    2    1    2    0    0 -0.34218703366E+02  0.22912651970E+02 -0.17224043203E+04  0.17274244846E+04  0.12499119250E+03 0.  0.
          2    1    1    2  501    0  0.14040199210E+02 -0.42574890782E+02 -0.41666866950E+03  0.41907341679E+03  0.00000000000E+00 0. -1.
          1    1    1    2  502    0  0.20178504156E+02  0.19662238812E+02  0.21145479479E+03  0.21332347715E+03  0.00000000000E+00 0. -1.
         22    1    3    3    0    0  0.27723591645E+02 -0.33794604483E+02 -0.40656711476E+03  0.40891012659E+03  0.00000000000E+00 0.  1.
         22    1    3    3    0    0 -0.61942295011E+02  0.56707256453E+02 -0.13158372055E+04  0.13185143580E+04  0.00000000000E+00 0.  1.
</event>
<event>
 7    1  0.6089676E-006  0.1313548E+03  0.7818608E-02  0.1231651E+00
          2   -1    0    0  502    0  0.00000000000E+00  0.00000000000E+00  0.47843115133E+03  0.47843115133E+03  0.00000000000E+00 0. -1.
          1   -1    0    0  501    0 -0.00000000000E+00 -0.00000000000E+00 -0.99966128746E+03  0.99966128746E+03  0.00000000000E+00 0. -1.
         25    2    1    2    0    0  0.10941499997E+02 -0.39973472262E+00  0.24659162757E+03  0.27668105050E+03  0.12500038682E+03 0.  0.
          2    1    1    2  501    0 -0.12754954834E+03 -0.39365871263E+02 -0.96212495026E+03  0.97134081507E+03  0.00000000000E+00 0. -1.
          1    1    1    2  502    0  0.11660804834E+03  0.39765605985E+02  0.19430318655E+03  0.23007057322E+03  0.00000000000E+00 0. -1.
         22    1    3    3    0    0  0.39884728167E+02  0.87161286979E+01  0.24267419287E+03  0.24608438863E+03  0.00000000000E+00 0.  1.
         22    1    3    3    0    0 -0.28943228171E+02 -0.91158634205E+01  0.39174347025E+01  0.30596661868E+02  0.00000000000E+00 0.  1.
</event>
<event>
 7    1  0.6089676E-006  0.5826291E+02  0.7818608E-02  0.1480480E+00
          2   -1    0    0  502    0  0.00000000000E+00  0.00000000000E+00  0.90821641065E+03  0.90821641065E+03  0.00000000000E+00 0. -1.
          1   -1    0    0  501    0 -0.00000000000E+00 -0.00000000000E+00 -0.91303702043E+03  0.91303702043E+03  0.00000000000E+00 0. -1.
         25    2    1    2    0    0  0.29049965953E+02  0.74425789982E+02  0.30381665655E+03  0.33810141716E+03  0.12499963502E+03 0.  0.
          2    1    1    2  501    0 -0.28278600419E+02 -0.17539455969E+02 -0.89420657443E+03  0.89482551903E+03  0.00000000000E+00 0. -1.
          1    1    1    2  502    0 -0.77136553376E+00 -0.56886334013E+02  0.58556930809E+03  0.58832649489E+03  0.00000000000E+00 0. -1.
         22    1    3    3    0    0  0.19958258801E+02 -0.27336723201E+02  0.27857977282E+02  0.43837146668E+02  0.00000000000E+00 0. -1.
         22    1    3    3    0    0  0.90917071518E+01  0.10176251318E+03  0.27595867926E+03  0.29426427049E+03  0.00000000000E+00 0. -1.
</event>
<event>
 7    1  0.6089676E-006  0.9516399E+02  0.7818608E-02  0.1354247E+00
          2   -1    0    0  502    0  0.00000000000E+00  0.00000000000E+00  0.20432264596E+04  0.20432264596E+04  0.00000000000E+00 0. -1.
          1   -1    0    0  501    0 -0.00000000000E+00 -0.00000000000E+00 -0.72274017689E+03  0.72274017689E+03  0.00000000000E+00 0. -1.
         25    2    1    2    0    0 -0.22945345327E+02  0.50354129477E+02  0.58114523442E+02  0.14854047486E+03  0.12499979044E+03 0.  0.
          2    1    1    2  501    0 -0.51789572087E+01 -0.96562141770E+02 -0.67369706184E+03  0.68060179250E+03  0.00000000000E+00 0. -1.
          1    1    1    2  502    0  0.28124302535E+02  0.46208012292E+02  0.19360688211E+04  0.19368243691E+04  0.00000000000E+00 0. -1.
         22    1    3    3    0    0 -0.58104646588E+02  0.73661622917E+02  0.46913931719E+02  0.10489567024E+03  0.00000000000E+00 0.  1.
         22    1    3    3    0    0  0.35159301262E+02 -0.23307493439E+02  0.11200591723E+02  0.43644804623E+02  0.00000000000E+00 0.  1.
</event>
<event>
 7    1  0.6089676E-006  0.7475389E+02  0.7818608E-02  0.1479278E+00
          2   -1    0    0  502    0  0.00000000000E+00  0.00000000000E+00  0.10798167504E+04  0.10798167504E+04  0.00000000000E+00 0. -1.
          1   -1    0    0  501    0 -0.00000000000E+00 -0.00000000000E+00 -0.12884478371E+04  0.12884478371E+04  0.00000000000E+00 0. -1.
         25    2    1    2    0    0  0.44885403322E+02 -0.30391484626E+02 -0.24843385635E+03  0.28334401987E+03  0.12500444332E+03 0.  0.
          2    1    1    2  501    0  0.25626805916E+02  0.52380435501E+01 -0.10210722888E+04  0.10214072593E+04  0.00000000000E+00 0. -1.
          1    1    1    2  502    0 -0.70512209238E+02  0.25153441076E+02  0.10608750585E+04  0.10635133083E+04  0.00000000000E+00 0. -1.
         22    1    3    3    0    0  0.39871536269E+01 -0.75315035228E+02 -0.13278529428E+03  0.15270948334E+03  0.00000000000E+00 0.  1.
         22    1    3    3    0    0  0.40898249696E+02  0.44923550602E+02 -0.11564856207E+03  0.13063453654E+03  0.00000000000E+00 0.  1.
</event>
<event>
 7    1  0.6089676E-006  0.2269817E+03  0.7818608E-02  0.1206727E+00
          2   -1    0    0  502    0  0.00000000000E+00  0.00000000000E+00  0.32627282193E+03  0.32627282193E+03  0.00000000000E+00 0. -1.
          1   -1    0    0  501    0 -0.00000000000E+00 -0.00000000000E+00 -0.26213162124E+04  0.26213162124E+04  0.00000000000E+00 0. -1.
         25    2    1    2    0    0 -0.24042130228E+03  0.84524674874E+02 -0.22141990550E+04  0.22323189711E+04  0.12499484115E+03 0.  0.
          2    1    1    2  501    0  0.16976769740E+03 -0.24581143062E+02 -0.37204368929E+03  0.40968501366E+03  0.00000000000E+00 0. -1.
          1    1    1    2  502    0  0.70653604876E+02 -0.59943531812E+02  0.29119935379E+03  0.30558504959E+03  0.00000000000E+00 0. -1.
         22    1    3    3    0    0 -0.12784664308E+03  0.74342333245E+02 -0.16681842594E+04  0.16747269240E+04  0.00000000000E+00 0. -1.
         22    1    3    3    0    0 -0.11257465920E+03  0.10182341629E+02 -0.54601479559E+03  0.55759204709E+03  0.00000000000E+00 0. -1.
</event>
<event>
 7    1  0.6089676E-006  0.3113660E+02  0.7818608E-02  0.1597721E+00
          2   -1    0    0  502    0  0.00000000000E+00  0.00000000000E+00  0.33829382461E+03  0.33829382461E+03  0.00000000000E+00 0. -1.
          1   -1    0    0  501    0 -0.00000000000E+00 -0.00000000000E+00 -0.24230128296E+04  0.24230128296E+04  0.00000000000E+00 0. -1.
         25    2    1    2    0    0 -0.24103860714E+02 -0.49356146085E+02 -0.31828106276E+03  0.34632957344E+03  0.12499725306E+03 0.  0.
          2    1    1    2  501    0  0.63356366928E+00  0.28962082119E+02 -0.20898615493E+04  0.20900623193E+04  0.00000000000E+00 0. -1.
          1    1    1    2  502    0  0.23470297045E+02  0.20394063966E+02  0.32342360697E+03  0.32491476149E+03  0.00000000000E+00 0. -1.
         22    1    3    3    0    0  0.31849244912E+02  0.75961944245E+01 -0.20583083454E+03  0.20841883077E+03  0.00000000000E+00 0. -1.
         22    1    3    3    0    0 -0.55953105626E+02 -0.56952340510E+02 -0.11245022822E+03  0.13791074267E+03  0.00000000000E+00 0. -1.
</event>
<event>
 7    1  0.6089676E-006  0.6679796E+02  0.7818608E-02  0.1405518E+00
          2   -1    0    0  502    0  0.00000000000E+00  0.00000000000E+00  0.29757533086E+02  0.29757533086E+02  0.00000000000E+00 0. -1.
          1   -1    0    0  501    0 -0.00000000000E+00 -0.00000000000E+00 -0.11692136173E+04  0.11692136173E+04  0.00000000000E+00 0. -1.
         25    2    1    2    0    0 -0.11732321018E+02 -0.84021916500E+02 -0.37050907256E+03  0.40012397581E+03  0.12499957344E+03 0.  0.
          2    1    1    2  501    0 -0.31979760348E+02  0.58298528371E+02 -0.73457485537E+03  0.73757822746E+03  0.00000000000E+00 0. -1.
          1    1    1    2  502    0  0.43712081366E+02  0.25723388129E+02 -0.34372156307E+02  0.61268947138E+02  0.00000000000E+00 0. -1.
         22    1    3    3    0    0 -0.12101088644E+02 -0.69483873842E+01  0.64453201543E+01  0.15370705433E+02  0.00000000000E+00 0.  1.
         22    1    3    3    0    0  0.36876762593E+00 -0.77073529116E+02 -0.37695439271E+03  0.38475327037E+03  0.00000000000E+00 0.  1.
</event>
<event>
 7    1  0.6089676E-006  0.9464645E+02  0.7818608E-02  0.1449603E+00
          2   -1    0    0  502    0  0.00000000000E+00  0.00000000000E+00  0.31260526542E+03  0.31260526542E+03  0.00000000000E+00 0. -1.
          1   -1    0    0  501    0 -0.00000000000E+00 -0.00000000000E+00 -0.18411624798E+04  0.18411624798E+04  0.00000000000E+00 0. -1.
         25    2    1    2    0    0 -0.66367725828E+02  0.56403350060E+02 -0.51993344282E+01  0.15244668300E+03  0.12500778036E+03 0.  0.
          2    1    1    2  501    0  0.53318728616E+02 -0.78421986968E+02 -0.17603742884E+04  0.17629266945E+04  0.00000000000E+00 0. -1.
          1    1    1    2  502    0  0.13048997212E+02  0.22018636908E+02  0.23701640845E+03  0.23839436774E+03  0.00000000000E+00 0. -1.
         22    1    3    3    0    0 -0.98683975477E+02  0.26817899621E+02  0.16447449557E+02  0.10357724341E+03  0.00000000000E+00 0. -1.
         22    1    3    3    0    0  0.32316249648E+02  0.29585450439E+02 -0.21646783986E+02  0.48869439591E+02  0.00000000000E+00 0. -1.
</event>
<event>
 7    1  0.6089676E-006  0.5724880E+02  0.7818608E-02  0.1481255E+00
          2   -1    0    0  502    0  0.00000000000E+00  0.00000000000E+00  0.10396986927E+04  0.10396986927E+04  0.00000000000E+00 0. -1.
          1   -1    0    0  501    0 -0.00000000000E+00 -0.00000000000E+00 -0.11193760870E+03  0.11193760870E+03  0.00000000000E+00 0. -1.
         25    2    1    2    0    0  0.88094267236E+02 -0.15324985305E+02  0.88403871030E+03  0.89729879610E+03  0.12500093227E+03 0.  0.
          2    1    1    2  501    0 -0.54444576669E+02  0.16778565089E+02 -0.95443469884E+02  0.11115389385E+03  0.00000000000E+00 0. -1.
          1    1    1    2  502    0 -0.33649690567E+02 -0.14535797836E+01  0.13916584353E+03  0.14318361141E+03  0.00000000000E+00 0. -1.
         22    1    3    3    0    0  0.44150440081E+02 -0.41926293115E+02  0.76786491532E+03  0.77027501815E+03  0.00000000000E+00 0. -1.
         22    1    3    3    0    0  0.43943827155E+02  0.26601307809E+02  0.11617379499E+03  0.12702377795E+03  0.00000000000E+00 0. -1.
</event>
<event>
 7    1  0.6089676E-006  0.9323128E+02  0.7818608E-02  0.1416905E+00
          2   -1    0    0  502    0  0.00000000000E+00  0.00000000000E+00  0.24755530293E+03  0.24755530293E+03  0.00000000000E+00 0. -1.
          1   -1    0    0  501    0 -0.00000000000E+00 -0.00000000000E+00 -0.44417221246E+03  0.44417221246E+03  0.00000000000E+00 0. -1.
         25    2    1    2    0    0  0.85307299351E+02 -0.78724064798E+02  0.56016744094E+01  0.17067828290E+03  0.12499953518E+03 0.  0.
          2    1    1    2  501    0 -0.32772121404E+02  0.56454448846E+01 -0.34807461849E+03  0.34965958163E+03  0.00000000000E+00 0. -1.
          1    1    1    2  502    0 -0.52535177947E+02  0.73078619913E+02  0.14585603455E+03  0.17138965087E+03  0.00000000000E+00 0. -1.
         22    1    3    3    0    0  0.44966070100E+02  0.17259633223E+02  0.38312312278E+02  0.61544095341E+02  0.00000000000E+00 0. -1.
         22    1    3    3    0    0  0.40341229251E+02 -0.95983698021E+02 -0.32710637868E+02  0.10913418755E+03  0.00000000000E+00 0. -1.
</event>
<event>
 7    1  0.6089676E-006  0.1220249E+03  0.7818608E-02  0.1318226E+00
          2   -1    0    0  502    0  0.00000000000E+00  0.00000000000E+00  0.62651643752E+03  0.62651643752E+03  0.00000000000E+00 0. -1.
          1   -1    0    0  501    0 -0.00000000000E+00 -0.00000000000E+00 -0.11560016605E+04  0.11560016605E+04  0.00000000000E+00 0. -1.
         25    2    1    2    0    0  0.66722561210E+02  0.76814347116E+02 -0.44410763028E+03  0.47244452841E+03  0.12497960253E+03 0.  0.
          2    1    1    2  501    0  0.47538352680E+02 -0.32776850600E+02 -0.69038636916E+03  0.69279690792E+03  0.00000000000E+00 0. -1.
          1    1    1    2  502    0 -0.11426091389E+03 -0.44037496516E+02  0.60500877643E+03  0.61727666172E+03  0.00000000000E+00 0. -1.
         22    1    3    3    0    0  0.66033372449E+01  0.84350644090E+02 -0.35322172830E+03  0.36321374501E+03  0.00000000000E+00 0.  1.
         22    1    3    3    0    0  0.60119223965E+02 -0.75362969740E+01 -0.90885901979E+02  0.10923078339E+03  0.00000000000E+00 0.  1.
</event>
<event>
 7    1  0.6089676E-006  0.1421107E+03  0.7818608E-02  0.1389582E+00
          2   -1    0    0  502    0  0.00000000000E+00  0.00000000000E+00  0.27536744871E+03  0.27536744871E+03  0.00000000000E+00 0. -1.
          1   -1    0    0  501    0 -0.00000000000E+00 -0.00000000000E+00 -0.54755925013E+03  0.54755925013E+03  0.00000000000E+00 0. -1.
         25    2    1    2    0    0 -0.88176675145E+02  0.14044236911E+03 -0.47798918901E+02  0.21309075504E+03  0.12499499251E+03 0.  0.
          2    1    1    2  501    0  0.72994913944E+02 -0.11804389017E+03 -0.40453074560E+03  0.42767714646E+03  0.00000000000E+00 0. -1.
          1    1    1    2  502    0  0.15181761201E+02 -0.22398478943E+02  0.18013786308E+03  0.18215879734E+03  0.00000000000E+00 0. -1.
         22    1    3    3    0    0 -0.63244952417E+01 -0.23512782981E+02 -0.72754126692E+01  0.25412237860E+02  0.00000000000E+00 0. -1.
         22    1    3    3    0    0 -0.81852179903E+02  0.16395515209E+03 -0.40523506232E+02  0.18767851718E+03  0.00000000000E+00 0. -1.
</event>
<event>
 7    1  0.6089676E-006  0.8924413E+02  0.7818608E-02  0.1420340E+00
          2   -1    0    0  502    0  0.00000000000E+00  0.00000000000E+00  0.65783267392E+03  0.65783267392E+03  0.00000000000E+00 0. -1.
          1   -1    0    0  501    0 -0.00000000000E+00 -0.00000000000E+00 -0.10131256481E+03  0.10131256481E+03  0.00000000000E+00 0. -1.
         25    2    1    2    0    0  0.47615098051E+01  0.57874149366E+02  0.35629518936E+03  0.38202732346E+03  0.12500609894E+03 0.  0.
          2    1    1    2  501    0  0.66440410156E+00 -0.91269117166E+02 -0.63528017014E+02  0.11120387640E+03  0.00000000000E+00 0. -1.
          1    1    1    2  502    0 -0.54259139066E+01  0.33394967799E+02  0.26375293676E+03  0.26591403887E+03  0.00000000000E+00 0. -1.
         22    1    3    3    0    0 -0.38533175172E+02  0.27617328454E+02  0.30408664699E+03  0.30775998976E+03  0.00000000000E+00 0.  1.
         22    1    3    3    0    0  0.43294684977E+02  0.30256820912E+02  0.52208542366E+02  0.74267333701E+02  0.00000000000E+00 0.  1.
</event>
<event>
 7    1  0.6089676E-006  0.1024892E+03  0.7818608E-02  0.1311724E+00
          2   -1    0    0  502    0  0.00000000000E+00  0.00000000000E+00  0.78033834867E+03  0.78033834867E+03  0.00000000000E+00 0. -1.
          1   -1    0    0  501    0 -0.00000000000E+00 -0.00000000000E+00 -0.42758542989E+03  0.42758542989E+03  0.00000000000E+00 0. -1.
         25    2    1    2    0    0  0.15807314430E+03  0.55839726240E+02 -0.12341863412E+03  0.24282129334E+03  0.12499930910E+03 0.  0.
          2    1    1    2  501    0 -0.72887345200E+02 -0.10245721298E+01 -0.23536336887E+03  0.24639304017E+03  0.00000000000E+00 0. -1.
          1    1    1    2  502    0 -0.85185799102E+02 -0.54815154110E+02  0.71153492177E+03  0.71870944504E+03  0.00000000000E+00 0. -1.
         22    1    3    3    0    0  0.50126128142E+02  0.16739524716E+02  0.22255712820E+02  0.57342455156E+02  0.00000000000E+00 0. -1.
         22    1    3    3    0    0  0.10794701616E+03  0.39100201524E+02 -0.14567434694E+03  0.18547883818E+03  0.00000000000E+00 0. -1.
</event>
<event>
 7    1  0.6089676E-006  0.1034733E+03  0.7818608E-02  0.1336573E+00
          2   -1    0    0  502    0  0.00000000000E+00  0.00000000000E+00  0.43013451409E+03  0.43013451409E+03  0.00000000000E+00 0. -1.
          1   -1    0    0  501    0 -0.00000000000E+00 -0.00000000000E+00 -0.21668242644E+03  0.21668242644E+03  0.00000000000E+00 0. -1.
         25    2    1    2    0    0  0.11110533954E+03 -0.91637484849E+02  0.27969798475E+03  0.33851507742E+03  0.12497867764E+03 0.  0.
          2    1    1    2  501    0 -0.95381675228E+02  0.35904872276E+02 -0.16493224755E+03  0.19388004050E+03  0.00000000000E+00 0. -1.
          1    1    1    2  502    0 -0.15723664312E+02  0.55732612573E+02  0.98686350457E+02  0.11442182261E+03  0.00000000000E+00 0. -1.
         22    1    3    3    0    0  0.12987412600E+03 -0.89712229682E+02  0.27785164775E+03  0.31955768011E+03  0.00000000000E+00 0. -1.
         22    1    3    3    0    0 -0.18768786457E+02 -0.19252551665E+01  0.18463369965E+01  0.18957397312E+02  0.00000000000E+00 0. -1.
</event>
<event>
 7    1  0.6089676E-006  0.2615889E+03  0.7818608E-02  0.1186533E+00
          2   -1    0    0  502    0  0.00000000000E+00  0.00000000000E+00  0.38207069725E+03  0.38207069725E+03  0.00000000000E+00 0. -1.
          1   -1    0    0  501    0 -0.00000000000E+00 -0.00000000000E+00 -0.19870804358E+04  0.19870804358E+04  0.00000000000E+00 0. -1.
         25    2    1    2    0    0  0.33674741342E+03  0.76975074585E+02 -0.33700354690E+03  0.49852116961E+03  0.12501193295E+03 0.  0.
          2    1    1    2  501    0 -0.86940926322E+02 -0.49894699509E+02 -0.15149874218E+04  0.15183000672E+04  0.00000000000E+00 0. -1.
          1    1    1    2  502    0 -0.24980648709E+03 -0.27080375076E+02  0.24698123020E+03  0.35232989623E+03  0.00000000000E+00 0. -1.
         22    1    3    3    0    0  0.23431620125E+03  0.18560276403E+02 -0.15464703538E+03  0.28136146073E+03  0.00000000000E+00 0.  1.
         22    1    3    3    0    0  0.10243121217E+03  0.58414798182E+02 -0.18235651151E+03  0.21715970889E+03  0.00000000000E+00 0.  1.
</event>
<event>
 7    1  0.6089676E-006  0.5617758E+02  0.7818608E-02  0.1518498E+00
          2   -1    0    0  502    0  0.00000000000E+00  0.00000000000E+00  0.99513169064E+03  0.99513169064E+03  0.00000000000E+00 0. -1.
          1   -1    0    0  501    0 -0.00000000000E+00 -0.00000000000E+00 -0.12857889817E+04  0.12857889817E+04  0.00000000000E+00 0. -1.
         25    2    1    2    0    0 -0.29867288870E+02 -0.24003500659E+02  0.22566063352E+03  0.26079897176E+03  0.12500063666E+03 0.  0.
          2    1    1    2  501    0  0.23738902794E+01 -0.26465209820E+02 -0.12669821008E+04  0.12672607019E+04  0.00000000000E+00 0. -1.
          1    1    1    2  502    0  0.27493398591E+02  0.50468710479E+02  0.75066417631E+03  0.75286099866E+03  0.00000000000E+00 0. -1.
         22    1    3    3    0    0 -0.60648080331E+02 -0.56556751873E+02  0.11834880109E+03  0.14451053439E+03  0.00000000000E+00 0. -1.
         22    1    3    3    0    0  0.30780791461E+02  0.32553251214E+02  0.10731183243E+03  0.11628843737E+03  0.00000000000E+00 0. -1.
</event>
<event>
 7    1  0.6089676E-006  0.1699052E+03  0.7818608E-02  0.1186611E+00
          2   -1    0    0  502    0  0.00000000000E+00  0.00000000000E+00  0.36728481487E+03  0.36728481487E+03  0.00000000000E+00 0. -1.
          1   -1    0    0  501    0 -0.00000000000E+00 -0.00000000000E+00 -0.15773000279E+04  0.15773000279E+04  0.00000000000E+00 0. -1.
         25    2    1    2    0    0  0.13530214483E+03  0.10270558768E+03 -0.22751261343E+03  0.31023077428E+03  0.12500414353E+03 0.  0.
          2    1    1    2  501    0  0.33613103364E+02 -0.15049000519E+03 -0.12798229387E+04  0.12890786775E+04  0.00000000000E+00 0. -1.
          1    1    1    2  502    0 -0.16891524820E+03  0.47784417512E+02  0.29732033906E+03  0.34527539103E+03  0.00000000000E+00 0. -1.
         22    1    3    3    0    0  0.14040292815E+03  0.10700346373E+03 -0.23889302880E+03  0.29703973251E+03  0.00000000000E+00 0.  1.
         22    1    3    3    0    0 -0.51007833232E+01 -0.42978760496E+01  0.11380415360E+02  0.13191041764E+02  0.00000000000E+00 0.  1.
</event>
<event>
 7    1  0.6089676E-006  0.7284207E+02  0.7818608E-02  0.1518059E+00
          2   -1    0    0  502    0  0.00000000000E+00  0.00000000000E+00  0.18030668699E+03  0.18030668699E+03  0.00000000000E+00 0. -1.
          1   -1    0    0  501    0 -0.00000000000E+00 -0.00000000000E+00 -0.90171774906E+03  0.90171774906E+03  0.00000000000E+00 0. -1.
         25    2    1    2    0    0  0.31153382133E+02  0.84531788462E+02 -0.30073914095E+03  0.33791227521E+03  0.12499807344E+03 0.  0.
          2    1    1    2  501    0 -0.15137397119E+02 -0.13902538342E+02 -0.57409076907E+03  0.57445855594E+03  0.00000000000E+00 0. -1.
          1    1    1    2  502    0 -0.16015985014E+02 -0.70629250121E+02  0.15341884795E+03  0.16965360490E+03  0.00000000000E+00 0. -1.
         22    1    3    3    0    0  0.57153168396E+02 -0.91661534365E+00 -0.17180133485E+03  0.18106082817E+03  0.00000000000E+00 0.  1.
         22    1    3    3    0    0 -0.25999786263E+02  0.85448403806E+02 -0.12893780609E+03  0.15685144704E+03  0.00000000000E+00 0.  1.
</event>
<event>
 7    1  0.6089676E-006  0.4660304E+02  0.7818608E-02  0.1525230E+00
          2   -1    0    0  502    0  0.00000000000E+00  0.00000000000E+00  0.22205490187E+03  0.22205490187E+03  0.00000000000E+00 0. -1.
          1   -1    0    0  501    0 -0.00000000000E+00 -0.00000000000E+00 -0.16883369578E+04  0.16883369578E+04  0.00000000000E+00 0. -1.
         25    2    1    2    0    0  0.63661521696E+02 -0.26657713225E+02 -0.47449021610E+03  0.49551109760E+03  0.12500743839E+03 0.  0.
          2    1    1    2  501    0 -0.45807994469E+02  0.17761818429E+01 -0.12017886752E+04  0.12026626905E+04  0.00000000000E+00 0. -1.
          1    1    1    2  502    0 -0.17853527228E+02  0.24881531382E+02  0.20999683539E+03  0.21221807159E+03  0.00000000000E+00 0. -1.
         22    1    3    3    0    0 -0.28967359613E+01  0.40040005324E+02 -0.75101455059E+02  0.85157628299E+02  0.00000000000E+00 0.  1.
         22    1    3    3    0    0  0.66558257657E+02 -0.66697718548E+02 -0.39938876105E+03  0.41035346931E+03  0.00000000000E+00 0.  1.
</event>
<event>
 7    1  0.6089676E-006  0.2503745E+02  0.7818608E-02  0.1677798E+00
          2   -1    0    0  502    0  0.00000000000E+00  0.00000000000E+00  0.13568439745E+03  0.13568439745E+03  0.00000000000E+00 0. -1.
          1   -1    0    0  501    0 -0.00000000000E+00 -0.00000000000E+00 -0.70467382603E+03  0.70467382603E+03  0.00000000000E+00 0. -1.
         25    2    1    2    0    0  0.56055862471E+01 -0.29034527672E+01 -0.22087082036E+03  0.25386748005E+03  0.12499970202E+03 0.  0.
          2    1    1    2  501    0  0.15401702432E+02  0.16750702236E+02 -0.46569590302E+03  0.46625151211E+03  0.00000000000E+00 0. -1.
          1    1    1    2  502    0 -0.21007288679E+02 -0.13847249469E+02  0.11757729480E+03  0.12023923132E+03  0.00000000000E+00 0. -1.
         22    1    3    3    0    0 -0.15881746484E+02 -0.57010753686E+02 -0.67235090016E+02  0.89571274618E+02  0.00000000000E+00 0. -1.
         22    1    3    3    0    0  0.21487332731E+02  0.54107300919E+02 -0.15363573034E+03  0.16429620543E+03  0.00000000000E+00 0. -1.
</event>
<event>
 7    1  0.6089676E-006  0.4074102E+02  0.7818608E-02  0.1548900E+00
          2   -1    0    0  502    0  0.00000000000E+00  0.00000000000E+00  0.60130388664E+03  0.60130388664E+03  0.00000000000E+00 0. -1.
          1   -1    0    0  501    0 -0.00000000000E+00 -0.00000000000E+00 -0.60200721174E+03  0.60200721174E+03  0.00000000000E+00 0. -1.
         25    2    1    2    0    0  0.48233444125E+02  0.40502451569E+02  0.26686870922E+02  0.14248916605E+03  0.12499623853E+03 0.  0.
          2    1    1    2  501    0 -0.95688104998E+01 -0.28443629879E+02 -0.54289737180E+03  0.54372617973E+03  0.00000000000E+00 0. -1.
          1    1    1    2  502    0 -0.38664633625E+02 -0.12058821690E+02  0.51550717578E+03  0.51709575259E+03  0.00000000000E+00 0. -1.
         22    1    3    3    0    0  0.34616524778E+02  0.11577112542E+01  0.72643172945E+02  0.80477789847E+02  0.00000000000E+00 0. -1.
         22    1    3    3    0    0  0.13616919348E+02  0.39344740315E+02 -0.45956302023E+02  0.62011376203E+02  0.00000000000E+00 0. -1.
</event>
<event>
 7    1  0.6089676E-006  0.8403701E+02  0.7818608E-02  0.1379243E+00
          2   -1    0    0  502    0  0.00000000000E+00  0.00000000000E+00  0.10720118031E+03  0.10720118031E+03  0.00000000000E+00 0. -1.
          1   -1    0    0  501    0 -0.00000000000E+00 -0.00000000000E+00 -0.21386611705E+03  0.21386611705E+03  0.00000000000E+00 0. -1.
         25    2    1    2    0    0 -0.55076656106E+02  0.65016719429E+02 -0.31247239012E+02  0.15450104177E+03  0.12503427574E+03 0.  0.
          2    1    1    2  501    0  0.44146529911E+02  0.22950813422E+02 -0.57662144619E+02  0.76161531379E+02  0.00000000000E+00 0. -1.
          1    1    1    2  502    0  0.10930126195E+02 -0.87967532851E+02 -0.17755553111E+02  0.90404724217E+02  0.00000000000E+00 0. -1.
         22    1    3    3    0    0 -0.28472123899E+02  0.97240451617E+02 -0.44497446963E+02  0.11066340884E+03  0.00000000000E+00 0.  1.
         22    1    3    3    0    0 -0.26604532207E+02 -0.32223732188E+02  0.13250207951E+02  0.43837632929E+02  0.00000000000E+00 0.  1.
</event>
<event>
 7    1  0.6089676E-006  0.3482787E+02  0.7818608E-02  0.1573217E+00
          2   -1    0    0  502    0  0.00000000000E+00  0.00000000000E+00  0.78385294503E+02  0.78385294503E+02  0.00000000000E+00 0. -1.
          1   -1    0    0  501    0 -0.00000000000E+00 -0.00000000000E+00 -0.92805087884E+03  0.92805087884E+03  0.00000000000E+00 0. -1.
         25    2    1    2    0    0 -0.31911317828E+02  0.21929029414E+02 -0.58650153033E+03  0.60092230654E+03  0.12499743550E+03 0.  0.
          2    1    1    2  501    0 -0.20273825577E+01 -0.30028626264E+02 -0.32933492033E+03  0.33070730023E+03  0.00000000000E+00 0. -1.
          1    1    1    2  502    0  0.33938700386E+02  0.80995968500E+01  0.66170866322E+02  0.74806566575E+02  0.00000000000E+00 0. -1.
         22    1    3    3    0    0 -0.94288718720E+01 -0.26952745097E+02 -0.28537325987E+02  0.40369952534E+02  0.00000000000E+00 0. -1.
         22    1    3    3    0    0 -0.22482445956E+02  0.48881774511E+02 -0.55796420434E+03  0.56055235400E+03  0.00000000000E+00 0. -1.
</event>
<event>
 7    1  0.6089676E-006  0.1169962E+03  0.7818608E-02  0.1439332E+00
          2   -1    0    0  502    0  0.00000000000E+00  0.00000000000E+00  0.12164230377E+04  0.12164230377E+04  0.00000000000E+00 0. -1.
          1   -1    0    0  501    0 -0.00000000000E+00 -0.00000000000E+00 -0.37616842906E+03  0.37616842906E+03  0.00000000000E+00 0. -1.
         25    2    1    2    0    0  0.82124675537E+02 -0.49439468396E+02  0.73129580094E+01  0.15769396845E+03  0.12500073985E+03 0.  0.
          2    1    1    2  501    0  0.16548095600E+02 -0.15017418887E+02 -0.29749513448E+03  0.29833323211E+03  0.00000000000E+00 0. -1.
          1    1    1    2  502    0 -0.98672771137E+02  0.64456887283E+02  0.11304367851E+04  0.11365642662E+04  0.00000000000E+00 0. -1.
         22    1    3    3    0    0  0.73905020634E+02  0.28437195058E+02  0.51576275014E+01  0.79355070784E+02  0.00000000000E+00 0. -1.
         22    1    3    3    0    0  0.82196549034E+01 -0.77876663455E+02  0.21553305080E+01  0.78338897664E+02  0.00000000000E+00 0. -1.
</event>
<event>
 7    1  0.6089676E-006  0.5740118E+02  0.7818608E-02  0.1449193E+00
          2   -1    0    0  502    0  0.00000000000E+00  0.00000000000E+00  0.50954583897E+03  0.50954583897E+03  0.00000000000E+00 0. -1.
          1   -1    0    0  501    0 -0.00000000000E+00 -0.00000000000E+00 -0.14897953510E+04  0.14897953510E+04  0.00000000000E+00 0. -1.
         25    2    1    2    0    0 -0.66516649511E+02 -0.22305585848E+02  0.26521360247E+03  0.30147213358E+03  0.12500075427E+03 0.  0.
          2    1    1    2  501    0  0.34244019633E+02 -0.24883132237E+02 -0.14677439399E+04  0.14683542135E+04  0.00000000000E+00 0. -1.
          1    1    1    2  502    0  0.32272629879E+02  0.47188718084E+02  0.22228082542E+03  0.22951484288E+03  0.00000000000E+00 0. -1.
         22    1    3    3    0    0 -0.80913951118E+02 -0.28985464867E+02  0.27121188918E+03  0.28450503245E+03  0.00000000000E+00 0. -1.
         22    1    3    3    0    0  0.14397301607E+02  0.66798790197E+01 -0.59982867091E+01  0.16967101129E+02  0.00000000000E+00 0. -1.
</event>
<event>
 7    1  0.6089676E-006  0.6532790E+02  0.7818608E-02  0.1383861E+00
          2   -1    0    0  502    0  0.00000000000E+00  0.00000000000E+00  0.76654824758E+03  0.76654824758E+03  0.00000000000E+00 0. -1.
          1   -1    0    0  501    0 -0.00000000000E+00 -0.00000000000E+00 -0.80894553160E+03  0.80894553160E+03  0.00000000000E+00 0. -1.
         25    2    1    2    0    0  0.12423545335E+03 -0.36740275872E+01 -0.44520047639E+03  0.47882682533E+03  0.12499487244E+03 0.  0.
          2    1    1    2  501    0 -0.60699440097E+02 -0.10754398386E+02 -0.34276156231E+03  0.34826077544E+03  0.00000000000E+00 0. -1.
          1    1    1    2  502    0 -0.63536013251E+02  0.14428425973E+02  0.74556475468E+03  0.74840617841E+03  0.00000000000E+00 0. -1.
         22    1    3    3    0    0  0.11719466114E+03 -0.24220867379E+02 -0.44068220701E+03  0.45664214281E+03  0.00000000000E+00 0. -1.
         22    1    3    3    0    0  0.70407922072E+01  0.20546839791E+02 -0.45182693737E+01  0.22184682519E+02  0.00000000000E+00 0. -1.
</event>
<event>
 7    1  0.6089676E-006  0.9588374E+02  0.7818608E-02  0.1478429E+00
          2   -1    0    0  502    0  0.00000000000E+00  0.00000000000E+00  0.17156404244E+04  0.17156404244E+04  0.00000000000E+00 0. -1.
          1   -1    0    0  501    0 -0.00000000000E+00 -0.00000000000E+00 -0.47150142106E+02  0.47150142106E+02  0.00000000000E+00 0. -1.
         25    2    1    2    0    0  0.90790848638E+02 -0.42280728018E+02  0.55968694638E+03  0.58215545848E+03  0.12499944694E+03 0.  0.
          2    1    1    2  501    0  0.21073675951E+01  0.20406735564E+02 -0.30819364919E+02  0.37023088858E+02  0.00000000000E+00 0. -1.
          1    1    1    2  502    0 -0.92898216233E+02  0.21873992454E+02  0.11396227009E+04  0.11436120192E+04  0.00000000000E+00 0. -1.
         22    1    3    3    0    0  0.12048178513E+03 -0.35360778911E+02  0.49448649181E+03  0.51017951332E+03  0.00000000000E+00 0.  1.
         22    1    3    3    0    0 -0.29690936491E+02 -0.69199491069E+01  0.65200454573E+02  0.71975945162E+02  0.00000000000E+00 0.  1.
</event>
<event>
 7    1  0.6089676E-006  0.9332334E+02  0.7818608E-02  0.1469039E+00
          2   -1    0    0  502    0  0.00000000000E+00  0.00000000000E+00  0.41736564816E+03  0.41736564816E+03  0.00000000000E+00 0. -1.
          1   -1    0    0  501    0 -0.00000000000E+00 -0.00000000000E+00 -0.98904454880E+03  0.98904454880E+03  0.00000000000E+00 0. -1.
         25    2    1    2    0    0 -0.49522722536E+02  0.67549626618E+02  0.31940324644E+02  0.15382065177E+03  0.12500062588E+03 0.  0.
          2    1    1    2  501    0  0.36740333597E+02 -0.86110764686E+02 -0.92534822388E+03  0.93007217535E+03  0.00000000000E+00 0. -1.
          1    1    1    2  502    0  0.12782388939E+02  0.18561138069E+02  0.32172899860E+03  0.32251736984E+03  0.00000000000E+00 0. -1.
         22    1    3    3    0    0 -0.22718283521E+02 -0.12214383917E+02  0.59845122781E+02  0.65167095234E+02  0.00000000000E+00 0. -1.
         22    1    3    3    0    0 -0.26804439015E+02  0.79764010535E+02 -0.27904798137E+02  0.88653556537E+02  0.00000000000E+00 0. -1.
</event>
<event>
 7    1  0.6089676E-006  0.8224003E+02  0.7818608E-02  0.1358579E+00
          2   -1    0    0  502    0  0.00000000000E+00  0.00000000000E+00  0.59030362463E+02  0.59030362463E+02  0.00000000000E+00 0. -1.
          1   -1    0    0  501    0 -0.00000000000E+00 -0.00000000000E+00 -0.34665788445E+04  0.34665788445E+04  0.00000000000E+00 0. -1.
         25    2    1    2    0    0  0.98236483151E+02  0.87117519722E+02 -0.84570597410E+03  0.86491806780E+03  0.12499920204E+03 0.  0.
          2    1    1    2  501    0 -0.40965006660E+02 -0.68104044248E+02 -0.25920081854E+04  0.25932263160E+04  0.00000000000E+00 0. -1.
          1    1    1    2  502    0 -0.57271476491E+02 -0.19013475473E+02  0.30165677484E+02  0.67464823183E+02  0.00000000000E+00 0. -1.
         22    1    3    3    0    0  0.40829785067E+02 -0.12471789798E+02 -0.80441208507E+02  0.91068133370E+02  0.00000000000E+00 0.  1.
         22    1    3    3    0    0  0.57406698084E+02  0.99589309520E+02 -0.76526476559E+03  0.77384993443E+03  0.00000000000E+00 0.  1.
</event>
<event>
 7    1  0.6089676E-006  0.4114908E+02  0.7818608E-02  0.1563234E+00
          2   -1    0    0  502    0  0.00000000000E+00  0.00000000000E+00  0.76583475415E+03  0.76583475415E+03  0.00000000000E+00 0. -1.
          1   -1    0    0  501    0 -0.00000000000E+00 -0.00000000000E+00 -0.16001314784E+03  0.16001314784E+03  0.00000000000E+00 0. -1.
         25    2    1    2    0    0  0.28529801297E+01 -0.22373532349E+02  0.24105550811E+03  0.27247266611E+03  0.12499952536E+03 0.  0.
          2    1    1    2  501    0  0.20650374948E+02  0.35902501959E+02 -0.14096188631E+03  0.14692066235E+03  0.00000000000E+00 0. -1.
          1    1    1    2  502    0 -0.23503355078E+02 -0.13528969610E+02  0.50572798452E+03  0.50645457353E+03  0.00000000000E+00 0. -1.
         22    1    3    3    0    0  0.55967429510E+02 -0.37068808833E+02  0.16835392306E+03  0.18124429140E+03  0.00000000000E+00 0.  1.
         22    1    3    3    0    0 -0.53114449381E+02  0.14695276484E+02  0.72701585050E+02  0.91228374713E+02  0.00000000000E+00 0.  1.
</event>
<event>
 7    1  0.6089676E-006  0.2602563E+03  0.7818608E-02  0.1257192E+00
          2   -1    0    0  502    0  0.00000000000E+00  0.00000000000E+00  0.35973509808E+04  0.35973509808E+04  0.00000000000E+00 0. -1.
          1   -1    0    0  501    0 -0.00000000000E+00 -0.00000000000E+00 -0.11190199152E+03  0.11190199152E+03  0.00000000000E+00 0. -1.
         25    2    1    2    0    0 -0.21965771154E+03 -0.75775791591E+02  0.16539256149E+04  0.16748396054E+04  0.12500513352E+03 0.  0.
          2    1    1    2  501    0  0.25894548831E+03  0.48086680797E+02  0.70379805061E+02  0.27261403439E+03  0.00000000000E+00 0. -1.
          1    1    1    2  502    0 -0.39287776771E+02  0.27689110794E+02  0.17611435694E+04  0.17617993326E+04  0.00000000000E+00 0. -1.
         22    1    3    3    0    0 -0.20117553774E+03 -0.62288324337E+02  0.16217020301E+04  0.16353192064E+04  0.00000000000E+00 0. -1.
         22    1    3    3    0    0 -0.18482173800E+02 -0.13487467253E+02  0.32223584738E+02  0.39520398969E+02  0.00000000000E+00 0. -1.
</event>
<event>
 7    1  0.6089676E-006  0.4339463E+02  0.7818608E-02  0.1499903E+00
          2   -1    0    0  502    0  0.00000000000E+00  0.00000000000E+00  0.85257387053E+02  0.85257387053E+02  0.00000000000E+00 0. -1.
          1   -1    0    0  501    0 -0.00000000000E+00 -0.00000000000E+00 -0.11214868747E+04  0.11214868747E+04  0.00000000000E+00 0. -1.
         25    2    1    2    0    0 -0.22190697732E+02  0.55080314517E+02 -0.17159125947E+03  0.22044452075E+03  0.12500383310E+03 0.  0.
          2    1    1    2  501    0 -0.16399285895E+02 -0.35411870393E+02 -0.91729110597E+03  0.91812085818E+03  0.00000000000E+00 0. -1.
          1    1    1    2  502    0  0.38589983628E+02 -0.19668444124E+02  0.52652877756E+02  0.68178882850E+02  0.00000000000E+00 0. -1.
         22    1    3    3    0    0 -0.19019179858E+02 -0.33460000373E+02 -0.16593590604E+02  0.41912385718E+02  0.00000000000E+00 0.  1.
         22    1    3    3    0    0 -0.31715178748E+01  0.88540314890E+02 -0.15499766886E+03  0.17853213503E+03  0.00000000000E+00 0.  1.
</event>
<event>
 7    1  0.6089676E-006  0.8564252E+02  0.7818608E-02  0.1354219E+00
          2   -1    0    0  502    0  0.00000000000E+00  0.00000000000E+00  0.48118299623E+02  0.48118299623E+02  0.00000000000E+00 0. -1.
          1   -1    0    0  501    0 -0.00000000000E+00 -0.00000000000E+00 -0.74226525197E+03  0.74226525197E+03  0.00000000000E+00 0. -1.
         25    2    1    2    0    0  0.49345712038E+02 -0.28217562049E+02 -0.29840774798E+03  0.32848576192E+03  0.12499792649E+03 0.  0.
          2    1    1    2  501    0  0.44677266721E+02  0.40232665274E+02 -0.35271561517E+03  0.35780306133E+03  0.00000000000E+00 0. -1.
          1    1    1    2  502    0 -0.94022978760E+02 -0.12015103225E+02 -0.43023589202E+02  0.10409472834E+03  0.00000000000E+00 0. -1.
         22    1    3    3    0    0  0.14760586922E+02  0.48746261405E+02 -0.14052686582E+03  0.14947198046E+03  0.00000000000E+00 0.  1.
         22    1    3    3    0    0  0.34585125117E+02 -0.76963823453E+02 -0.15788088216E+03  0.17901378146E+03  0.00000000000E+00 0.  1.
</event>
<event>
 7    1  0.6089676E-006  0.6352099E+02  0.7818608E-02  0.1407552E+00
          2   -1    0    0  502    0  0.00000000000E+00  0.00000000000E+00  0.25534298743E+04  0.25534298743E+04  0.00000000000E+00 0. -1.
          1   -1    0    0  501    0 -0.00000000000E+00 -0.00000000000E+00 -0.85648620740E+03  0.85648620740E+03  0.00000000000E+00 0. -1.
         25    2    1    2    0    0  0.18745665992E+02  0.46907991724E+02  0.91303971299E+02  0.16283229823E+03  0.12500472987E+03 0.  0.
          2    1    1    2  501    0  0.42939322480E+02 -0.30192913166E+02 -0.81946130724E+03  0.82114081100E+03  0.00000000000E+00 0. -1.
          1    1    1    2  502    0 -0.61684988472E+02 -0.16715078558E+02  0.24251010029E+04  0.24259429725E+04  0.00000000000E+00 0. -1.
         22    1    3    3    0    0  0.19378911598E+02  0.60247686763E+02 -0.69561625707E+01  0.63668784917E+02  0.00000000000E+00 0. -1.
         22    1    3    3    0    0 -0.63324560600E+00 -0.13339695039E+02  0.98260133870E+02  0.99163513309E+02  0.00000000000E+00 0. -1.
</event>
<event>
 7    1  0.6089676E-006  0.2567400E+03  0.7818608E-02  0.1181818E+00
          2   -1    0    0  502    0  0.00000000000E+00  0.00000000000E+00  0.46801314215E+04  0.46801314215E+04  0.00000000000E+00 0. -1.
          1   -1    0    0  501    0 -0.00000000000E+00 -0.00000000000E+00 -0.11268297289E+04  0.11268297289E+04  0.00000000000E+00 0. -1.
         25    2    1    2    0    0 -0.30755764699E+03  0.16263075622E+03 -0.19618358323E+03  0.41851190028E+03  0.12499497291E+03 0.  0.
          2    1    1    2  501    0  0.22142712999E+03 -0.98053018664E+02 -0.80094080003E+03  0.83674998268E+03  0.00000000000E+00 0. -1.
          1    1    1    2  502    0  0.86130517004E+02 -0.64577737551E+02  0.45504260758E+04  0.45516992675E+04  0.00000000000E+00 0. -1.
         22    1    3    3    0    0 -0.19770484330E+03  0.63613723086E+02 -0.56860882873E+02  0.21533014380E+03  0.00000000000E+00 0. -1.
         22    1    3    3    0    0 -0.10985280370E+03  0.99017033129E+02 -0.13932270036E+03  0.20318175647E+03  0.00000000000E+00 0. -1.
</event>
<event>
 7    1  0.6089676E-006  0.8479025E+02  0.7818608E-02  0.1381358E+00
          2   -1    0    0  502    0  0.00000000000E+00  0.00000000000E+00  0.88759679829E+03  0.88759679829E+03  0.00000000000E+00 0. -1.
          1   -1    0    0  501    0 -0.00000000000E+00 -0.00000000000E+00 -0.16218720297E+03  0.16218720297E+03  0.00000000000E+00 0. -1.
         25    2    1    2    0    0  0.60825814745E+02 -0.18049214436E+02  0.19591367763E+03  0.24090049491E+03  0.12500130193E+03 0.  0.
          2    1    1    2  501    0 -0.55951877039E+02  0.66274472800E+02 -0.12524781379E+03  0.15234806578E+03  0.00000000000E+00 0. -1.
          1    1    1    2  502    0 -0.48739377064E+01 -0.48225258364E+02  0.65474373147E+03  0.65653544056E+03  0.00000000000E+00 0. -1.
         22    1    3    3    0    0  0.25575410357E+02 -0.70484497818E+02  0.85791615104E+02  0.11394019163E+03  0.00000000000E+00 0.  1.
         22    1    3    3    0    0  0.35250404388E+02  0.52435283382E+02  0.11012206253E+03  0.12696030328E+03  0.00000000000E+00 0.  1.
</event>
<event>
 7    1  0.6089676E-006  0.8819366E+02  0.7818608E-02  0.1341311E+00
          2   -1    0    0  502    0  0.00000000000E+00  0.00000000000E+00  0.61913613377E+03  0.61913613377E+03  0.00000000000E+00 0. -1.
          1   -1    0    0  501    0 -0.00000000000E+00 -0.00000000000E+00 -0.12369652956E+03  0.12369652956E+03  0.00000000000E+00 0. -1.
         25    2    1    2    0    0  0.74789567797E+01 -0.38168162978E+02  0.22288163950E+03  0.25848539415E+03  0.12500292118E+03 0.  0.
          2    1    1    2  501    0  0.37806013635E+02  0.85082110643E+02 -0.81864920224E+02  0.12397630976E+03  0.00000000000E+00 0. -1.
          1    1    1    2  502    0 -0.45284970415E+02 -0.46913947664E+02  0.35442288493E+03  0.36037095942E+03  0.00000000000E+00 0. -1.
         22    1    3    3    0    0  0.61593489548E+02 -0.32904720576E+02  0.83360841362E+02  0.10874515375E+03  0.00000000000E+00 0. -1.
         22    1    3    3    0    0 -0.54114532768E+02 -0.52634424023E+01  0.13952079814E+03  0.14974024040E+03  0.00000000000E+00 0. -1.
</event>
<event>
 7    1  0.6089676E-006  0.9386018E+02  0.7818608E-02  0.1365508E+00
          2   -1    0    0  502    0  0.00000000000E+00  0.00000000000E+00  0.88899879218E+03  0.88899879218E+03  0.00000000000E+00 0. -1.
          1   -1    0    0  501    0 -0.00000000000E+00 -0.00000000000E+00 -0.57069071621E+03  0.57069071621E+03  0.00000000000E+00 0. -1.
         25    2    1    2    0    0 -0.22692972142E+02 -0.55474392230E+02 -0.28853256936E+02  0.14159987986E+03  0.12500254542E+03 0.  0.
          2    1    1    2  501    0  0.71469785281E+02  0.65966891890E+02 -0.47983337016E+03  0.48959128276E+03  0.00000000000E+00 0. -1.
          1    1    1    2  502    0 -0.48776813139E+02 -0.10492499660E+02  0.82699470307E+03  0.82849834578E+03  0.00000000000E+00 0. -1.
         22    1    3    3    0    0 -0.44277498285E+02 -0.38049043018E+02 -0.70516236235E+02  0.91546524247E+02  0.00000000000E+00 0. -1.
         22    1    3    3    0    0  0.21584526143E+02 -0.17425349212E+02  0.41662979298E+02  0.50053355612E+02  0.00000000000E+00 0. -1.
</event>
<event>
 7    1  0.6089676E-006  0.8778208E+02  0.7818608E-02  0.1317459E+00
          2   -1    0    0  502    0  0.00000000000E+00  0.00000000000E+00  0.11064406428E+04  0.11064406428E+04  0.00000000000E+00 0. -1.
          1   -1    0    0  501    0 -0.00000000000E+00 -0.00000000000E+00 -0.95872969619E+02  0.95872969619E+02  0.00000000000E+00 0. -1.
         25    2    1    2    0    0  0.42552332350E+02 -0.32739313289E+01  0.41915509919E+03  0.43947395726E+03  0.12499976927E+03 0.  0.
          2    1    1    2  501    0  0.54115525609E+02  0.60030079721E+02 -0.60753763929E+02  0.10110944770E+03  0.00000000000E+00 0. -1.
          1    1    1    2  502    0 -0.96667857959E+02 -0.56756148393E+02  0.65216633791E+03  0.66173020744E+03  0.00000000000E+00 0. -1.
         22    1    3    3    0    0  0.67622659929E+02  0.87437566882E+00  0.10897155838E+03  0.12825127370E+03  0.00000000000E+00 0. -1.
         22    1    3    3    0    0 -0.25070327580E+02 -0.41483069977E+01  0.31018354081E+03  0.31122268356E+03  0.00000000000E+00 0. -1.
</event>
<event>
 7    1  0.6089676E-006  0.3768999E+02  0.7818608E-02  0.1545717E+00
          2   -1    0    0  502    0  0.00000000000E+00  0.00000000000E+00  0.23333343360E+04  0.23333343360E+04  0.00000000000E+00 0. -1.
          1   -1    0    0  501    0 -0.00000000000E+00 -0.00000000000E+00 -0.10227005773E+04  0.10227005773E+04  0.00000000000E+00 0. -1.
         25    2    1    2    0    0 -0.65136538761E+02 -0.27045634808E+02  0.47332000728E+02  0.15112805643E+03  0.12500054441E+03 0.  0.
          2    1    1    2  501    0  0.31443530808E+02  0.10377751905E+02 -0.97036202022E+03  0.97092679624E+03  0.00000000000E+00 0. -1.
          1    1    1    2  502    0  0.33693007953E+02  0.16667882903E+02  0.22336637783E+04  0.22339800607E+04  0.00000000000E+00 0. -1.
         22    1    3    3    0    0 -0.23301608942E+02  0.46914576534E+02 -0.28216476695E+01  0.52458594780E+02  0.00000000000E+00 0.  1.
         22    1    3    3    0    0 -0.41834929819E+02 -0.73960211342E+02  0.50153648398E+02  0.98669461650E+02  0.00000000000E+00 0.  1.
</event>
<event>
 7    1  0.6089676E-006  0.3926459E+02  0.7818608E-02  0.1544463E+00
          2   -1    0    0  502    0  0.00000000000E+00  0.00000000000E+00  0.14183584714E+04  0.14183584714E+04  0.00000000000E+00 0. -1.
          1   -1    0    0  501    0 -0.00000000000E+00 -0.00000000000E+00 -0.68795401563E+03  0.68795401563E+03  0.00000000000E+00 0. -1.
         25    2    1    2    0    0 -0.61365022254E+02  0.30437637001E+02 -0.24676651440E+03  0.28496413979E+03  0.12497492801E+03 0.  0.
          2    1    1    2  501    0  0.30170038202E+02 -0.23115462766E+02 -0.42104916065E+03  0.42276110453E+03  0.00000000000E+00 0. -1.
          1    1    1    2  502    0  0.31194984053E+02 -0.73221742355E+01  0.13982201308E+04  0.13985872427E+04  0.00000000000E+00 0. -1.
         22    1    3    3    0    0 -0.88119174039E+02  0.23100574257E+02 -0.98672145772E+02  0.13429377393E+03  0.00000000000E+00 0. -1.
         22    1    3    3    0    0  0.26754151785E+02  0.73370627438E+01 -0.14809436863E+03  0.15067036586E+03  0.00000000000E+00 0. -1.
</event>
<event>
 7    1  0.6089676E-006  0.8146854E+02  0.7818608E-02  0.1396293E+00
          2   -1    0    0  502    0  0.00000000000E+00  0.00000000000E+00  0.45590548693E+03  0.45590548693E+03  0.00000000000E+00 0. -1.
          1   -1    0    0  501    0 -0.00000000000E+00 -0.00000000000E+00 -0.23950004854E+04  0.23950004854E+04  0.00000000000E+00 0. -1.
         25    2    1    2    0    0  0.94264777668E+01 -0.51927326899E+02 -0.32822317482E+03  0.35516243354E+03  0.12499838379E+03 0.  0.
          2    1    1    2  501    0 -0.36987936848E+02 -0.25157989276E+02 -0.20492746400E+04  0.20497628112E+04  0.00000000000E+00 0. -1.
          1    1    1    2  502    0  0.27561459082E+02  0.77085316175E+02  0.43840281636E+03  0.44598072760E+03  0.00000000000E+00 0. -1.
         22    1    3    3    0    0  0.44750862535E+02 -0.75423342584E+02 -0.16920765066E+03  0.19058475633E+03  0.00000000000E+00 0. -1.
         22    1    3    3    0    0 -0.35324384769E+02  0.23496015685E+02 -0.15901552416E+03  0.16457767721E+03  0.00000000000E+00 0. -1.
</event>
<event>
 7    1  0.6089676E-006  0.1717580E+03  0.7818608E-02  0.1227246E+00
          2   -1    0    0  502    0  0.00000000000E+00  0.00000000000E+00  0.96450531316E+02  0.96450531316E+02  0.00000000000E+00 0. -1.
          1   -1    0    0  501    0 -0.00000000000E+00 -0.00000000000E+00 -0.12388380842E+04  0.12388380842E+04  0.00000000000E+00 0. -1.
         25    2    1    2    0    0  0.38605353628E+02  0.83858021853E+02 -0.85363503153E+03  0.86766432221E+03  0.12500427118E+03 0.  0.
          2    1    1    2  501    0  0.85756323312E+02  0.48678358851E+02 -0.26694326220E+03  0.28457412891E+03  0.00000000000E+00 0. -1.
          1    1    1    2  502    0 -0.12436167694E+03 -0.13253638070E+03 -0.21809259147E+02  0.18305016440E+03  0.00000000000E+00 0. -1.
         22    1    3    3    0    0  0.82610122675E+02  0.55296289401E+02 -0.64045966341E+03  0.64812860795E+03  0.00000000000E+00 0.  1.
         22    1    3    3    0    0 -0.44004769047E+02  0.28561732452E+02 -0.21317536812E+03  0.21953571425E+03  0.00000000000E+00 0.  1.
</event>
<event>
 7    1  0.6089676E-006  0.5180863E+02  0.7818608E-02  0.1463059E+00
          2   -1    0    0  502    0  0.00000000000E+00  0.00000000000E+00  0.68665895825E+03  0.68665895825E+03  0.00000000000E+00 0. -1.
          1   -1    0    0  501    0 -0.00000000000E+00 -0.00000000000E+00 -0.10781600574E+03  0.10781600574E+03  0.00000000000E+00 0. -1.
         25    2    1    2    0    0 -0.14904115290E+02 -0.12925618749E+02  0.29222293886E+03  0.31844711220E+03  0.12500045199E+03 0.  0.
          2    1    1    2  501    0 -0.42161341092E+02  0.43225040431E+01 -0.87637091242E+02  0.97347431837E+02  0.00000000000E+00 0. -1.
          1    1    1    2  502    0  0.57065456382E+02  0.86031147062E+01  0.37425710489E+03  0.37868041995E+03  0.00000000000E+00 0. -1.
         22    1    3    3    0    0  0.22345675231E+01 -0.27292392371E+02  0.21006672062E+01  0.27464172590E+02  0.00000000000E+00 0. -1.
         22    1    3    3    0    0 -0.17138682813E+02  0.14366773622E+02  0.29012227166E+03  0.29098293961E+03  0.00000000000E+00 0. -1.
</event>
<event>
 7    1  0.6089676E-006  0.5152187E+02  0.7818608E-02  0.1526004E+00
          2   -1    0    0  502    0  0.00000000000E+00  0.00000000000E+00  0.31624597056E+03  0.31624597056E+03  0.00000000000E+00 0. -1.
          1   -1    0    0  501    0 -0.00000000000E+00 -0.00000000000E+00 -0.28660386868E+03  0.28660386868E+03  0.00000000000E+00 0. -1.
         25    2    1    2    0    0  0.21322523986E+02  0.18088516644E+02 -0.68568813156E+02  0.14529000432E+03  0.12500263499E+03 0.  0.
          2    1    1    2  501    0  0.44357568779E+01  0.27199108383E+02 -0.17615159752E+03  0.17829428691E+03  0.00000000000E+00 0. -1.
          1    1    1    2  502    0 -0.25758280864E+02 -0.45287625028E+02  0.27436251255E+03  0.27926554801E+03  0.00000000000E+00 0. -1.
         22    1    3    3    0    0  0.38853850689E+02 -0.17833427823E+02 -0.90216215689E+02  0.99832952649E+02  0.00000000000E+00 0. -1.
         22    1    3    3    0    0 -0.17531326703E+02  0.35921944467E+02  0.21647402533E+02  0.45457051672E+02  0.00000000000E+00 0. -1.
</event>
<event>
 7    1  0.6089676E-006  0.1424581E+03  0.7818608E-02  0.1357487E+00
          2   -1    0    0  502    0  0.00000000000E+00  0.00000000000E+00  0.11646121820E+04  0.11646121820E+04  0.00000000000E+00 0. -1.
          1   -1    0    0  501    0 -0.00000000000E+00 -0.00000000000E+00 -0.60470919538E+02  0.60470919538E+02  0.00000000000E+00 0. -1.
         25    2    1    2    0    0  0.98848653313E+02  0.64657217880E+02  0.39906415416E+03  0.43454415922E+03  0.12499926036E+03 0.  0.
          2    1    1    2  501    0 -0.13375341701E+03 -0.68878354124E+02  0.91774333706E+02  0.17622920461E+03  0.00000000000E+00 0. -1.
          1    1    1    2  502    0  0.34904763697E+02  0.42211362441E+01  0.61330277464E+03  0.61430973776E+03  0.00000000000E+00 0. -1.
         22    1    3    3    0    0  0.10361784556E+03  0.15035195478E+02  0.34704307291E+03  0.36249359922E+03  0.00000000000E+00 0.  1.
         22    1    3    3    0    0 -0.47691922455E+01  0.49622022402E+02  0.52021081253E+02  0.72050560002E+02  0.00000000000E+00 0.  1.
</event>
<event>
 7    1  0.6089676E-006  0.1121757E+03  0.7818608E-02  0.1366118E+00
          2   -1    0    0  502    0  0.00000000000E+00  0.00000000000E+00  0.21873966251E+03  0.21873966251E+03  0.00000000000E+00 0. -1.
          1   -1    0    0  501    0 -0.00000000000E+00 -0.00000000000E+00 -0.73433496478E+03  0.73433496478E+03  0.00000000000E+00 0. -1.
         25    2    1    2    0    0 -0.13154991831E+03  0.71642605455E+02 -0.27529434259E+02  0.19703625579E+03  0.12500948933E+03 0.  0.
          2    1    1    2  501    0  0.91286757651E+02 -0.61444092600E+02 -0.61381857463E+03  0.62360395380E+03  0.00000000000E+00 0. -1.
          1    1    1    2  502    0  0.40263160656E+02 -0.10198512855E+02  0.12575270662E+03  0.13243441770E+03  0.00000000000E+00 0. -1.
         22    1    3    3    0    0  0.18305947975E+02  0.35427117999E+02  0.25533736796E+01  0.39958830540E+02  0.00000000000E+00 0.  1.
         22    1    3    3    0    0 -0.14985586628E+03  0.36215487456E+02 -0.30082807938E+02  0.15707742525E+03  0.00000000000E+00 0.  1.
</event>
<event>
 7    1  0.9451338E-006  0.4260337E+02  0.7818608E-02  0.1516961E+00
          2   -1    0    0  502    0  0.00000000000E+00  0.00000000000E+00  0.26024137396E+04  0.26024137396E+04  0.00000000000E+00 0. -1.
          1   -1    0    0  501    0 -0.00000000000E+00 -0.00000000000E+00 -0.10844338797E+04  0.10844338797E+04  0.00000000000E+00 0. -1.
         25    2    1    2    0    0  0.10163371371E+02  0.10847495576E+02 -0.24337619323E+03  0.27400207445E+03  0.12499681232E+03 0.  0.
          2    1    1    2  501    0  0.29330882976E+01 -0.43736563992E+02 -0.82504178711E+03  0.82620544691E+03  0.00000000000E+00 0. -1.
          1    1    1    2  502    0 -0.13096459669E+02  0.32889068416E+02  0.25863978403E+04  0.25866400979E+04  0.00000000000E+00 0. -1.
         22    1    3    3    0    0  0.55590294815E+02  0.41448452713E+02 -0.15827366114E+03  0.17279701074E+03  0.00000000000E+00 0.  1.
         22    1    3    3    0    0 -0.45426923444E+02 -0.30600957137E+02 -0.85102532095E+02  0.10120506371E+03  0.00000000000E+00 0.  1.
</event>
<event>
 7    1  0.6089676E-006  0.5451243E+02  0.7818608E-02  0.1477378E+00
          2   -1    0    0  502    0  0.00000000000E+00  0.00000000000E+00  0.37035621049E+03  0.37035621049E+03  0.00000000000E+00 0. -1.
          1   -1    0    0  501    0 -0.00000000000E+00 -0.00000000000E+00 -0.12361010020E+04  0.12361010020E+04  0.00000000000E+00 0. -1.
         25    2    1    2    0    0 -0.21237709097E+02 -0.13554869981E+01  0.20992148998E+03  0.24524629247E+03  0.12500333750E+03 0.  0.
          2    1    1    2  501    0  0.48099806332E+02  0.25852436738E+02 -0.12155013140E+04  0.12167273253E+04  0.00000000000E+00 0. -1.
          1    1    1    2  502    0 -0.26862097236E+02 -0.24496949740E+02  0.13983503252E+03  0.14448359469E+03  0.00000000000E+00 0. -1.
         22    1    3    3    0    0 -0.34181997333E+00 -0.57735861889E+02  0.14833263892E+03  0.15917323380E+03  0.00000000000E+00 0. -1.
         22    1    3    3    0    0 -0.20895889123E+02  0.56380374891E+02  0.61588851056E+02  0.86073058674E+02  0.00000000000E+00 0. -1.
</event>
<event>
 7    1  0.6089676E-006  0.7851597E+02  0.7818608E-02  0.1407784E+00
          2   -1    0    0  502    0  0.00000000000E+00  0.00000000000E+00  0.19799336890E+04  0.19799336890E+04  0.00000000000E+00 0. -1.
          1   -1    0    0  501    0 -0.00000000000E+00 -0.00000000000E+00 -0.21170512965E+03  0.21170512965E+03  0.00000000000E+00 0. -1.
         25    2    1    2    0    0 -0.18346539333E+02 -0.11885569490E+03  0.70419024262E+02  0.18721188512E+03  0.12500471685E+03 0.  0.
          2    1    1    2  501    0  0.47361376766E+01  0.42124324443E+02 -0.14954125149E+03  0.15543318695E+03  0.00000000000E+00 0. -1.
          1    1    1    2  502    0  0.13610401656E+02  0.76731370461E+02  0.18473507866E+04  0.18489937466E+04  0.00000000000E+00 0. -1.
         22    1    3    3    0    0  0.15947338627E+02 -0.37771963749E+02 -0.32105681789E+02  0.52075077127E+02  0.00000000000E+00 0. -1.
         22    1    3    3    0    0 -0.34293877960E+02 -0.81083731156E+02  0.10252470605E+03  0.13513680799E+03  0.00000000000E+00 0. -1.
</event>
<event>
 7    1  0.6089676E-006  0.6553739E+02  0.7818608E-02  0.1480161E+00
          2   -1    0    0  502    0  0.00000000000E+00  0.00000000000E+00  0.13231406329E+04  0.13231406329E+04  0.00000000000E+00 0. -1.
          1   -1    0    0  501    0 -0.00000000000E+00 -0.00000000000E+00 -0.21431481334E+03  0.21431481334E+03  0.00000000000E+00 0. -1.
         25    2    1    2    0    0  0.27332453066E+02  0.29688393017E+02  0.51559458418E+02  0.14112559190E+03  0.12501836372E+03 0.  0.
          2    1    1    2  501    0 -0.32822912240E+02 -0.58824897144E+02 -0.16265296711E+03  0.17605027635E+03  0.00000000000E+00 0. -1.
          1    1    1    2  502    0  0.54904591739E+01  0.29136504128E+02  0.12199193282E+04  0.12202795780E+04  0.00000000000E+00 0. -1.
         22    1    3    3    0    0  0.19427454099E+02 -0.22341135045E+02 -0.31224940245E+02  0.43029631432E+02  0.00000000000E+00 0. -1.
         22    1    3    3    0    0  0.79049989674E+01  0.52029528062E+02  0.82784398662E+02  0.98095960472E+02  0.00000000000E+00 0. -1.
</event>
<event>
 7    1  0.6089676E-006  0.1146379E+03  0.7818608E-02  0.1376211E+00
          2   -1    0    0  502    0  0.00000000000E+00  0.00000000000E+00  0.13411992116E+04  0.13411992116E+04  0.00000000000E+00 0. -1.
          1   -1    0    0  501    0 -0.00000000000E+00 -0.00000000000E+00 -0.14762441679E+04  0.14762441679E+04  0.00000000000E+00 0. -1.
         25    2    1    2    0    0  0.36981988407E+01  0.12656486733E+03  0.21387331495E+03  0.27820978266E+03  0.12500618387E+03 0.  0.
          2    1    1    2  501    0  0.32505128876E+02 -0.18478668656E+02 -0.14408666664E+04  0.14413517249E+04  0.00000000000E+00 0. -1.
          1    1    1    2  502    0 -0.36203327717E+02 -0.10808619867E+03  0.10919483951E+04  0.10978818720E+04  0.00000000000E+00 0. -1.
         22    1    3    3    0    0  0.14275406439E+02  0.40681989140E+01 -0.13278880109E+02  0.19916478814E+02  0.00000000000E+00 0. -1.
         22    1    3    3    0    0 -0.10577207598E+02  0.12249666842E+03  0.22715219505E+03  0.25829330385E+03  0.00000000000E+00 0. -1.
</event>
<event>
 7    1  0.6089676E-006  0.5848848E+02  0.7818608E-02  0.1433469E+00
          2   -1    0    0  502    0  0.00000000000E+00  0.00000000000E+00  0.10792173476E+04  0.10792173476E+04  0.00000000000E+00 0. -1.
          1   -1    0    0  501    0 -0.00000000000E+00 -0.00000000000E+00 -0.65018788241E+03  0.65018788241E+03  0.00000000000E+00 0. -1.
         25    2    1    2    0    0  0.23054715012E+02  0.27474254011E+02 -0.40143189675E+01  0.13010494731E+03  0.12499931216E+03 0.  0.
          2    1    1    2  501    0 -0.35718424915E+02  0.30104157426E+02 -0.58133550266E+03  0.58320925304E+03  0.00000000000E+00 0. -1.
          1    1    1    2  502    0  0.12663709902E+02 -0.57578411437E+02  0.10143792868E+04  0.10160910296E+04  0.00000000000E+00 0. -1.
         22    1    3    3    0    0 -0.31921118814E+02 -0.99616841586E+01 -0.41862559772E+02  0.53578604762E+02  0.00000000000E+00 0.  1.
         22    1    3    3    0    0  0.54975833826E+02  0.37435938170E+02  0.37848240804E+02  0.76526342546E+02  0.00000000000E+00 0.  1.
</event>
<event>
 7    1  0.6089676E-006  0.4387618E+02  0.7818608E-02  0.1500207E+00
          2   -1    0    0  502    0  0.00000000000E+00  0.00000000000E+00  0.17268875710E+04  0.17268875710E+04  0.00000000000E+00 0. -1.
          1   -1    0    0  501    0 -0.00000000000E+00 -0.00000000000E+00 -0.31803507741E+03  0.31803507741E+03  0.00000000000E+00 0. -1.
         25    2    1    2    0    0  0.39419660435E+02 -0.14341959908E+02  0.46711824984E+03  0.48536904327E+03  0.12499618950E+03 0.  0.
          2    1    1    2  501    0 -0.26131478208E+02 -0.28295352781E+02 -0.30730846781E+03  0.30971273065E+03  0.00000000000E+00 0. -1.
          1    1    1    2  502    0 -0.13288182227E+02  0.42637312689E+02  0.12490427116E+04  0.12498408745E+04  0.00000000000E+00 0. -1.
         22    1    3    3    0    0 -0.32540259958E+02  0.31677952297E+02  0.19190559980E+03  0.19720578190E+03  0.00000000000E+00 0.  1.
         22    1    3    3    0    0  0.71959920394E+02 -0.46019912205E+02  0.27521265004E+03  0.28816326138E+03  0.00000000000E+00 0.  1.
</event>
<event>
 7    1  0.6089676E-006  0.1273056E+03  0.7818608E-02  0.1406799E+00
          2   -1    0    0  502    0  0.00000000000E+00  0.00000000000E+00  0.19060243911E+04  0.19060243911E+04  0.00000000000E+00 0. -1.
          1   -1    0    0  501    0 -0.00000000000E+00 -0.00000000000E+00 -0.18436632242E+04  0.18436632242E+04  0.00000000000E+00 0. -1.
         25    2    1    2    0    0  0.41146215205E+02  0.12105003407E+03 -0.42526316432E+03  0.46132369947E+03  0.12499869996E+03 0.  0.
          2    1    1    2  501    0 -0.15404255786E+02 -0.12666217682E+03 -0.13973710620E+04  0.14031844080E+04  0.00000000000E+00 0. -1.
          1    1    1    2  502    0 -0.25741959419E+02  0.56121427541E+01  0.18849953932E+04  0.18851795079E+04  0.00000000000E+00 0. -1.
         22    1    3    3    0    0 -0.36178408505E+02  0.84192972191E+02 -0.24955135396E+03  0.26584433805E+03  0.00000000000E+00 0.  1.
         22    1    3    3    0    0  0.77324623711E+02  0.36857061878E+02 -0.17571181037E+03  0.19547936143E+03  0.00000000000E+00 0.  1.
</event>
<event>
 7    1  0.6089676E-006  0.1096893E+03  0.7818608E-02  0.1341545E+00
          2   -1    0    0  502    0  0.00000000000E+00  0.00000000000E+00  0.17183185461E+04  0.17183185461E+04  0.00000000000E+00 0. -1.
          1   -1    0    0  501    0 -0.00000000000E+00 -0.00000000000E+00 -0.10664031747E+03  0.10664031747E+03  0.00000000000E+00 0. -1.
         25    2    1    2    0    0 -0.84844980111E+02 -0.72446125479E+02  0.12438822651E+03  0.20870393698E+03  0.12505115220E+03 0.  0.
          2    1    1    2  501    0 -0.22399170794E+02  0.47283353986E+02 -0.51566269746E+02  0.73461000483E+02  0.00000000000E+00 0. -1.
          1    1    1    2  502    0  0.10724415091E+03  0.25162771493E+02  0.15388562719E+04  0.15427939261E+04  0.00000000000E+00 0. -1.
         22    1    3    3    0    0 -0.30774122388E+02  0.29578241445E+02  0.67797159558E+02  0.80114754071E+02  0.00000000000E+00 0.  1.
         22    1    3    3    0    0 -0.54070857723E+02 -0.10202436692E+03  0.56591066956E+02  0.12858918291E+03  0.00000000000E+00 0.  1.
</event>
<event>
 7    1  0.6089676E-006  0.1819452E+03  0.7818608E-02  0.1204622E+00
          2   -1    0    0  502    0  0.00000000000E+00  0.00000000000E+00  0.56646995633E+03  0.56646995633E+03  0.00000000000E+00 0. -1.
          1   -1    0    0  501    0 -0.00000000000E+00 -0.00000000000E+00 -0.20007950098E+04  0.20007950098E+04  0.00000000000E+00 0. -1.
         25    2    1    2    0    0 -0.70122855024E+02  0.30096515068E+02 -0.15031731960E+03  0.20986010362E+03  0.12499180575E+03 0.  0.
          2    1    1    2  501    0 -0.11778636339E+03  0.10325631548E+02 -0.18014970968E+04  0.18053731015E+04  0.00000000000E+00 0. -1.
          1    1    1    2  502    0  0.18790921841E+03 -0.40422146615E+02  0.51748936295E+03  0.55203176093E+03  0.00000000000E+00 0. -1.
         22    1    3    3    0    0 -0.35550049217E+02 -0.28256786440E+01 -0.15758479589E+03  0.16156967028E+03  0.00000000000E+00 0.  1.
         22    1    3    3    0    0 -0.34572805807E+02  0.32922193712E+02  0.72674762928E+01  0.48290433337E+02  0.00000000000E+00 0.  1.
</event>
<event>
 7    1  0.6089676E-006  0.4707745E+02  0.7818608E-02  0.1477278E+00
          2   -1    0    0  502    0  0.00000000000E+00  0.00000000000E+00  0.10485797243E+04  0.10485797243E+04  0.00000000000E+00 0. -1.
          1   -1    0    0  501    0 -0.00000000000E+00 -0.00000000000E+00 -0.85398688985E+03  0.85398688985E+03  0.00000000000E+00 0. -1.
         25    2    1    2    0    0 -0.66214433898E+02  0.47913485177E+02  0.36022696084E+03  0.38995999931E+03  0.12500113769E+03 0.  0.
          2    1    1    2  501    0  0.45692548267E+02 -0.11124027319E+02 -0.83780157559E+03  0.83912039244E+03  0.00000000000E+00 0. -1.
          1    1    1    2  502    0  0.20521885632E+02 -0.36789457859E+02  0.67216744917E+03  0.67348622237E+03  0.00000000000E+00 0. -1.
         22    1    3    3    0    0 -0.10354650170E+03  0.32581190551E+02  0.24880015052E+03  0.27144967654E+03  0.00000000000E+00 0. -1.
         22    1    3    3    0    0  0.37332067805E+02  0.15332294626E+02  0.11142681032E+03  0.11851032277E+03  0.00000000000E+00 0. -1.
</event>
<event>
 7    1  0.6089676E-006  0.1778113E+03  0.7818608E-02  0.1353431E+00
          2   -1    0    0  502    0  0.00000000000E+00  0.00000000000E+00  0.15347320312E+04  0.15347320312E+04  0.00000000000E+00 0. -1.
          1   -1    0    0  501    0 -0.00000000000E+00 -0.00000000000E+00 -0.13429183789E+04  0.13429183789E+04  0.00000000000E+00 0. -1.
         25    2    1    2    0    0  0.90686306631E+02  0.11833236406E+03  0.65725087152E+03  0.68544089756E+03  0.12499584529E+03 0.  0.
          2    1    1    2  501    0 -0.10555992820E+03 -0.14340471141E+03 -0.13226090691E+04  0.13345420785E+04  0.00000000000E+00 0. -1.
          1    1    1    2  502    0  0.14873621570E+02  0.25072347350E+02  0.85717184985E+03  0.85766743403E+03  0.00000000000E+00 0. -1.
         22    1    3    3    0    0  0.85724915588E+02  0.13895441223E+03  0.63052661281E+03  0.65132242345E+03  0.00000000000E+00 0.  1.
         22    1    3    3    0    0  0.49613910429E+01 -0.20622048170E+02  0.26724258711E+02  0.34118474108E+02  0.00000000000E+00 0.  1.
</event>
<event>
 7    1  0.6089676E-006  0.6555127E+02  0.7818608E-02  0.1514067E+00
          2   -1    0    0  502    0  0.00000000000E+00  0.00000000000E+00  0.17480378332E+03  0.17480378332E+03  0.00000000000E+00 0. -1.
          1   -1    0    0  501    0 -0.00000000000E+00 -0.00000000000E+00 -0.63923932097E+03  0.63923932097E+03  0.00000000000E+00 0. -1.
         25    2    1    2    0    0  0.62397997229E+01 -0.54776299512E+02 -0.45624180692E+03  0.47625693899E+03  0.12499882989E+03 0.  0.
          2    1    1    2  501    0  0.23106885357E+02 -0.40555568440E+01 -0.16557277967E+03  0.16722655609E+03  0.00000000000E+00 0. -1.
          1    1    1    2  502    0 -0.29346685080E+02  0.58831856356E+02  0.15737904894E+03  0.17055960920E+03  0.00000000000E+00 0. -1.
         22    1    3    3    0    0 -0.36435763432E+02  0.22035922589E+02 -0.89183891380E+02  0.98827694615E+02  0.00000000000E+00 0.  1.
         22    1    3    3    0    0  0.42675563155E+02 -0.76812222101E+02 -0.36705791554E+03  0.37742924438E+03  0.00000000000E+00 0.  1.
</event>
<event>
 7    1  0.6089676E-006  0.6997120E+02  0.7818608E-02  0.1376884E+00
          2   -1    0    0  502    0  0.00000000000E+00  0.00000000000E+00  0.10893583996E+04  0.10893583996E+04  0.00000000000E+00 0. -1.
          1   -1    0    0  501    0 -0.00000000000E+00 -0.00000000000E+00 -0.10886549619E+04  0.10886549619E+04  0.00000000000E+00 0. -1.
         25    2    1    2    0    0 -0.21815972704E+02  0.25245322162E+02  0.73062228481E+02  0.14857951318E+03  0.12499807818E+03 0.  0.
          2    1    1    2  501    0 -0.49162217815E+02 -0.35980152194E+02 -0.10486945437E+04  0.10504626319E+04  0.00000000000E+00 0. -1.
          1    1    1    2  502    0  0.70978190519E+02  0.10734830032E+02  0.97633575295E+03  0.97897121643E+03  0.00000000000E+00 0. -1.
         22    1    3    3    0    0 -0.56985062154E+02 -0.26249349811E+02  0.17693544801E+02  0.65187323935E+02  0.00000000000E+00 0.  1.
         22    1    3    3    0    0  0.35169089450E+02  0.51494671972E+02  0.55368683680E+02  0.83392189243E+02  0.00000000000E+00 0.  1.
</event>
<event>
 7    1  0.6089676E-006  0.5839514E+02  0.7818608E-02  0.1468626E+00
          2   -1    0    0  502    0  0.00000000000E+00  0.00000000000E+00  0.49045094171E+03  0.49045094171E+03  0.00000000000E+00 0. -1.
          1   -1    0    0  501    0 -0.00000000000E+00 -0.00000000000E+00 -0.31459598845E+03  0.31459598845E+03  0.00000000000E+00 0. -1.
         25    2    1    2    0    0 -0.24063814238E+02  0.20004339009E+02 -0.34724931805E+02  0.13345559205E+03  0.12500133369E+03 0.  0.
          2    1    1    2  501    0 -0.34394114118E+02 -0.11043175710E+02 -0.22708930751E+03  0.22994447243E+03  0.00000000000E+00 0. -1.
          1    1    1    2  502    0  0.58457928356E+02 -0.89611632986E+01  0.43766919258E+03  0.44164686569E+03  0.00000000000E+00 0. -1.
         22    1    3    3    0    0 -0.46054940986E+02 -0.31974385770E+02  0.15214800994E+02  0.58093967878E+02  0.00000000000E+00 0. -1.
         22    1    3    3    0    0  0.21991126747E+02  0.51978724779E+02 -0.49939732798E+02  0.75361624168E+02  0.00000000000E+00 0. -1.
</event>
<event>
 7    1  0.6089676E-006  0.1547364E+03  0.7818608E-02  0.1249015E+00
          2   -1    0    0  502    0  0.00000000000E+00  0.00000000000E+00  0.73861118221E+03  0.73861118221E+03  0.00000000000E+00 0. -1.
          1   -1    0    0  501    0 -0.00000000000E+00 -0.00000000000E+00 -0.11777489204E+04  0.11777489204E+04  0.00000000000E+00 0. -1.
         25    2    1    2    0    0  0.17021413253E+03  0.13528609405E+03  0.20745083739E+03  0.32548044882E+03  0.12500597777E+03 0.  0.
          2    1    1    2  501    0 -0.14489272324E+03 -0.51335681939E+02 -0.11093168088E+04  0.11199165308E+04  0.00000000000E+00 0. -1.
          1    1    1    2  502    0 -0.25321409286E+02 -0.83950412109E+02  0.46272823323E+03  0.47096312307E+03  0.00000000000E+00 0. -1.
         22    1    3    3    0    0  0.17071920001E+03  0.13916651617E+03  0.14677724277E+03  0.26468079543E+03  0.00000000000E+00 0.  1.
         22    1    3    3    0    0 -0.50506747828E+00 -0.38804221241E+01  0.60673594615E+02  0.60799653392E+02  0.00000000000E+00 0.  1.
</event>
<event>
 7    1  0.6089676E-006  0.2601649E+03  0.7818608E-02  0.1267936E+00
          2   -1    0    0  502    0  0.00000000000E+00  0.00000000000E+00  0.10224832414E+04  0.10224832414E+04  0.00000000000E+00 0. -1.
          1   -1    0    0  501    0 -0.00000000000E+00 -0.00000000000E+00 -0.19238865065E+04  0.19238865065E+04  0.00000000000E+00 0. -1.
         25    2    1    2    0    0  0.17238704497E+03  0.23605416307E+03  0.63948230276E+03  0.71414450880E+03  0.12500361089E+03 0.  0.
          2    1    1    2  501    0 -0.13067570742E+03 -0.22449804718E+03 -0.18762162809E+04  0.18941127333E+04  0.00000000000E+00 0. -1.
          1    1    1    2  502    0 -0.41711337544E+02 -0.11556115895E+02  0.33533071305E+03  0.33811250584E+03  0.00000000000E+00 0. -1.
         22    1    3    3    0    0  0.94937643200E+01  0.11376893789E+03  0.22324853878E+03  0.25074571354E+03  0.00000000000E+00 0.  1.
         22    1    3    3    0    0  0.16289328065E+03  0.12228522518E+03  0.41623376398E+03  0.46339879526E+03  0.00000000000E+00 0.  1.
</event>
<event>
 7    1  0.6089676E-006  0.8849174E+02  0.7818608E-02  0.1393571E+00
          2   -1    0    0  502    0  0.00000000000E+00  0.00000000000E+00  0.97916797915E+02  0.97916797915E+02  0.00000000000E+00 0. -1.
          1   -1    0    0  501    0 -0.00000000000E+00 -0.00000000000E+00 -0.19016376899E+04  0.19016376899E+04  0.00000000000E+00 0. -1.
         25    2    1    2    0    0 -0.16147111919E+02  0.56434191947E+02 -0.14047592679E+03  0.19698599997E+03  0.12499780371E+03 0.  0.
          2    1    1    2  501    0 -0.35230496580E+02  0.23023788929E+02 -0.17003947176E+04  0.17009154825E+04  0.00000000000E+00 0. -1.
          1    1    1    2  502    0  0.51377608498E+02 -0.79457980876E+02  0.37149752496E+02  0.10165300532E+03  0.00000000000E+00 0. -1.
         22    1    3    3    0    0 -0.58676006248E+02  0.11871134226E+02 -0.11631599809E+03  0.13081746424E+03  0.00000000000E+00 0. -1.
         22    1    3    3    0    0  0.42528894329E+02  0.44563057721E+02 -0.24159928695E+02  0.66168535732E+02  0.00000000000E+00 0. -1.
</event>
<event>
 7    1  0.8370686E-006  0.1239995E+03  0.7818608E-02  0.1265578E+00
          2   -1    0    0  502    0  0.00000000000E+00  0.00000000000E+00  0.13356223498E+04  0.13356223498E+04  0.00000000000E+00 0. -1.
          1   -1    0    0  501    0 -0.00000000000E+00 -0.00000000000E+00 -0.19250210470E+04  0.19250210470E+04  0.00000000000E+00 0. -1.
         25    2    1    2    0    0  0.53961573489E+02 -0.83860664449E+01 -0.16850632579E+03  0.21680448666E+03  0.12501050390E+03 0.  0.
          2    1    1    2  501    0 -0.11874386784E+03 -0.58224234734E+02 -0.17281902324E+04  0.17332431010E+04  0.00000000000E+00 0. -1.
          1    1    1    2  502    0  0.64782294354E+02  0.66610301179E+02  0.13072978609E+04  0.13105958092E+04  0.00000000000E+00 0. -1.
         22    1    3    3    0    0 -0.20050724740E+02 -0.43034475303E+02 -0.97907957060E+02  0.10881160638E+03  0.00000000000E+00 0.  1.
         22    1    3    3    0    0  0.74012298229E+02  0.34648408858E+02 -0.70598368726E+02  0.10799288029E+03  0.00000000000E+00 0.  1.
</event>
<event>
 7    1  0.6089676E-006  0.7924959E+02  0.7818608E-02  0.1351884E+00
          2   -1    0    0  502    0  0.00000000000E+00  0.00000000000E+00  0.53739658466E+03  0.53739658466E+03  0.00000000000E+00 0. -1.
          1   -1    0    0  501    0 -0.00000000000E+00 -0.00000000000E+00 -0.60874949885E+02  0.60874949885E+02  0.00000000000E+00 0. -1.
         25    2    1    2    0    0  0.60956552026E+02 -0.92803619920E+02  0.14167135963E+03  0.21914309072E+03  0.12499882786E+03 0.  0.
          2    1    1    2  501    0 -0.66611625805E+02  0.26771899584E+02  0.52069029177E+02  0.88684988015E+02  0.00000000000E+00 0. -1.
          1    1    1    2  502    0  0.56550737798E+01  0.66031720336E+02  0.28278124597E+03  0.29044345581E+03  0.00000000000E+00 0. -1.
         22    1    3    3    0    0 -0.23723781432E+02  0.84094695966E+01 -0.48639175916E+00  0.25174859707E+02  0.00000000000E+00 0. -1.
         22    1    3    3    0    0  0.84680333457E+02 -0.10121308952E+03  0.14215775139E+03  0.19396823102E+03  0.00000000000E+00 0. -1.
</event>
<event>
 7    1  0.6089676E-006  0.1162885E+03  0.7818608E-02  0.1310627E+00
          2   -1    0    0  502    0  0.00000000000E+00  0.00000000000E+00  0.27742750516E+03  0.27742750516E+03  0.00000000000E+00 0. -1.
          1   -1    0    0  501    0 -0.00000000000E+00 -0.00000000000E+00 -0.14642621946E+04  0.14642621946E+04  0.00000000000E+00 0. -1.
         25    2    1    2    0    0  0.29662589232E+02 -0.14455505421E+03  0.16247087552E+03  0.25256204471E+03  0.12495906586E+03 0.  0.
          2    1    1    2  501    0  0.19234302894E+02  0.61969407545E+02 -0.13851560574E+04  0.13866749689E+04  0.00000000000E+00 0. -1.
          1    1    1    2  502    0 -0.48896892126E+02  0.82585646660E+02  0.35850492475E+02  0.10245268618E+03  0.00000000000E+00 0. -1.
         22    1    3    3    0    0 -0.41185859904E+02 -0.25421334342E+02  0.72992844169E+02  0.87581245685E+02  0.00000000000E+00 0.  1.
         22    1    3    3    0    0  0.70848449136E+02 -0.11913371986E+03  0.89478031347E+02  0.16498079903E+03  0.00000000000E+00 0.  1.
</event>
<event>
 7    1  0.6089676E-006  0.6562304E+02  0.7818608E-02  0.1461960E+00
          2   -1    0    0  502    0  0.00000000000E+00  0.00000000000E+00  0.68831895809E+03  0.68831895809E+03  0.00000000000E+00 0. -1.
          1   -1    0    0  501    0 -0.00000000000E+00 -0.00000000000E+00 -0.63593683055E+03  0.63593683055E+03  0.00000000000E+00 0. -1.
         25    2    1    2    0    0 -0.36532311991E+01  0.33442790217E+02  0.49480369832E+03  0.51145618207E+03  0.12499983997E+03 0.  0.
          2    1    1    2  501    0 -0.73569656818E+01 -0.65322536728E+02 -0.62433495891E+03  0.62778603016E+03  0.00000000000E+00 0. -1.
          1    1    1    2  502    0  0.11010196881E+02  0.31879746511E+02  0.18191338813E+03  0.18501357640E+03  0.00000000000E+00 0. -1.
         22    1    3    3    0    0  0.33745735134E+02  0.69647928374E+02  0.29735954969E+03  0.30726586266E+03  0.00000000000E+00 0. -1.
         22    1    3    3    0    0 -0.37398966333E+02 -0.36205138157E+02  0.19744414863E+03  0.20419031941E+03  0.00000000000E+00 0. -1.
</event>
<event>
 7    1  0.6089676E-006  0.1356046E+03  0.7818608E-02  0.1263891E+00
          2   -1    0    0  502    0  0.00000000000E+00  0.00000000000E+00  0.39022893102E+03  0.39022893102E+03  0.00000000000E+00 0. -1.
          1   -1    0    0  501    0 -0.00000000000E+00 -0.00000000000E+00 -0.27252165251E+04  0.27252165251E+04  0.00000000000E+00 0. -1.
         25    2    1    2    0    0  0.79440473308E+02  0.13829313095E+03  0.16497202325E+03  0.26128722619E+03  0.12497786702E+03 0.  0.
          2    1    1    2  501    0  0.37440524458E+02 -0.77838909636E+02 -0.26518145686E+04  0.26532209095E+04  0.00000000000E+00 0. -1.
          1    1    1    2  502    0 -0.11688099777E+03 -0.60454221314E+02  0.15185495124E+03  0.20093732040E+03  0.00000000000E+00 0. -1.
         22    1    3    3    0    0 -0.10245107693E+02 -0.17102299227E+02  0.41981892513E+01  0.20373405790E+02  0.00000000000E+00 0.  1.
         22    1    3    3    0    0  0.89685581002E+02  0.15539543018E+03  0.16077383400E+03  0.24091382040E+03  0.00000000000E+00 0.  1.
</event>
<event>
 7    1  0.6089676E-006  0.1345903E+03  0.7818608E-02  0.1379861E+00
          2   -1    0    0  502    0  0.00000000000E+00  0.00000000000E+00  0.11770614592E+04  0.11770614592E+04  0.00000000000E+00 0. -1.
          1   -1    0    0  501    0 -0.00000000000E+00 -0.00000000000E+00 -0.46681211672E+03  0.46681211672E+03  0.00000000000E+00 0. -1.
         25    2    1    2    0    0 -0.98213215136E+02 -0.74214127198E+02  0.12612623724E+03  0.21606791762E+03  0.12499577992E+03 0.  0.
          2    1    1    2  501    0  0.87706458411E+02  0.10328457170E+03 -0.41071408450E+03  0.43248836378E+03  0.00000000000E+00 0. -1.
          1    1    1    2  502    0  0.10506756726E+02 -0.29070444505E+02  0.99483718976E+03  0.99531729454E+03  0.00000000000E+00 0. -1.
         22    1    3    3    0    0 -0.49417313939E+02 -0.98591420861E+02  0.46810376174E+02  0.11980630410E+03  0.00000000000E+00 0. -1.
         22    1    3    3    0    0 -0.48795901197E+02  0.24377293663E+02  0.79315861066E+02  0.96261613516E+02  0.00000000000E+00 0. -1.
</event>
<event>
 7    1  0.6089676E-006  0.3748738E+03  0.7818608E-02  0.1287586E+00
          2   -1    0    0  502    0  0.00000000000E+00  0.00000000000E+00  0.54491667627E+03  0.54491667627E+03  0.00000000000E+00 0. -1.
          1   -1    0    0  501    0 -0.00000000000E+00 -0.00000000000E+00 -0.44953611301E+03  0.44953611301E+03  0.00000000000E+00 0. -1.
         25    2    1    2    0    0  0.31041039680E+03 -0.22198471460E+03  0.10798491537E+03  0.41583468439E+03  0.12500365928E+03 0.  0.
          2    1    1    2  501    0 -0.28887803546E+03  0.23448701439E+03 -0.17722820671E+03  0.41212196804E+03  0.00000000000E+00 0. -1.
          1    1    1    2  502    0 -0.21532361341E+02 -0.12502299792E+02  0.16462385459E+03  0.16649613685E+03  0.00000000000E+00 0. -1.
         22    1    3    3    0    0  0.12869442662E+03 -0.10475057124E+03  0.11086485253E+03  0.19956440851E+03  0.00000000000E+00 0.  1.
         22    1    3    3    0    0  0.18171597018E+03 -0.11723414336E+03 -0.28799371621E+01  0.21627027588E+03  0.00000000000E+00 0.  1.
</event>
<event>
 7    1  0.6089676E-006  0.6694054E+02  0.7818608E-02  0.1403529E+00
          2   -1    0    0  502    0  0.00000000000E+00  0.00000000000E+00  0.38487994445E+03  0.38487994445E+03  0.00000000000E+00 0. -1.
          1   -1    0    0  501    0 -0.00000000000E+00 -0.00000000000E+00 -0.59872525483E+03  0.59872525483E+03  0.00000000000E+00 0. -1.
         25    2    1    2    0    0  0.65921586468E+02  0.52526576013E+02 -0.13026911142E+03  0.19924872039E+03  0.12500125773E+03 0.  0.
          2    1    1    2  501    0  0.10049151868E+01 -0.51399670629E+02 -0.42922164625E+03  0.43228943730E+03  0.00000000000E+00 0. -1.
          1    1    1    2  502    0 -0.66926501655E+02 -0.11269053834E+01  0.34564544729E+03  0.35206704159E+03  0.00000000000E+00 0. -1.
         22    1    3    3    0    0  0.74417111244E+02  0.73657953244E+01 -0.16541986085E+02  0.76588502338E+02  0.00000000000E+00 0. -1.
         22    1    3    3    0    0 -0.84955247765E+01  0.45160780688E+02 -0.11372712534E+03  0.12266021805E+03  0.00000000000E+00 0. -1.
</event>
<event>
 7    1  0.6089676E-006  0.1825312E+03  0.7818608E-02  0.1249138E+00
          2   -1    0    0  502    0  0.00000000000E+00  0.00000000000E+00  0.21657642513E+04  0.21657642513E+04  0.00000000000E+00 0. -1.
          1   -1    0    0  501    0 -0.00000000000E+00 -0.00000000000E+00 -0.14848458877E+04  0.14848458877E+04  0.00000000000E+00 0. -1.
         25    2    1    2    0    0  0.16160309371E+03  0.93178987243E+02 -0.21214176891E+03  0.30890332272E+03  0.12497699433E+03 0.  0.
          2    1    1    2  501    0 -0.52001208633E+02  0.52988154585E+02 -0.12192512308E+04  0.12215094900E+04  0.00000000000E+00 0. -1.
          1    1    1    2  502    0 -0.10960188508E+03 -0.14616714183E+03  0.21123113634E+04  0.21201973263E+04  0.00000000000E+00 0. -1.
         22    1    3    3    0    0 -0.20216525917E+02  0.24654084084E+00 -0.16238887654E+02  0.25932029901E+02  0.00000000000E+00 0.  1.
         22    1    3    3    0    0  0.18181961963E+03  0.92932446403E+02 -0.19590288126E+03  0.28297129282E+03  0.00000000000E+00 0.  1.
</event>
<event>
 7    1  0.6089676E-006  0.8444066E+02  0.7818608E-02  0.1358195E+00
          2   -1    0    0  502    0  0.00000000000E+00  0.00000000000E+00  0.47226244967E+03  0.47226244967E+03  0.00000000000E+00 0. -1.
          1   -1    0    0  501    0 -0.00000000000E+00 -0.00000000000E+00 -0.26329115071E+03  0.26329115071E+03  0.00000000000E+00 0. -1.
         25    2    1    2    0    0 -0.41080550444E+02  0.27721696910E+02 -0.10205331151E+01  0.13446982712E+03  0.12499995525E+03 0.  0.
          2    1    1    2  501    0  0.16751288192E+02  0.56533633031E+02 -0.18619439727E+03  0.19530747782E+03  0.00000000000E+00 0. -1.
          1    1    1    2  502    0  0.24329262252E+02 -0.84255329941E+02  0.39618622934E+03  0.40577629544E+03  0.00000000000E+00 0. -1.
         22    1    3    3    0    0 -0.56306309858E+02  0.67691838687E+02  0.13963717885E+02  0.89149150146E+02  0.00000000000E+00 0.  1.
         22    1    3    3    0    0  0.15225759413E+02 -0.39970141777E+02 -0.14984251000E+02  0.45320676974E+02  0.00000000000E+00 0.  1.
</event>
<event>
 7    1  0.6089676E-006  0.1315698E+03  0.7818608E-02  0.1256080E+00
          2   -1    0    0  502    0  0.00000000000E+00  0.00000000000E+00  0.25850360438E+04  0.25850360438E+04  0.00000000000E+00 0. -1.
          1   -1    0    0  501    0 -0.00000000000E+00 -0.00000000000E+00 -0.21303045134E+03  0.21303045134E+03  0.00000000000E+00 0. -1.
         25    2    1    2    0    0  0.34873115147E+02  0.82821223899E+02  0.17064699403E+03  0.22982748246E+03  0.12499914334E+03 0.  0.
          2    1    1    2  501    0  0.90923540125E+02 -0.31198110664E+02 -0.16876307882E+03  0.19421995014E+03  0.00000000000E+00 0. -1.
          1    1    1    2  502    0 -0.12579665527E+03 -0.51623113236E+02  0.23701216773E+04  0.23740190626E+04  0.00000000000E+00 0. -1.
         22    1    3    3    0    0 -0.32910146103E+01 -0.24148932606E+02  0.82602742652E+02  0.86123253636E+02  0.00000000000E+00 0. -1.
         22    1    3    3    0    0  0.38164129757E+02  0.10697015651E+03  0.88044251375E+02  0.14370422883E+03  0.00000000000E+00 0. -1.
</event>
<event>
 7    1  0.6089676E-006  0.6445025E+02  0.7818608E-02  0.1462685E+00
          2   -1    0    0  502    0  0.00000000000E+00  0.00000000000E+00  0.58063439792E+03  0.58063439792E+03  0.00000000000E+00 0. -1.
          1   -1    0    0  501    0 -0.00000000000E+00 -0.00000000000E+00 -0.48509773517E+03  0.48509773517E+03  0.00000000000E+00 0. -1.
         25    2    1    2    0    0  0.59581787210E+02  0.24203386865E+02  0.39608629197E+02  0.14604696361E+03  0.12500031508E+03 0.  0.
          2    1    1    2  501    0 -0.39090009306E+02 -0.51536314216E+02 -0.42885212856E+03  0.43370285759E+03  0.00000000000E+00 0. -1.
          1    1    1    2  502    0 -0.20491777904E+02  0.27332927352E+02  0.48478016212E+03  0.48598231188E+03  0.00000000000E+00 0. -1.
         22    1    3    3    0    0  0.35229811152E+02 -0.31212953522E+02 -0.28423637883E+02  0.54984463732E+02  0.00000000000E+00 0.  1.
         22    1    3    3    0    0  0.24351976058E+02  0.55416340387E+02  0.68032267081E+02  0.91062499877E+02  0.00000000000E+00 0.  1.
</event>
<event>
 7    1  0.6089676E-006  0.7896187E+02  0.7818608E-02  0.1464735E+00
          2   -1    0    0  502    0  0.00000000000E+00  0.00000000000E+00  0.74945355335E+03  0.74945355335E+03  0.00000000000E+00 0. -1.
          1   -1    0    0  501    0 -0.00000000000E+00 -0.00000000000E+00 -0.22742798595E+04  0.22742798595E+04  0.00000000000E+00 0. -1.
         25    2    1    2    0    0 -0.21257684940E+02  0.10038638560E+03 -0.44940830840E+03  0.47761372179E+03  0.12497089262E+03 0.  0.
          2    1    1    2  501    0  0.16917867459E+02 -0.21646430475E+02 -0.18085499813E+04  0.18087586398E+04  0.00000000000E+00 0. -1.
          1    1    1    2  502    0  0.43398174809E+01 -0.78739955123E+02  0.73313198357E+03  0.73736105124E+03  0.00000000000E+00 0. -1.
         22    1    3    3    0    0  0.17444249668E+01  0.11186373316E+03 -0.43275913482E+03  0.44698658435E+03  0.00000000000E+00 0.  1.
         22    1    3    3    0    0 -0.23002109907E+02 -0.11477347561E+02 -0.16649173576E+02  0.30627137443E+02  0.00000000000E+00 0.  1.
</event>
<event>
 7    1  0.6089676E-006  0.1194409E+03  0.7818608E-02  0.1382115E+00
          2   -1    0    0  502    0  0.00000000000E+00  0.00000000000E+00  0.48138837661E+04  0.48138837661E+04  0.00000000000E+00 0. -1.
          1   -1    0    0  501    0 -0.00000000000E+00 -0.00000000000E+00 -0.31513906294E+03  0.31513906294E+03  0.00000000000E+00 0. -1.
         25    2    1    2    0    0 -0.89875209092E+02 -0.17410854942E+02  0.87031699190E+03  0.88400064737E+03  0.12499914828E+03 0.  0.
          2    1    1    2  501    0 -0.27825229784E+02 -0.19881108733E+02 -0.30637758852E+03  0.30828027612E+03  0.00000000000E+00 0. -1.
          1    1    1    2  502    0  0.11770043888E+03  0.37291963675E+02  0.39348052997E+04  0.39367419055E+04  0.00000000000E+00 0. -1.
         22    1    3    3    0    0 -0.75510482809E+02  0.11229882536E+02  0.82486543337E+03  0.82839056395E+03  0.00000000000E+00 0. -1.
         22    1    3    3    0    0 -0.14364726283E+02 -0.28640737478E+02  0.45451558537E+02  0.55610083420E+02  0.00000000000E+00 0. -1.
</event>
<event>
 7    1  0.6089676E-006  0.8052743E+02  0.7818608E-02  0.1483383E+00
          2   -1    0    0  502    0  0.00000000000E+00  0.00000000000E+00  0.21306416283E+04  0.21306416283E+04  0.00000000000E+00 0. -1.
          1   -1    0    0  501    0 -0.00000000000E+00 -0.00000000000E+00 -0.18688660563E+03  0.18688660563E+03  0.00000000000E+00 0. -1.
         25    2    1    2    0    0 -0.49848925082E+02 -0.40208031234E+02  0.57169206196E+03  0.58869254673E+03  0.12500199905E+03 0.  0.
          2    1    1    2  501    0 -0.23520520395E+02  0.17906030744E+01 -0.17649517266E+03  0.17806450267E+03  0.00000000000E+00 0. -1.
          1    1    1    2  502    0  0.73369445478E+02  0.38417428160E+02  0.15485581334E+04  0.15507711846E+04  0.00000000000E+00 0. -1.
         22    1    3    3    0    0 -0.55947850816E+02  0.26936794703E+02  0.38964535032E+03  0.39456210151E+03  0.00000000000E+00 0. -1.
         22    1    3    3    0    0  0.60989257340E+01 -0.67144825938E+02  0.18204671164E+03  0.19413044522E+03  0.00000000000E+00 0. -1.
</event>
<event>
 7    1  0.6089676E-006  0.1163510E+03  0.7818608E-02  0.1315764E+00
          2   -1    0    0  502    0  0.00000000000E+00  0.00000000000E+00  0.22089839838E+04  0.22089839838E+04  0.00000000000E+00 0. -1.
          1   -1    0    0  501    0 -0.00000000000E+00 -0.00000000000E+00 -0.94461160943E+03  0.94461160943E+03  0.00000000000E+00 0. -1.
         25    2    1    2    0    0  0.13515390096E+03 -0.99327410101E+02  0.23465399977E+03  0.31435686182E+03  0.12500090248E+03 0.  0.
          2    1    1    2  501    0 -0.60611371957E+02  0.12622075341E+02 -0.90200847786E+03  0.90413071474E+03  0.00000000000E+00 0. -1.
          1    1    1    2  502    0 -0.74542528999E+02  0.86705334760E+02  0.19317268525E+04  0.19351080167E+04  0.00000000000E+00 0. -1.
         22    1    3    3    0    0  0.75802601156E+02  0.12742345508E+02  0.55272795225E+02  0.94675675879E+02  0.00000000000E+00 0.  1.
         22    1    3    3    0    0  0.59351299800E+02 -0.11206975561E+03  0.17938120455E+03  0.21968118594E+03  0.00000000000E+00 0.  1.
</event>
<event>
 7    1  0.6089676E-006  0.8835298E+02  0.7818608E-02  0.1350397E+00
          2   -1    0    0  502    0  0.00000000000E+00  0.00000000000E+00  0.18051227597E+04  0.18051227597E+04  0.00000000000E+00 0. -1.
          1   -1    0    0  501    0 -0.00000000000E+00 -0.00000000000E+00 -0.14000438592E+03  0.14000438592E+03  0.00000000000E+00 0. -1.
         25    2    1    2    0    0  0.13336486646E+03  0.55390425799E+02  0.31885401441E+03  0.37168049076E+03  0.12499687129E+03 0.  0.
          2    1    1    2  501    0 -0.50831261185E+02 -0.32257347873E+02 -0.10425939985E+03  0.12039259139E+03  0.00000000000E+00 0. -1.
          1    1    1    2  502    0 -0.82533605276E+02 -0.23133077926E+02  0.14505237592E+04  0.14530540635E+04  0.00000000000E+00 0. -1.
         22    1    3    3    0    0 -0.98438661681E+01  0.13723366822E+01  0.12161699573E+03  0.12202245146E+03  0.00000000000E+00 0.  1.
         22    1    3    3    0    0  0.14320873263E+03  0.54018089117E+02  0.19723701868E+03  0.24965803931E+03  0.00000000000E+00 0.  1.
</event>
<event>
 7    1  0.6089676E-006  0.3721323E+03  0.7818608E-02  0.1221225E+00
          2   -1    0    0  502    0  0.00000000000E+00  0.00000000000E+00  0.15391711452E+04  0.15391711452E+04  0.00000000000E+00 0. -1.
          1   -1    0    0  501    0 -0.00000000000E+00 -0.00000000000E+00 -0.11856968728E+04  0.11856968728E+04  0.00000000000E+00 0. -1.
         25    2    1    2    0    0 -0.32888563492E+03  0.67771942981E+02  0.65049302909E+02  0.36416563410E+03  0.12500560043E+03 0.  0.
          2    1    1    2  501    0  0.37454880737E+03 -0.51544391763E+02 -0.10011789424E+04  0.10701882583E+04  0.00000000000E+00 0. -1.
          1    1    1    2  502    0 -0.45663172455E+02 -0.16227551217E+02  0.12896039119E+04  0.12905141256E+04  0.00000000000E+00 0. -1.
         22    1    3    3    0    0 -0.27954055649E+03  0.71287645415E+02  0.79224092966E+01  0.28859593844E+03  0.00000000000E+00 0. -1.
         22    1    3    3    0    0 -0.49345078424E+02 -0.35157024340E+01  0.57126893613E+02  0.75569695660E+02  0.00000000000E+00 0. -1.
</event>
<event>
 7    1  0.6089676E-006  0.1252544E+03  0.7818608E-02  0.1333119E+00
          2   -1    0    0  502    0  0.00000000000E+00  0.00000000000E+00  0.48745826544E+04  0.48745826544E+04  0.00000000000E+00 0. -1.
          1   -1    0    0  501    0 -0.00000000000E+00 -0.00000000000E+00 -0.30713365315E+03  0.30713365315E+03  0.00000000000E+00 0. -1.
         25    2    1    2    0    0 -0.11011079044E+03  0.12140691889E+03  0.16363910346E+04  0.16493226929E+04  0.12500280382E+03 0.  0.
          2    1    1    2  501    0  0.43780027520E+02 -0.22674124471E+02 -0.29754411820E+03  0.30160124172E+03  0.00000000000E+00 0. -1.
          1    1    1    2  502    0  0.66330762921E+02 -0.98732794421E+02  0.32286020848E+04  0.32307923729E+04  0.00000000000E+00 0. -1.
         22    1    3    3    0    0  0.10698137173E+02  0.18006809256E+02  0.63830974144E+03  0.63865328727E+03  0.00000000000E+00 0.  1.
         22    1    3    3    0    0 -0.12080892761E+03  0.10340010964E+03  0.99808129318E+03  0.10106694056E+04  0.00000000000E+00 0.  1.
</event>
<event>
 7    1  0.6089676E-006  0.6468055E+02  0.7818608E-02  0.1469937E+00
          2   -1    0    0  502    0  0.00000000000E+00  0.00000000000E+00  0.15417782547E+02  0.15417782547E+02  0.00000000000E+00 0. -1.
          1   -1    0    0  501    0 -0.00000000000E+00 -0.00000000000E+00 -0.15505307955E+04  0.15505307955E+04  0.00000000000E+00 0. -1.
         25    2    1    2    0    0  0.16125776202E+02 -0.65567194114E+02 -0.66565770151E+03  0.68064921624E+03  0.12499632953E+03 0.  0.
          2    1    1    2  501    0  0.16105630122E+02  0.63340346836E+02 -0.83684959236E+03  0.83939777883E+03  0.00000000000E+00 0. -1.
          1    1    1    2  502    0 -0.32231406324E+02  0.22268472779E+01 -0.32605719065E+02  0.45901582959E+02  0.00000000000E+00 0. -1.
         22    1    3    3    0    0  0.37016553616E+02  0.26686509297E+02 -0.16830816341E+03  0.17438472666E+03  0.00000000000E+00 0.  1.
         22    1    3    3    0    0 -0.20890777414E+02 -0.92253703412E+02 -0.49734953809E+03  0.50626448959E+03  0.00000000000E+00 0.  1.
</event>
<event>
 7    1  0.6089676E-006  0.1066488E+03  0.7818608E-02  0.1454174E+00
          2   -1    0    0  502    0  0.00000000000E+00  0.00000000000E+00  0.92559724454E+03  0.92559724454E+03  0.00000000000E+00 0. -1.
          1   -1    0    0  501    0 -0.00000000000E+00 -0.00000000000E+00 -0.90360739303E+02  0.90360739303E+02  0.00000000000E+00 0. -1.
         25    2    1    2    0    0  0.30930887073E+02  0.11465655600E+03  0.14707625072E+03  0.22662559818E+03  0.12499957046E+03 0.  0.
          2    1    1    2  501    0 -0.19740905895E+02 -0.96290733176E+01 -0.44220359793E+02  0.49374716594E+02  0.00000000000E+00 0. -1.
          1    1    1    2  502    0 -0.11189981178E+02 -0.10502748268E+03  0.73238061430E+03  0.73995766906E+03  0.00000000000E+00 0. -1.
         22    1    3    3    0    0  0.19921423447E+02  0.12765395750E+03  0.68520822499E+02  0.14624465493E+03  0.00000000000E+00 0. -1.
         22    1    3    3    0    0  0.11009463626E+02 -0.12997401503E+02  0.78555428224E+02  0.80380943255E+02  0.00000000000E+00 0. -1.
</event>
<event>
 7    1  0.6089676E-006  0.3826283E+02  0.7818608E-02  0.1526605E+00
          2   -1    0    0  502    0  0.00000000000E+00  0.00000000000E+00  0.22669195501E+03  0.22669195501E+03  0.00000000000E+00 0. -1.
          1   -1    0    0  501    0 -0.00000000000E+00 -0.00000000000E+00 -0.11278377791E+04  0.11278377791E+04  0.00000000000E+00 0. -1.
         25    2    1    2    0    0 -0.51150670475E+00  0.16039633168E+02  0.22995649468E+02  0.12810077208E+03  0.12499390562E+03 0.  0.
          2    1    1    2  501    0  0.37753815853E+02 -0.62203843488E+01 -0.10724848651E+04  0.10731671955E+04  0.00000000000E+00 0. -1.
          1    1    1    2  502    0 -0.37242309148E+02 -0.98192488192E+01  0.14834339155E+03  0.15326176645E+03  0.00000000000E+00 0. -1.
         22    1    3    3    0    0 -0.59191699182E+02  0.28206873218E+02  0.17831524868E+02  0.67950336481E+02  0.00000000000E+00 0. -1.
         22    1    3    3    0    0  0.58680192477E+02 -0.12167240050E+02  0.51641245996E+01  0.60150435597E+02  0.00000000000E+00 0. -1.
</event>
<event>
 7    1  0.6089676E-006  0.1749601E+03  0.7818608E-02  0.1283205E+00
          2   -1    0    0  502    0  0.00000000000E+00  0.00000000000E+00  0.15546250245E+04  0.15546250245E+04  0.00000000000E+00 0. -1.
          1   -1    0    0  501    0 -0.00000000000E+00 -0.00000000000E+00 -0.21487346492E+03  0.21487346492E+03  0.00000000000E+00 0. -1.
         25    2    1    2    0    0  0.15584316476E+03 -0.11620001568E+03  0.65882025533E+03  0.69818225359E+03  0.12499917899E+03 0.  0.
          2    1    1    2  501    0 -0.10512344856E+03  0.13897847748E+03 -0.15519200778E+03  0.23334634327E+03  0.00000000000E+00 0. -1.
          1    1    1    2  502    0 -0.50719716199E+02 -0.22778461802E+02  0.83612331203E+03  0.83796989257E+03  0.00000000000E+00 0. -1.
         22    1    3    3    0    0  0.15363193318E+03 -0.57044374188E+02  0.55479260815E+03  0.57849085522E+03  0.00000000000E+00 0.  1.
         22    1    3    3    0    0  0.22112315760E+01 -0.59155641489E+02  0.10402764719E+03  0.11969139837E+03  0.00000000000E+00 0.  1.
</event>
<event>
 7    1  0.6089676E-006  0.5298916E+02  0.7818608E-02  0.1442550E+00
          2   -1    0    0  502    0  0.00000000000E+00  0.00000000000E+00  0.31760112396E+03  0.31760112396E+03  0.00000000000E+00 0. -1.
          1   -1    0    0  501    0 -0.00000000000E+00 -0.00000000000E+00 -0.11972858678E+04  0.11972858678E+04  0.00000000000E+00 0. -1.
         25    2    1    2    0    0 -0.28611445207E+02 -0.53374270233E+02 -0.18376006800E+03  0.23035149162E+03  0.12500647816E+03 0.  0.
          2    1    1    2  501    0 -0.19419536404E+02  0.49737249942E+02 -0.98753313288E+03  0.98897553102E+03  0.00000000000E+00 0. -1.
          1    1    1    2  502    0  0.48030981611E+02  0.36370202908E+01  0.29160845705E+03  0.29555996910E+03  0.00000000000E+00 0. -1.
         22    1    3    3    0    0 -0.37615464297E+01 -0.26471347290E+02  0.13338160102E+02  0.29879557791E+02  0.00000000000E+00 0. -1.
         22    1    3    3    0    0 -0.24849898777E+02 -0.26902922943E+02 -0.19709822810E+03  0.20047193383E+03  0.00000000000E+00 0. -1.
</event>
<event>
 7    1  0.6089676E-006  0.4427114E+02  0.7818608E-02  0.1520320E+00
          2   -1    0    0  502    0  0.00000000000E+00  0.00000000000E+00  0.20516443849E+04  0.20516443849E+04  0.00000000000E+00 0. -1.
          1   -1    0    0  501    0 -0.00000000000E+00 -0.00000000000E+00 -0.97295285610E+03  0.97295285610E+03  0.00000000000E+00 0. -1.
         25    2    1    2    0    0  0.59003595957E+01  0.16512807544E+02  0.31895808672E+03  0.34302591900E+03  0.12500013186E+03 0.  0.
          2    1    1    2  501    0  0.16561852465E+02 -0.41108407255E+02 -0.96024658347E+03  0.96126879548E+03  0.00000000000E+00 0. -1.
          1    1    1    2  502    0 -0.22462212061E+02  0.24595599711E+02  0.17199800255E+04  0.17203025265E+04  0.00000000000E+00 0. -1.
         22    1    3    3    0    0 -0.12710574649E+02 -0.52664005509E+02  0.12378788750E+03  0.13512400703E+03  0.00000000000E+00 0.  1.
         22    1    3    3    0    0  0.18610934244E+02  0.69176813054E+02  0.19517019921E+03  0.20790191197E+03  0.00000000000E+00 0.  1.
</event>
<event>
 7    1  0.6089676E-006  0.1017407E+03  0.7818608E-02  0.1398913E+00
          2   -1    0    0  502    0  0.00000000000E+00  0.00000000000E+00  0.18467434166E+04  0.18467434166E+04  0.00000000000E+00 0. -1.
          1   -1    0    0  501    0 -0.00000000000E+00 -0.00000000000E+00 -0.17407108296E+03  0.17407108296E+03  0.00000000000E+00 0. -1.
         25    2    1    2    0    0  0.77554840083E+02 -0.64990591462E+00  0.77156172959E+03  0.78545997085E+03  0.12499875051E+03 0.  0.
          2    1    1    2  501    0  0.34282195876E+02  0.74472669951E+01 -0.16230476196E+03  0.16605290270E+03  0.00000000000E+00 0. -1.
          1    1    1    2  502    0 -0.11183703596E+03 -0.67973610805E+01  0.10634153660E+04  0.10693016260E+04  0.00000000000E+00 0. -1.
         22    1    3    3    0    0  0.11952742074E+02 -0.36361641870E+02  0.55616125475E+03  0.55747679623E+03  0.00000000000E+00 0. -1.
         22    1    3    3    0    0  0.65602098009E+02  0.35711735955E+02  0.21540047484E+03  0.22798317462E+03  0.00000000000E+00 0. -1.
</event>
<event>
 7    1  0.6089676E-006  0.1104834E+03  0.7818608E-02  0.1369271E+00
          2   -1    0    0  502    0  0.00000000000E+00  0.00000000000E+00  0.21467966540E+04  0.21467966540E+04  0.00000000000E+00 0. -1.
          1   -1    0    0  501    0 -0.00000000000E+00 -0.00000000000E+00 -0.57008471364E+02  0.57008471364E+02  0.00000000000E+00 0. -1.
         25    2    1    2    0    0  0.20857192469E+02 -0.13459631375E+03  0.56716508908E+03  0.59653321618E+03  0.12499779831E+03 0.  0.
          2    1    1    2  501    0 -0.30628364983E+02  0.27377930065E+02 -0.30032481319E+02  0.50888090260E+02  0.00000000000E+00 0. -1.
          1    1    1    2  502    0  0.97711725137E+01  0.10721838369E+03  0.15526555749E+04  0.15563838190E+04  0.00000000000E+00 0. -1.
         22    1    3    3    0    0  0.50914814071E+02 -0.13029909529E+03  0.53194209284E+03  0.55002960162E+03  0.00000000000E+00 0.  1.
         22    1    3    3    0    0 -0.30057621602E+02 -0.42972184632E+01  0.35222996240E+02  0.46503614559E+02  0.00000000000E+00 0.  1.
</event>
<event>
 7    1  0.6089676E-006  0.7132489E+02  0.7818608E-02  0.1411579E+00
          2   -1    0    0  502    0  0.00000000000E+00  0.00000000000E+00  0.24796528319E+03  0.24796528319E+03  0.00000000000E+00 0. -1.
          1   -1    0    0  501    0 -0.00000000000E+00 -0.00000000000E+00 -0.17952571606E+04  0.17952571606E+04  0.00000000000E+00 0. -1.
         25    2    1    2    0    0  0.83650602008E+02  0.79425375651E+02 -0.23372554228E+03  0.28906629487E+03  0.12500352077E+03 0.  0.
          2    1    1    2  501    0 -0.50956505593E+02 -0.48067627606E+02 -0.15307227956E+04  0.15323248152E+04  0.00000000000E+00 0. -1.
          1    1    1    2  502    0 -0.32694096414E+02 -0.31357748045E+02  0.21715646046E+03  0.22183133373E+03  0.00000000000E+00 0. -1.
         22    1    3    3    0    0  0.10775625235E+03  0.55208469865E+02 -0.22212759646E+03  0.25298231988E+03  0.00000000000E+00 0.  1.
         22    1    3    3    0    0 -0.24105650337E+02  0.24216905786E+02 -0.11597945826E+02  0.36083974994E+02  0.00000000000E+00 0.  1.
</event>
<event>
 7    1  0.6089676E-006  0.1497262E+03  0.7818608E-02  0.1224789E+00
          2   -1    0    0  502    0  0.00000000000E+00  0.00000000000E+00  0.36509436981E+04  0.36509436981E+04  0.00000000000E+00 0. -1.
          1   -1    0    0  501    0 -0.00000000000E+00 -0.00000000000E+00 -0.28376569276E+04  0.28376569276E+04  0.00000000000E+00 0. -1.
         25    2    1    2    0    0  0.15179883496E+03 -0.21760627262E+03  0.11586895845E+04  0.11952330934E+04  0.12500087252E+03 0.  0.
          2    1    1    2  501    0 -0.90216014724E+02  0.11925104122E+03 -0.28160396630E+04  0.28200069369E+04  0.00000000000E+00 0. -1.
          1    1    1    2  502    0 -0.61582820234E+02  0.98355231405E+02  0.24706368491E+04  0.24733605955E+04  0.00000000000E+00 0. -1.
         22    1    3    3    0    0  0.83316873545E-01 -0.10897998441E+02  0.28093065129E+01  0.11254577505E+02  0.00000000000E+00 0. -1.
         22    1    3    3    0    0  0.15171551808E+03 -0.20670827418E+03  0.11558802780E+04  0.11839785159E+04  0.00000000000E+00 0. -1.
</event>
<event>
 7    1  0.6089676E-006  0.6852357E+02  0.7818608E-02  0.1369752E+00
          2   -1    0    0  502    0  0.00000000000E+00  0.00000000000E+00  0.22666592373E+04  0.22666592373E+04  0.00000000000E+00 0. -1.
          1   -1    0    0  501    0 -0.00000000000E+00 -0.00000000000E+00 -0.15055316863E+04  0.15055316863E+04  0.00000000000E+00 0. -1.
         25    2    1    2    0    0  0.11820037200E+03  0.62047451416E+02 -0.54439242190E+02  0.19081409477E+03  0.12500069402E+03 0.  0.
          2    1    1    2  501    0 -0.54856965808E+02 -0.36648532017E+02 -0.13815880759E+04  0.13831623235E+04  0.00000000000E+00 0. -1.
          1    1    1    2  502    0 -0.63343406190E+02 -0.25398919399E+02  0.21971548692E+04  0.21982145053E+04  0.00000000000E+00 0. -1.
         22    1    3    3    0    0  0.11804798608E+03  0.87923951633E+02 -0.67378902583E+02  0.16188225598E+03  0.00000000000E+00 0. -1.
         22    1    3    3    0    0  0.15238591834E+00 -0.25876500216E+02  0.12939660392E+02  0.28931838794E+02  0.00000000000E+00 0. -1.
</event>
<event>
 7    1  0.6089676E-006  0.6342058E+02  0.7818608E-02  0.1414046E+00
          2   -1    0    0  502    0  0.00000000000E+00  0.00000000000E+00  0.60363140099E+02  0.60363140099E+02  0.00000000000E+00 0. -1.
          1   -1    0    0  501    0 -0.00000000000E+00 -0.00000000000E+00 -0.97641360554E+03  0.97641360554E+03  0.00000000000E+00 0. -1.
         25    2    1    2    0    0  0.59924983077E+01  0.36538307897E+02 -0.28837409359E+03  0.31647052458E+03  0.12499206811E+03 0.  0.
          2    1    1    2  501    0 -0.47557960588E+02  0.15370334725E+02 -0.64865374017E+03  0.65057642245E+03  0.00000000000E+00 0. -1.
          1    1    1    2  502    0  0.41565462280E+02 -0.51908642623E+02  0.20977368323E+02  0.69729798618E+02  0.00000000000E+00 0. -1.
         22    1    3    3    0    0  0.62967404716E+02  0.32902622103E+02 -0.18829880634E+03  0.20125584978E+03  0.00000000000E+00 0. -1.
         22    1    3    3    0    0 -0.56974906408E+02  0.36356857937E+01 -0.10007528725E+03  0.11521467480E+03  0.00000000000E+00 0. -1.
</event>
<event>
 7    1  0.6089676E-006  0.9015787E+02  0.7818608E-02  0.1362755E+00
          2   -1    0    0  502    0  0.00000000000E+00  0.00000000000E+00  0.35268355012E+02  0.35268355012E+02  0.00000000000E+00 0. -1.
          1   -1    0    0  501    0 -0.00000000000E+00 -0.00000000000E+00 -0.11449809058E+04  0.11449809058E+04  0.00000000000E+00 0. -1.
         25    2    1    2    0    0  0.93141183210E+02 -0.96025659447E+02 -0.48743946910E+03  0.52069094073E+03  0.12500244974E+03 0.  0.
          2    1    1    2  501    0 -0.65531632323E+02  0.50609975999E+02 -0.59325106932E+03  0.59900133201E+03  0.00000000000E+00 0. -1.
          1    1    1    2  502    0 -0.27609550887E+02  0.45415683449E+02 -0.29022012390E+02  0.60556988089E+02  0.00000000000E+00 0. -1.
         22    1    3    3    0    0 -0.19307255647E+02 -0.38074791391E+02 -0.52165631282E+02  0.67407068970E+02  0.00000000000E+00 0.  1.
         22    1    3    3    0    0  0.11244843886E+03 -0.57950868056E+02 -0.43527383781E+03  0.45328387176E+03  0.00000000000E+00 0.  1.
</event>
<event>
 7    1  0.6089676E-006  0.6391638E+02  0.7818608E-02  0.1512249E+00
          2   -1    0    0  502    0  0.00000000000E+00  0.00000000000E+00  0.89323719869E+03  0.89323719869E+03  0.00000000000E+00 0. -1.
          1   -1    0    0  501    0 -0.00000000000E+00 -0.00000000000E+00 -0.22960686238E+03  0.22960686238E+03  0.00000000000E+00 0. -1.
         25    2    1    2    0    0 -0.76124051057E+02  0.17751728308E+02  0.46869844916E+02  0.15469999488E+03  0.12500124417E+03 0.  0.
          2    1    1    2  501    0  0.55400439775E+02 -0.30550303951E+02 -0.16980176462E+03  0.18120477109E+03  0.00000000000E+00 0. -1.
          1    1    1    2  502    0  0.20723611281E+02  0.12798575643E+02  0.78656225601E+03  0.78693929510E+03  0.00000000000E+00 0. -1.
         22    1    3    3    0    0 -0.42508020638E+02 -0.25466737542E+02 -0.31780298512E+02  0.58868275948E+02  0.00000000000E+00 0.  1.
         22    1    3    3    0    0 -0.33616030418E+02  0.43218465850E+02  0.78650143427E+02  0.95831718928E+02  0.00000000000E+00 0.  1.
</event>
<event>
 7    1  0.6089676E-006  0.5378765E+02  0.7818608E-02  0.1473976E+00
          2   -1    0    0  502    0  0.00000000000E+00  0.00000000000E+00  0.11991492304E+04  0.11991492304E+04  0.00000000000E+00 0. -1.
          1   -1    0    0  501    0 -0.00000000000E+00 -0.00000000000E+00 -0.45732711645E+02  0.45732711645E+02  0.00000000000E+00 0. -1.
         25    2    1    2    0    0 -0.97584439467E+01 -0.64385588343E+02  0.28035090617E+03  0.31378638968E+03  0.12499814616E+03 0.  0.
          2    1    1    2  501    0 -0.27633035792E+02  0.25713551470E+02 -0.15571429381E+02  0.40831860223E+02  0.00000000000E+00 0. -1.
          1    1    1    2  502    0  0.37391479739E+02  0.38672036873E+02  0.88863704195E+03  0.89026369213E+03  0.00000000000E+00 0. -1.
         22    1    3    3    0    0  0.16599180385E+02 -0.54711721004E+02  0.35431446933E+02  0.67262862238E+02  0.00000000000E+00 0. -1.
         22    1    3    3    0    0 -0.26357624332E+02 -0.96738673395E+01  0.24491945924E+03  0.24652352744E+03  0.00000000000E+00 0. -1.
</event>
<event>
 7    1  0.6089676E-006  0.4751303E+02  0.7818608E-02  0.1568934E+00
          2   -1    0    0  502    0  0.00000000000E+00  0.00000000000E+00  0.83121164037E+03  0.83121164037E+03  0.00000000000E+00 0. -1.
          1   -1    0    0  501    0 -0.00000000000E+00 -0.00000000000E+00 -0.16386948664E+03  0.16386948664E+03  0.00000000000E+00 0. -1.
         25    2    1    2    0    0  0.17025358676E+01  0.68814216467E+02  0.88648721652E+02  0.16799691508E+03  0.12500429036E+03 0.  0.
          2    1    1    2  501    0 -0.54652926493E+01 -0.46469012621E+02 -0.11959823454E+03  0.12842498302E+03  0.00000000000E+00 0. -1.
          1    1    1    2  502    0  0.37627567817E+01 -0.22345203846E+02  0.69829166662E+03  0.69865922891E+03  0.00000000000E+00 0. -1.
         22    1    3    3    0    0  0.78340993822E+01  0.20628705654E+02  0.11196351421E+03  0.11411724289E+03  0.00000000000E+00 0. -1.
         22    1    3    3    0    0 -0.61315635146E+01  0.48185510813E+02 -0.23314792555E+02  0.53879672190E+02  0.00000000000E+00 0. -1.
</event>
<event>
 7    1  0.6089676E-006  0.1175687E+03  0.7818608E-02  0.1303655E+00
          2   -1    0    0  502    0  0.00000000000E+00  0.00000000000E+00  0.46335510731E+03  0.46335510731E+03  0.00000000000E+00 0. -1.
          1   -1    0    0  501    0 -0.00000000000E+00 -0.00000000000E+00 -0.19418146734E+04  0.19418146734E+04  0.00000000000E+00 0. -1.
         25    2    1    2    0    0 -0.70685245037E+02 -0.19230486882E+02 -0.85024065631E+02  0.16799114696E+03  0.12500287288E+03 0.  0.
          2    1    1    2  501    0 -0.46609738167E+02  0.50047263315E+02 -0.18059306329E+04  0.18072251235E+04  0.00000000000E+00 0. -1.
          1    1    1    2  502    0  0.11729498320E+03 -0.30816776433E+02  0.41249513237E+03  0.42995351030E+03  0.00000000000E+00 0. -1.
         22    1    3    3    0    0 -0.64082196670E+02  0.33709582696E+02 -0.88715483336E+02  0.11451332184E+03  0.00000000000E+00 0. -1.
         22    1    3    3    0    0 -0.66030483676E+01 -0.52940069578E+02  0.36914177046E+01  0.53477825118E+02  0.00000000000E+00 0. -1.
</event>
<event>
 7    1  0.6089676E-006  0.5029898E+02  0.7818608E-02  0.1557421E+00
          2   -1    0    0  502    0  0.00000000000E+00  0.00000000000E+00  0.55260260476E+03  0.55260260476E+03  0.00000000000E+00 0. -1.
          1   -1    0    0  501    0 -0.00000000000E+00 -0.00000000000E+00 -0.13360768969E+04  0.13360768969E+04  0.00000000000E+00 0. -1.
         25    2    1    2    0    0 -0.12481292193E+02  0.47771516444E+02  0.29036293867E+03  0.31996440850E+03  0.12501474360E+03 0.  0.
          2    1    1    2  501    0 -0.21147193300E+02 -0.90903639346E+01 -0.13185203329E+04  0.13187212392E+04  0.00000000000E+00 0. -1.
          1    1    1    2  502    0  0.33628485493E+02 -0.38681152509E+02  0.24468310206E+03  0.24999385398E+03  0.00000000000E+00 0. -1.
         22    1    3    3    0    0 -0.77870002934E+01  0.41082803497E+02  0.14914152559E+02  0.44394437302E+02  0.00000000000E+00 0. -1.
         22    1    3    3    0    0 -0.46942918996E+01  0.66887129462E+01  0.27544878611E+03  0.27556997120E+03  0.00000000000E+00 0. -1.
</event>
<event>
 7    1  0.6089676E-006  0.1033872E+03  0.7818608E-02  0.1367478E+00
          2   -1    0    0  502    0  0.00000000000E+00  0.00000000000E+00  0.53841389570E+03  0.53841389570E+03  0.00000000000E+00 0. -1.
          1   -1    0    0  501    0 -0.00000000000E+00 -0.00000000000E+00 -0.75482698620E+03  0.75482698620E+03  0.00000000000E+00 0. -1.
         25    2    1    2    0    0 -0.86173003822E+02  0.33502576040E+02  0.60062448761E+02  0.16667625983E+03  0.12500107459E+03 0.  0.
          2    1    1    2  501    0  0.10378926981E+03  0.74257717449E+01 -0.69647654105E+03  0.70420659387E+03  0.00000000000E+00 0. -1.
          1    1    1    2  502    0 -0.17616265989E+02 -0.40928347785E+02  0.42000100179E+03  0.42235802820E+03  0.00000000000E+00 0. -1.
         22    1    3    3    0    0 -0.52666289760E+02  0.92896100268E+01 -0.34383791428E+02  0.63578927677E+02  0.00000000000E+00 0. -1.
         22    1    3    3    0    0 -0.33506714062E+02  0.24212966013E+02  0.94446240189E+02  0.10309733215E+03  0.00000000000E+00 0. -1.
</event>
<event>
 7    1  0.6089676E-006  0.5947694E+02  0.7818608E-02  0.1521886E+00
          2   -1    0    0  502    0  0.00000000000E+00  0.00000000000E+00  0.24915546391E+04  0.24915546391E+04  0.00000000000E+00 0. -1.
          1   -1    0    0  501    0 -0.00000000000E+00 -0.00000000000E+00 -0.39161671809E+03  0.39161671809E+03  0.00000000000E+00 0. -1.
         25    2    1    2    0    0 -0.39228347392E+02  0.24700853706E+02 -0.34327007009E+03  0.36824913489E+03  0.12499635558E+03 0.  0.
          2    1    1    2  501    0 -0.19459772101E+02 -0.14943273278E+02 -0.31260187620E+02  0.39738941563E+02  0.00000000000E+00 0. -1.
          1    1    1    2  502    0  0.58688119493E+02 -0.97575804288E+01  0.24744681787E+04  0.24751832807E+04  0.00000000000E+00 0. -1.
         22    1    3    3    0    0  0.79810989775E+01  0.42592488998E+02 -0.34530966266E+02  0.55409436842E+02  0.00000000000E+00 0. -1.
         22    1    3    3    0    0 -0.47209446369E+02 -0.17891635292E+02 -0.30873910383E+03  0.31283969804E+03  0.00000000000E+00 0. -1.
</event>
<event>
 7    1  0.6089676E-006  0.2564962E+02  0.7818608E-02  0.1677273E+00
          2   -1    0    0  502    0  0.00000000000E+00  0.00000000000E+00  0.74454790451E+02  0.74454790451E+02  0.00000000000E+00 0. -1.
          1   -1    0    0  501    0 -0.00000000000E+00 -0.00000000000E+00 -0.11892003691E+04  0.11892003691E+04  0.00000000000E+00 0. -1.
         25    2    1    2    0    0 -0.27450279181E+01  0.23492844647E+02 -0.17633723983E+03  0.21743825752E+03  0.12500049901E+03 0.  0.
          2    1    1    2  501    0  0.21519824249E+02 -0.57542957783E+01 -0.98908586075E+03  0.98933667409E+03  0.00000000000E+00 0. -1.
          1    1    1    2  502    0 -0.18774796331E+02 -0.17738548869E+02  0.50677521974E+02  0.56880227906E+02  0.00000000000E+00 0. -1.
         22    1    3    3    0    0  0.38838298033E+02 -0.11744576514E+02 -0.91549106323E+01  0.41595202371E+02  0.00000000000E+00 0. -1.
         22    1    3    3    0    0 -0.41583325951E+02  0.35237421161E+02 -0.16718232920E+03  0.17584305515E+03  0.00000000000E+00 0. -1.
</event>
<event>
 7    1  0.6089676E-006  0.2224320E+03  0.7818608E-02  0.1342380E+00
          2   -1    0    0  502    0  0.00000000000E+00  0.00000000000E+00  0.32400642818E+03  0.32400642818E+03  0.00000000000E+00 0. -1.
          1   -1    0    0  501    0 -0.00000000000E+00 -0.00000000000E+00 -0.39767110129E+03  0.39767110129E+03  0.00000000000E+00 0. -1.
         25    2    1    2    0    0 -0.15583154135E+03  0.15817820027E+03  0.12052951084E+03  0.28188200073E+03  0.12500514802E+03 0.  0.
          2    1    1    2  501    0  0.17352926977E+03 -0.13965905219E+03 -0.27565347701E+03  0.35440358028E+03  0.00000000000E+00 0. -1.
          1    1    1    2  502    0 -0.17697728422E+02 -0.18519148088E+02  0.81459293059E+02  0.85391948466E+02  0.00000000000E+00 0. -1.
         22    1    3    3    0    0 -0.44227857014E+02  0.89267066413E+01  0.78954441934E+02  0.90937304383E+02  0.00000000000E+00 0. -1.
         22    1    3    3    0    0 -0.11160368434E+03  0.14925149363E+03  0.41575068909E+02  0.19094469635E+03  0.00000000000E+00 0. -1.
</event>
<event>
 7    1  0.6089676E-006  0.7043610E+02  0.7818608E-02  0.1398080E+00
          2   -1    0    0  502    0  0.00000000000E+00  0.00000000000E+00  0.45258406239E+03  0.45258406239E+03  0.00000000000E+00 0. -1.
          1   -1    0    0  501    0 -0.00000000000E+00 -0.00000000000E+00 -0.31546154957E+03  0.31546154957E+03  0.00000000000E+00 0. -1.
         25    2    1    2    0    0  0.55359505752E+02 -0.90092760333E+02  0.48153306249E+02  0.17066113464E+03  0.12500040653E+03 0.  0.
          2    1    1    2  501    0  0.13721123082E+01  0.50990876742E+02 -0.24812839372E+03  0.25331729506E+03  0.00000000000E+00 0. -1.
          1    1    1    2  502    0 -0.56731618060E+02  0.39101883591E+02  0.33709760030E+03  0.34406718227E+03  0.00000000000E+00 0. -1.
         22    1    3    3    0    0 -0.36210921153E+02 -0.54143834175E+02  0.14904358722E+02  0.66820098016E+02  0.00000000000E+00 0.  1.
         22    1    3    3    0    0  0.91570426905E+02 -0.35948926158E+02  0.33248947528E+02  0.10384103662E+03  0.00000000000E+00 0.  1.
</event>
<event>
 7    1  0.6089676E-006  0.8314591E+02  0.7818608E-02  0.1345785E+00
          2   -1    0    0  502    0  0.00000000000E+00  0.00000000000E+00  0.52010041243E+03  0.52010041243E+03  0.00000000000E+00 0. -1.
          1   -1    0    0  501    0 -0.00000000000E+00 -0.00000000000E+00 -0.90429598919E+03  0.90429598919E+03  0.00000000000E+00 0. -1.
         25    2    1    2    0    0 -0.42139252907E+02 -0.23539628100E+02 -0.26087749748E+02  0.13651048674E+03  0.12499884630E+03 0.  0.
          2    1    1    2  501    0  0.27041042606E+02 -0.60806199624E+02 -0.81768523483E+03  0.82038878292E+03  0.00000000000E+00 0. -1.
          1    1    1    2  502    0  0.15098210301E+02  0.84345827724E+02  0.45957740782E+03  0.46749713195E+03  0.00000000000E+00 0. -1.
         22    1    3    3    0    0 -0.58435028255E+02  0.31731606093E+02 -0.39506305361E+02  0.77345300540E+02  0.00000000000E+00 0.  1.
         22    1    3    3    0    0  0.16295775348E+02 -0.55271234193E+02  0.13418555613E+02  0.59165186201E+02  0.00000000000E+00 0.  1.
</event>
<event>
 7    1  0.6089676E-006  0.6823390E+02  0.7818608E-02  0.1411326E+00
          2   -1    0    0  502    0  0.00000000000E+00  0.00000000000E+00  0.39261914335E+03  0.39261914335E+03  0.00000000000E+00 0. -1.
          1   -1    0    0  501    0 -0.00000000000E+00 -0.00000000000E+00 -0.55961862913E+03  0.55961862913E+03  0.00000000000E+00 0. -1.
         25    2    1    2    0    0 -0.99552819630E+02 -0.52974986378E+02  0.16262897173E+03  0.23408044590E+03  0.12501343779E+03 0.  0.
          2    1    1    2  501    0  0.64377460682E+02  0.21132899902E+02 -0.51875938478E+03  0.52316570625E+03  0.00000000000E+00 0. -1.
          1    1    1    2  502    0  0.35175358947E+02  0.31842086476E+02  0.18913092727E+03  0.19499162033E+03  0.00000000000E+00 0. -1.
         22    1    3    3    0    0  0.13170203005E+02  0.19924536506E+02  0.90528263039E+00  0.23901065642E+02  0.00000000000E+00 0. -1.
         22    1    3    3    0    0 -0.11272302263E+03 -0.72899522884E+02  0.16172368910E+03  0.21017938025E+03  0.00000000000E+00 0. -1.
</event>
<event>
 7    1  0.6089676E-006  0.4230499E+02  0.7818608E-02  0.1559375E+00
          2   -1    0    0  502    0  0.00000000000E+00  0.00000000000E+00  0.75967453499E+03  0.75967453499E+03  0.00000000000E+00 0. -1.
          1   -1    0    0  501    0 -0.00000000000E+00 -0.00000000000E+00 -0.10702583222E+04  0.10702583222E+04  0.00000000000E+00 0. -1.
         25    2    1    2    0    0 -0.11220547022E+02 -0.10486543584E+02 -0.28304429441E+03  0.30979781188E+03  0.12499897350E+03 0.  0.
          2    1    1    2  501    0 -0.21095888241E+02 -0.16899427025E+02 -0.77299977328E+03  0.77347222098E+03  0.00000000000E+00 0. -1.
          1    1    1    2  502    0  0.32316435262E+02  0.27385970609E+02  0.74546028051E+03  0.74666282430E+03  0.00000000000E+00 0. -1.
         22    1    3    3    0    0 -0.49056913038E+02  0.22073798905E+02 -0.23294251653E+03  0.23907331370E+03  0.00000000000E+00 0. -1.
         22    1    3    3    0    0  0.37836366016E+02 -0.32560342489E+02 -0.50101777874E+02  0.70724498178E+02  0.00000000000E+00 0. -1.
</event>
<event>
 7    1  0.6089676E-006  0.4637144E+02  0.7818608E-02  0.1507384E+00
          2   -1    0    0  502    0  0.00000000000E+00  0.00000000000E+00  0.52480958236E+03  0.52480958236E+03  0.00000000000E+00 0. -1.
          1   -1    0    0  501    0 -0.00000000000E+00 -0.00000000000E+00 -0.35360104466E+03  0.35360104466E+03  0.00000000000E+00 0. -1.
         25    2    1    2    0    0  0.39750563989E+02  0.18694431690E+02  0.48673320376E+02  0.14115316471E+03  0.12500213869E+03 0.  0.
          2    1    1    2  501    0  0.43074504444E+01 -0.34430302435E+02 -0.30510199651E+03  0.30706876775E+03  0.00000000000E+00 0. -1.
          1    1    1    2  502    0 -0.44058014434E+02  0.15735870745E+02  0.42763721383E+03  0.43018869455E+03  0.00000000000E+00 0. -1.
         22    1    3    3    0    0 -0.22241729206E+02 -0.18251551090E+02 -0.24932328868E+02  0.38071441502E+02  0.00000000000E+00 0.  1.
         22    1    3    3    0    0  0.61992293195E+02  0.36945982779E+02  0.73605649244E+02  0.10308172321E+03  0.00000000000E+00 0.  1.
</event>
<event>
 7    1  0.6089676E-006  0.1099663E+03  0.7818608E-02  0.1377293E+00
          2   -1    0    0  502    0  0.00000000000E+00  0.00000000000E+00  0.20303106843E+04  0.20303106843E+04  0.00000000000E+00 0. -1.
          1   -1    0    0  501    0 -0.00000000000E+00 -0.00000000000E+00 -0.46017232786E+02  0.46017232786E+02  0.00000000000E+00 0. -1.
         25    2    1    2    0    0 -0.40646453864E+02 -0.85162111239E+02  0.12668063857E+04  0.12764508041E+04  0.12499406773E+03 0.  0.
          2    1    1    2  501    0 -0.32784511317E+02 -0.20440974503E+02 -0.25204797627E+02  0.46129594019E+02  0.00000000000E+00 0. -1.
          1    1    1    2  502    0  0.73430965181E+02  0.10560308574E+03  0.74269186346E+03  0.75374751901E+03  0.00000000000E+00 0. -1.
         22    1    3    3    0    0 -0.72465238415E+02 -0.47814685277E+02  0.45789886130E+03  0.46605667261E+03  0.00000000000E+00 0. -1.
         22    1    3    3    0    0  0.31818784551E+02 -0.37347425962E+02  0.80890752438E+03  0.81039413144E+03  0.00000000000E+00 0. -1.
</event>
<event>
 7    1  0.6089676E-006  0.3980055E+02  0.7818608E-02  0.1578554E+00
          2   -1    0    0  502    0  0.00000000000E+00  0.00000000000E+00  0.21505790687E+04  0.21505790687E+04  0.00000000000E+00 0. -1.
          1   -1    0    0  501    0 -0.00000000000E+00 -0.00000000000E+00 -0.99742100546E+02  0.99742100546E+02  0.00000000000E+00 0. -1.
         25    2    1    2    0    0 -0.32786514391E+01  0.61730140918E+02  0.43303960310E+03  0.45493895111E+03  0.12499916614E+03 0.  0.
          2    1    1    2  501    0 -0.82975120386E+01 -0.24089522492E+02 -0.86732578732E+02  0.90397422604E+02  0.00000000000E+00 0. -1.
          1    1    1    2  502    0  0.11576163478E+02 -0.37640618425E+02  0.17045299437E+04  0.17049847955E+04  0.00000000000E+00 0. -1.
         22    1    3    3    0    0  0.40679267229E+02 -0.20175300108E+02  0.11663209935E+03  0.12515946674E+03  0.00000000000E+00 0.  1.
         22    1    3    3    0    0 -0.43957918668E+02  0.81905441026E+02  0.31640750375E+03  0.32977948437E+03  0.00000000000E+00 0.  1.
</event>
<event>
 7    1  0.6089676E-006  0.1056070E+03  0.7818608E-02  0.1289183E+00
          2   -1    0    0  502    0  0.00000000000E+00  0.00000000000E+00  0.58961743439E+03  0.58961743439E+03  0.00000000000E+00 0. -1.
          1   -1    0    0  501    0 -0.00000000000E+00 -0.00000000000E+00 -0.13691216531E+03  0.13691216531E+03  0.00000000000E+00 0. -1.
         25    2    1    2    0    0  0.88536376071E+02  0.18722304209E+02  0.13028628112E+03  0.20196204541E+03  0.12499975271E+03 0.  0.
          2    1    1    2  501    0 -0.56047180657E+02 -0.99501607860E+02 -0.62320735770E+02  0.13009892595E+03  0.00000000000E+00 0. -1.
          1    1    1    2  502    0 -0.32489195415E+02  0.80779303651E+02  0.38473972373E+03  0.39446862833E+03  0.00000000000E+00 0. -1.
         22    1    3    3    0    0  0.53668238693E+02  0.62200873423E+02  0.30435568612E+02  0.87610229630E+02  0.00000000000E+00 0.  1.
         22    1    3    3    0    0  0.34868137378E+02 -0.43478569214E+02  0.99850712505E+02  0.11435181578E+03  0.00000000000E+00 0.  1.
</event>
<event>
 7    1  0.6089676E-006  0.4707645E+02  0.7818608E-02  0.1520916E+00
          2   -1    0    0  502    0  0.00000000000E+00  0.00000000000E+00  0.25116840918E+03  0.25116840918E+03  0.00000000000E+00 0. -1.
          1   -1    0    0  501    0 -0.00000000000E+00 -0.00000000000E+00 -0.11431523980E+04  0.11431523980E+04  0.00000000000E+00 0. -1.
         25    2    1    2    0    0 -0.38458210549E+01 -0.26500327791E+02 -0.58808126394E+02  0.14071452769E+03  0.12500049944E+03 0.  0.
          2    1    1    2  501    0  0.27282288995E+02 -0.15136003361E+02 -0.10404393044E+04  0.10409069930E+04  0.00000000000E+00 0. -1.
          1    1    1    2  502    0 -0.23436467940E+02  0.41636331152E+02  0.20726344198E+03  0.21269928651E+03  0.00000000000E+00 0. -1.
         22    1    3    3    0    0 -0.60126380319E+02  0.69752972762E+01 -0.16449537801E+02  0.62724984466E+02  0.00000000000E+00 0.  1.
         22    1    3    3    0    0  0.56280559264E+02 -0.33475625067E+02 -0.42358588593E+02  0.77989543225E+02  0.00000000000E+00 0.  1.
</event>
<event>
 7    1  0.6089676E-006  0.1445649E+03  0.7818608E-02  0.1288357E+00
          2   -1    0    0  502    0  0.00000000000E+00  0.00000000000E+00  0.14354002082E+04  0.14354002082E+04  0.00000000000E+00 0. -1.
          1   -1    0    0  501    0 -0.00000000000E+00 -0.00000000000E+00 -0.36409089609E+03  0.36409089609E+03  0.00000000000E+00 0. -1.
         25    2    1    2    0    0  0.74658733760E+02 -0.55819121409E+02  0.24511936204E+03  0.29051254679E+03  0.12499734940E+03 0.  0.
          2    1    1    2  501    0 -0.13861082710E+03  0.51479992900E+02 -0.32445016498E+03  0.35655442869E+03  0.00000000000E+00 0. -1.
          1    1    1    2  502    0  0.63952093339E+02  0.43391285091E+01  0.11506401151E+04  0.11524241288E+04  0.00000000000E+00 0. -1.
         22    1    3    3    0    0  0.63174949463E+02 -0.58721817311E+01  0.22771343145E+03  0.23638731696E+03  0.00000000000E+00 0. -1.
         22    1    3    3    0    0  0.11483784297E+02 -0.49946939678E+02  0.17405930592E+02  0.54125229835E+02  0.00000000000E+00 0. -1.
</event>
<event>
 7    1  0.6089676E-006  0.8269433E+02  0.7818608E-02  0.1370634E+00
          2   -1    0    0  502    0  0.00000000000E+00  0.00000000000E+00  0.33271350511E+03  0.33271350511E+03  0.00000000000E+00 0. -1.
          1   -1    0    0  501    0 -0.00000000000E+00 -0.00000000000E+00 -0.12133996583E+04  0.12133996583E+04  0.00000000000E+00 0. -1.
         25    2    1    2    0    0  0.84675042072E+02 -0.10596968100E+03 -0.61446668042E+02  0.19442624877E+03  0.12500574849E+03 0.  0.
          2    1    1    2  501    0 -0.48835403259E+02  0.65217343132E+02 -0.10811486194E+04  0.10842142480E+04  0.00000000000E+00 0. -1.
          1    1    1    2  502    0 -0.35839638813E+02  0.40752337865E+02  0.26190913426E+03  0.26747266657E+03  0.00000000000E+00 0. -1.
         22    1    3    3    0    0  0.62793495205E+02 -0.60896952727E+02  0.28049269622E+02  0.91859803058E+02  0.00000000000E+00 0.  1.
         22    1    3    3    0    0  0.21881546866E+02 -0.45072728271E+02 -0.89495937664E+02  0.10256644571E+03  0.00000000000E+00 0.  1.
</event>
<event>
 7    1  0.6089676E-006  0.2221471E+03  0.7818608E-02  0.1243775E+00
          2   -1    0    0  502    0  0.00000000000E+00  0.00000000000E+00  0.18383865093E+03  0.18383865093E+03  0.00000000000E+00 0. -1.
          1   -1    0    0  501    0 -0.00000000000E+00 -0.00000000000E+00 -0.12661279899E+04  0.12661279899E+04  0.00000000000E+00 0. -1.
         25    2    1    2    0    0 -0.18340011363E+03 -0.19077198705E+03 -0.45480007823E+03  0.54083044544E+03  0.12499962733E+03 0.  0.
          2    1    1    2  501    0  0.92289835428E+01  0.63714604991E+02 -0.68339059755E+03  0.68641637061E+03  0.00000000000E+00 0. -1.
          1    1    1    2  502    0  0.17417113009E+03  0.12705738206E+03  0.55901336816E+02  0.22271982478E+03  0.00000000000E+00 0. -1.
         22    1    3    3    0    0 -0.85071648110E+02 -0.12387630572E+03 -0.14431906532E+03  0.20835190675E+03  0.00000000000E+00 0. -1.
         22    1    3    3    0    0 -0.98328465525E+02 -0.66895681328E+02 -0.31048101291E+03  0.33247853869E+03  0.00000000000E+00 0. -1.
</event>
<event>
 7    1  0.6089676E-006  0.4572445E+02  0.7818608E-02  0.1590410E+00
          2   -1    0    0  502    0  0.00000000000E+00  0.00000000000E+00  0.43133904835E+03  0.43133904835E+03  0.00000000000E+00 0. -1.
          1   -1    0    0  501    0 -0.00000000000E+00 -0.00000000000E+00 -0.41858783746E+03  0.41858783746E+03  0.00000000000E+00 0. -1.
         25    2    1    2    0    0 -0.21082983314E+02  0.28722877440E+02  0.18538371359E+02  0.13129356385E+03  0.12499933129E+03 0.  0.
          2    1    1    2  501    0  0.12340673262E+02  0.16520503545E+02 -0.36042493098E+03  0.36101433507E+03  0.00000000000E+00 0. -1.
          1    1    1    2  502    0  0.87423100524E+01 -0.45243380986E+02  0.35463777052E+03  0.35761898689E+03  0.00000000000E+00 0. -1.
         22    1    3    3    0    0 -0.10272876564E+02  0.74779587915E+00  0.70526673570E+02  0.71274840417E+02  0.00000000000E+00 0.  1.
         22    1    3    3    0    0 -0.10810106750E+02  0.27975081561E+02 -0.51988302211E+02  0.60018723437E+02  0.00000000000E+00 0.  1.
</event>
<event>
 7    1  0.6089676E-006  0.5392759E+02  0.7818608E-02  0.1480616E+00
          2   -1    0    0  502    0  0.00000000000E+00  0.00000000000E+00  0.82358881591E+02  0.82358881591E+02  0.00000000000E+00 0. -1.
          1   -1    0    0  501    0 -0.00000000000E+00 -0.00000000000E+00 -0.89738678293E+03  0.89738678293E+03  0.00000000000E+00 0. -1.
         25    2    1    2    0    0  0.10850444412E+02  0.36207188223E+02 -0.16158846558E+03  0.20777301199E+03  0.12502039706E+03 0.  0.
          2    1    1    2  501    0 -0.46220631054E+02 -0.29963720039E+02 -0.70609144356E+03  0.70823675273E+03  0.00000000000E+00 0. -1.
          1    1    1    2  502    0  0.35370186642E+02 -0.62434681843E+01  0.52652007799E+02  0.63735899800E+02  0.00000000000E+00 0. -1.
         22    1    3    3    0    0 -0.14929951281E+02 -0.40401697105E+02 -0.27177303869E+02  0.50929425874E+02  0.00000000000E+00 0. -1.
         22    1    3    3    0    0  0.25780395693E+02  0.76608885328E+02 -0.13441116171E+03  0.15684358611E+03  0.00000000000E+00 0. -1.
</event>
<event>
 7    1  0.6089676E-006  0.1212520E+03  0.7818608E-02  0.1440656E+00
          2   -1    0    0  502    0  0.00000000000E+00  0.00000000000E+00  0.73929037070E+03  0.73929037070E+03  0.00000000000E+00 0. -1.
          1   -1    0    0  501    0 -0.00000000000E+00 -0.00000000000E+00 -0.61613926010E+03  0.61613926010E+03  0.00000000000E+00 0. -1.
         25    2    1    2    0    0 -0.57039016465E+02  0.12809542347E+03  0.58066833469E+03  0.61029671006E+03  0.12499788989E+03 0.  0.
          2    1    1    2  501    0  0.41126357454E+02 -0.11386166074E+03 -0.59439601717E+03  0.60659911003E+03  0.00000000000E+00 0. -1.
          1    1    1    2  502    0  0.15912659010E+02 -0.14233762727E+02  0.13687879308E+03  0.13853381072E+03  0.00000000000E+00 0. -1.
         22    1    3    3    0    0 -0.37620008703E+02  0.73395113057E+02  0.51936705004E+03  0.52587473826E+03  0.00000000000E+00 0.  1.
         22    1    3    3    0    0 -0.19419007761E+02  0.54700310410E+02  0.61301284657E+02  0.84421971796E+02  0.00000000000E+00 0.  1.
</event>
<event>
 7    1  0.6089676E-006  0.1009051E+03  0.7818608E-02  0.1373467E+00
          2   -1    0    0  502    0  0.00000000000E+00  0.00000000000E+00  0.79824528732E+03  0.79824528732E+03  0.00000000000E+00 0. -1.
          1   -1    0    0  501    0 -0.00000000000E+00 -0.00000000000E+00 -0.84488479344E+02  0.84488479344E+02  0.00000000000E+00 0. -1.
         25    2    1    2    0    0  0.52445235806E+01  0.10980900711E+03  0.27782857616E+03  0.32388173634E+03  0.12500055333E+03 0.  0.
          2    1    1    2  501    0  0.35351536652E+02 -0.94327199919E+02 -0.18442790489E+02  0.10240843866E+03  0.00000000000E+00 0. -1.
          1    1    1    2  502    0 -0.40596060233E+02 -0.15481807193E+02  0.45437102230E+03  0.45644359166E+03  0.00000000000E+00 0. -1.
         22    1    3    3    0    0  0.23579274342E+02  0.11281660832E+03  0.12537862430E+03  0.17030375428E+03  0.00000000000E+00 0. -1.
         22    1    3    3    0    0 -0.18334750761E+02 -0.30076012084E+01  0.15244995186E+03  0.15357798206E+03  0.00000000000E+00 0. -1.
</event>
<event>
 7    1  0.6089676E-006  0.6401092E+02  0.7818608E-02  0.1445062E+00
          2   -1    0    0  502    0  0.00000000000E+00  0.00000000000E+00  0.40871831779E+04  0.40871831779E+04  0.00000000000E+00 0. -1.
          1   -1    0    0  501    0 -0.00000000000E+00 -0.00000000000E+00 -0.26375383872E+04  0.26375383872E+04  0.00000000000E+00 0. -1.
         25    2    1    2    0    0  0.61104817826E+02 -0.91575890451E+00  0.79096179783E+03  0.80310700646E+03  0.12500264326E+03 0.  0.
          2    1    1    2  501    0 -0.93540657831E+01 -0.38002674902E+02 -0.26310016470E+04  0.26312927181E+04  0.00000000000E+00 0. -1.
          1    1    1    2  502    0 -0.51750752042E+02  0.38918433807E+02  0.32896846398E+04  0.32903218405E+04  0.00000000000E+00 0. -1.
         22    1    3    3    0    0  0.84457769926E+02  0.14439637084E+02  0.74034305608E+03  0.74528481717E+03  0.00000000000E+00 0. -1.
         22    1    3    3    0    0 -0.23352952101E+02 -0.15355395989E+02  0.50618741749E+02  0.57822189288E+02  0.00000000000E+00 0. -1.
</event>
<event>
 7    1  0.6089676E-006  0.4499187E+02  0.7818608E-02  0.1587035E+00
          2   -1    0    0  502    0  0.00000000000E+00  0.00000000000E+00  0.40285159543E+03  0.40285159543E+03  0.00000000000E+00 0. -1.
          1   -1    0    0  501    0 -0.00000000000E+00 -0.00000000000E+00 -0.96678232239E+03  0.96678232239E+03  0.00000000000E+00 0. -1.
         25    2    1    2    0    0  0.35811928059E+02  0.93571093236E+01 -0.47280826239E+02  0.13867640495E+03  0.12500247627E+03 0.  0.
          2    1    1    2  501    0 -0.33205500703E+02 -0.30590592155E+02 -0.87289942588E+03  0.87406624309E+03  0.00000000000E+00 0. -1.
          1    1    1    2  502    0 -0.26064273554E+01  0.21233482831E+02  0.35624952517E+03  0.35689126977E+03  0.00000000000E+00 0. -1.
         22    1    3    3    0    0  0.33372828508E+02  0.33581269384E+02 -0.82938340563E+02  0.95499820269E+02  0.00000000000E+00 0.  1.
         22    1    3    3    0    0  0.24390995506E+01 -0.24224160061E+02  0.35657514323E+02  0.43176584684E+02  0.00000000000E+00 0.  1.
</event>
<event>
 7    1  0.6089676E-006  0.1981709E+03  0.7818608E-02  0.1218539E+00
          2   -1    0    0  502    0  0.00000000000E+00  0.00000000000E+00  0.18825978247E+04  0.18825978247E+04  0.00000000000E+00 0. -1.
          1   -1    0    0  501    0 -0.00000000000E+00 -0.00000000000E+00 -0.27643532748E+03  0.27643532748E+03  0.00000000000E+00 0. -1.
         25    2    1    2    0    0  0.25006444787E+03 -0.10935419022E+03  0.88619963933E+02  0.31299975688E+03  0.12499913116E+03 0.  0.
          2    1    1    2  501    0 -0.58817438864E+02  0.72817318464E+02 -0.14474889470E+03  0.17237776973E+03  0.00000000000E+00 0. -1.
          1    1    1    2  502    0 -0.19124700901E+03  0.36536871760E+02  0.16622914280E+04  0.16736556256E+04  0.00000000000E+00 0. -1.
         22    1    3    3    0    0  0.70114936881E+02 -0.59077827258E+01 -0.27047122289E+02  0.75382710847E+02  0.00000000000E+00 0.  1.
         22    1    3    3    0    0  0.17994951099E+03 -0.10344640750E+03  0.11566708622E+03  0.23761704603E+03  0.00000000000E+00 0.  1.
</event>
<event>
 7    1  0.6089676E-006  0.7033666E+02  0.7818608E-02  0.1454292E+00
          2   -1    0    0  502    0  0.00000000000E+00  0.00000000000E+00  0.20645072521E+04  0.20645072521E+04  0.00000000000E+00 0. -1.
          1   -1    0    0  501    0 -0.00000000000E+00 -0.00000000000E+00 -0.13189981827E+04  0.13189981827E+04  0.00000000000E+00 0. -1.
         25    2    1    2    0    0  0.41697837953E+02 -0.45391365669E+02  0.10134281971E+03  0.17232165046E+03  0.12500119336E+03 0.  0.
          2    1    1    2  501    0 -0.17507622478E+02  0.68239355069E+02 -0.12823982841E+04  0.12843319219E+04  0.00000000000E+00 0. -1.
          1    1    1    2  502    0 -0.24190215476E+02 -0.22847989400E+02  0.19265645338E+04  0.19268518625E+04  0.00000000000E+00 0. -1.
         22    1    3    3    0    0  0.76194182031E+02  0.43481931485E+01  0.72519339105E+02  0.10527827270E+03  0.00000000000E+00 0. -1.
         22    1    3    3    0    0 -0.34496344078E+02 -0.49739558818E+02  0.28823480608E+02  0.67043377752E+02  0.00000000000E+00 0. -1.
</event>
<event>
 7    1  0.6089676E-006  0.8876272E+02  0.7818608E-02  0.1330000E+00
          2   -1    0    0  502    0  0.00000000000E+00  0.00000000000E+00  0.86791054885E+03  0.86791054885E+03  0.00000000000E+00 0. -1.
          1   -1    0    0  501    0 -0.00000000000E+00 -0.00000000000E+00 -0.67984787497E+02  0.67984787497E+02  0.00000000000E+00 0. -1.
         25    2    1    2    0    0  0.33355068308E+02 -0.18832431693E+02  0.24231171447E+03  0.27533265006E+03  0.12500352058E+03 0.  0.
          2    1    1    2  501    0 -0.44302650930E+02  0.89492366519E+02  0.14984768977E+01  0.99869184324E+02  0.00000000000E+00 0. -1.
          1    1    1    2  502    0  0.10947582622E+02 -0.70659934826E+02  0.55611556999E+03  0.56069350196E+03  0.00000000000E+00 0. -1.
         22    1    3    3    0    0  0.73942931270E+02 -0.12261733315E+02  0.21019734073E+03  0.22316099399E+03  0.00000000000E+00 0.  1.
         22    1    3    3    0    0 -0.40587862962E+02 -0.65706983775E+01  0.32114373739E+02  0.52171656075E+02  0.00000000000E+00 0.  1.
</event>
<event>
 7    1  0.6089676E-006  0.1553364E+03  0.7818608E-02  0.1394477E+00
          2   -1    0    0  502    0  0.00000000000E+00  0.00000000000E+00  0.48903335026E+03  0.48903335026E+03  0.00000000000E+00 0. -1.
          1   -1    0    0  501    0 -0.00000000000E+00 -0.00000000000E+00 -0.55815718747E+03  0.55815718747E+03  0.00000000000E+00 0. -1.
         25    2    1    2    0    0  0.10818942302E+03 -0.14016159561E+03  0.68892283738E+02  0.22742349271E+03  0.12500029655E+03 0.  0.
          2    1    1    2  501    0 -0.96458581496E+02  0.11945011780E+03 -0.46614357976E+03  0.49077736861E+03  0.00000000000E+00 0. -1.
          1    1    1    2  502    0 -0.11730841522E+02  0.20711477815E+02  0.32812745881E+03  0.32898967641E+03  0.00000000000E+00 0. -1.
         22    1    3    3    0    0 -0.68303825457E+01 -0.85831630512E+02  0.47798896948E+02  0.98480746705E+02  0.00000000000E+00 0.  1.
         22    1    3    3    0    0  0.11501980556E+03 -0.54329965103E+02  0.21093386790E+02  0.12894274600E+03  0.00000000000E+00 0.  1.
</event>
<event>
 7    1  0.6089676E-006  0.1208023E+03  0.7818608E-02  0.1290752E+00
          2   -1    0    0  502    0  0.00000000000E+00  0.00000000000E+00  0.59220414667E+03  0.59220414667E+03  0.00000000000E+00 0. -1.
          1   -1    0    0  501    0 -0.00000000000E+00 -0.00000000000E+00 -0.52596151263E+03  0.52596151263E+03  0.00000000000E+00 0. -1.
         25    2    1    2    0    0 -0.10712832456E+03 -0.72800322606E+02 -0.24633880522E+03  0.30509571977E+03  0.12499690544E+03 0.  0.
          2    1    1    2  501    0  0.45410390071E+02  0.11542325681E+03 -0.23214534105E+03  0.26320351652E+03  0.00000000000E+00 0. -1.
          1    1    1    2  502    0  0.61717934488E+02 -0.42622934204E+02  0.54472678031E+03  0.54986642300E+03  0.00000000000E+00 0. -1.
         22    1    3    3    0    0 -0.91351701469E+02 -0.41209612382E+02 -0.62969825121E+02  0.11835778128E+03  0.00000000000E+00 0.  1.
         22    1    3    3    0    0 -0.15776623090E+02 -0.31590710225E+02 -0.18336898010E+03  0.18673793849E+03  0.00000000000E+00 0.  1.
</event>
<event>
 7    1  0.6089676E-006  0.1899839E+03  0.7818608E-02  0.1239245E+00
          2   -1    0    0  502    0  0.00000000000E+00  0.00000000000E+00  0.50129126901E+03  0.50129126901E+03  0.00000000000E+00 0. -1.
          1   -1    0    0  501    0 -0.00000000000E+00 -0.00000000000E+00 -0.54130254490E+03  0.54130254490E+03  0.00000000000E+00 0. -1.
         25    2    1    2    0    0 -0.17505135806E+03 -0.12041201162E+03 -0.31057267975E+02  0.24845851697E+03  0.12500020105E+03 0.  0.
          2    1    1    2  501    0 -0.85740887892E+01  0.78346141002E+02 -0.37460707459E+03  0.38280816755E+03  0.00000000000E+00 0. -1.
          1    1    1    2  502    0  0.18362544684E+03  0.42065870618E+02  0.36565306668E+03  0.41132712939E+03  0.00000000000E+00 0. -1.
         22    1    3    3    0    0 -0.18693479085E+03 -0.11155015999E+03 -0.41377663857E+01  0.21772729579E+03  0.00000000000E+00 0.  1.
         22    1    3    3    0    0  0.11883432792E+02 -0.88618516319E+01 -0.26919501590E+02  0.30731221178E+02  0.00000000000E+00 0.  1.
</event>
<event>
 7    1  0.6089676E-006  0.9069045E+02  0.7818608E-02  0.1335459E+00
          2   -1    0    0  502    0  0.00000000000E+00  0.00000000000E+00  0.99646127384E+03  0.99646127384E+03  0.00000000000E+00 0. -1.
          1   -1    0    0  501    0 -0.00000000000E+00 -0.00000000000E+00 -0.69962078810E+03  0.69962078810E+03  0.00000000000E+00 0. -1.
         25    2    1    2    0    0  0.65157130553E+02 -0.22175712145E+02 -0.11428741547E+03  0.18281986564E+03  0.12499710423E+03 0.  0.
          2    1    1    2  501    0  0.15569464109E+02  0.64873226376E+02 -0.54686846183E+03  0.55092291498E+03  0.00000000000E+00 0. -1.
          1    1    1    2  502    0 -0.80726594662E+02 -0.42697514231E+02  0.95799636303E+03  0.96233928133E+03  0.00000000000E+00 0. -1.
         22    1    3    3    0    0 -0.18107500188E+02  0.71175226659E+01  0.16176011435E+02  0.25302253613E+02  0.00000000000E+00 0.  1.
         22    1    3    3    0    0  0.83264630741E+02 -0.29293234811E+02 -0.13046342690E+03  0.15751761202E+03  0.00000000000E+00 0.  1.
</event>
<event>
 7    1  0.6089676E-006  0.1423685E+03  0.7818608E-02  0.1337412E+00
          2   -1    0    0  502    0  0.00000000000E+00  0.00000000000E+00  0.42092135030E+03  0.42092135030E+03  0.00000000000E+00 0. -1.
          1   -1    0    0  501    0 -0.00000000000E+00 -0.00000000000E+00 -0.27149810123E+04  0.27149810123E+04  0.00000000000E+00 0. -1.
         25    2    1    2    0    0 -0.43836809551E+02  0.14309517987E+03 -0.13257393121E+03  0.23579311415E+03  0.12499859628E+03 0.  0.
          2    1    1    2  501    0  0.20631674751E+01 -0.14229239538E+03 -0.25276079041E+04  0.25316107717E+04  0.00000000000E+00 0. -1.
          1    1    1    2  502    0  0.41773642076E+02 -0.80278449011E+00  0.36612217327E+03  0.36849847679E+03  0.00000000000E+00 0. -1.
         22    1    3    3    0    0 -0.80794678494E+02  0.67232620137E+02 -0.10077473783E+03  0.14561439856E+03  0.00000000000E+00 0.  1.
         22    1    3    3    0    0  0.36957868943E+02  0.75862559732E+02 -0.31799193378E+02  0.90178715590E+02  0.00000000000E+00 0.  1.
</event>
<event>
 7    1  0.7914813E-006  0.5404448E+02  0.7818608E-02  0.1503553E+00
          2   -1    0    0  502    0  0.00000000000E+00  0.00000000000E+00  0.22298802419E+04  0.22298802419E+04  0.00000000000E+00 0. -1.
          1   -1    0    0  501    0 -0.00000000000E+00 -0.00000000000E+00 -0.59770883814E+03  0.59770883814E+03  0.00000000000E+00 0. -1.
         25    2    1    2    0    0 -0.20678944962E+02 -0.44180955275E+02 -0.50987125761E+03  0.52724039715E+03  0.12503664054E+03 0.  0.
          2    1    1    2  501    0  0.29140872443E+02 -0.92057327148E+01 -0.75861620655E+02  0.81785826706E+02  0.00000000000E+00 0. -1.
          1    1    1    2  502    0 -0.84619274804E+01  0.53386687990E+02  0.22179042820E+04  0.22185628562E+04  0.00000000000E+00 0. -1.
         22    1    3    3    0    0 -0.55353425800E+02 -0.67341755316E+02 -0.26857050148E+03  0.28236329085E+03  0.00000000000E+00 0.  1.
         22    1    3    3    0    0  0.34674480837E+02  0.23160800042E+02 -0.24130075613E+03  0.24487710630E+03  0.00000000000E+00 0.  1.
</event>
<event>
 7    1  0.6089676E-006  0.3095428E+02  0.7818608E-02  0.1655633E+00
          2   -1    0    0  502    0  0.00000000000E+00  0.00000000000E+00  0.42946841298E+03  0.42946841298E+03  0.00000000000E+00 0. -1.
          1   -1    0    0  501    0 -0.00000000000E+00 -0.00000000000E+00 -0.19640837789E+03  0.19640837789E+03  0.00000000000E+00 0. -1.
         25    2    1    2    0    0 -0.32736961975E+02 -0.32962155872E+02  0.23793483167E+03  0.27275687598E+03  0.12500046749E+03 0.  0.
          2    1    1    2  501    0  0.12469131925E+02  0.28260550211E+02 -0.17703372067E+03  0.17970830866E+03  0.00000000000E+00 0. -1.
          1    1    1    2  502    0  0.20267830050E+02  0.47016056608E+01  0.17215892409E+03  0.17341160623E+03  0.00000000000E+00 0. -1.
         22    1    3    3    0    0 -0.53098640090E+02  0.33289876957E+02  0.93613237428E+02  0.11265486989E+03  0.00000000000E+00 0.  1.
         22    1    3    3    0    0  0.20361678115E+02 -0.66252032829E+02  0.14432159424E+03  0.16010200609E+03  0.00000000000E+00 0.  1.
</event>
<event>
 7    1  0.6089676E-006  0.6551818E+02  0.7818608E-02  0.1484548E+00
          2   -1    0    0  502    0  0.00000000000E+00  0.00000000000E+00  0.64831923314E+03  0.64831923314E+03  0.00000000000E+00 0. -1.
          1   -1    0    0  501    0 -0.00000000000E+00 -0.00000000000E+00 -0.40600023627E+03  0.40600023627E+03  0.00000000000E+00 0. -1.
         25    2    1    2    0    0 -0.49961192960E+02 -0.78745730431E+02  0.20254897567E+03  0.25563221084E+03  0.12499891524E+03 0.  0.
          2    1    1    2  501    0  0.39195968558E+02  0.52080856843E+02 -0.37615931003E+03  0.38176506666E+03  0.00000000000E+00 0. -1.
          1    1    1    2  502    0  0.10765224402E+02  0.26664873588E+02  0.41592933122E+03  0.41692219191E+03  0.00000000000E+00 0. -1.
         22    1    3    3    0    0 -0.35959005178E+02 -0.29229811208E+02 -0.31729381476E+00  0.46341478095E+02  0.00000000000E+00 0.  1.
         22    1    3    3    0    0 -0.14002187781E+02 -0.49515919222E+02  0.20286626949E+03  0.20929073275E+03  0.00000000000E+00 0.  1.
</event>
<event>
 7    1  0.6089676E-006  0.6078767E+02  0.7818608E-02  0.1473583E+00
          2   -1    0    0  502    0  0.00000000000E+00  0.00000000000E+00  0.18508267764E+04  0.18508267764E+04  0.00000000000E+00 0. -1.
          1   -1    0    0  501    0 -0.00000000000E+00 -0.00000000000E+00 -0.18038194911E+02  0.18038194911E+02  0.00000000000E+00 0. -1.
         25    2    1    2    0    0 -0.25099766192E+02 -0.24586560746E+02  0.93091289181E+03  0.93992472420E+03  0.12500071115E+03 0.  0.
          2    1    1    2  501    0 -0.28220565765E+02 -0.18038662929E+02  0.10710034463E+02  0.35163881051E+02  0.00000000000E+00 0. -1.
          1    1    1    2  502    0  0.53320331957E+02  0.42625223675E+02  0.89116565525E+03  0.89377636610E+03  0.00000000000E+00 0. -1.
         22    1    3    3    0    0  0.46531080598E+02 -0.60927724020E+01  0.54273706469E+03  0.54476213591E+03  0.00000000000E+00 0.  1.
         22    1    3    3    0    0 -0.71630846790E+02 -0.18493788344E+02  0.38817582713E+03  0.39516258829E+03  0.00000000000E+00 0.  1.
</event>
<event>
 7    1  0.6089676E-006  0.9585756E+02  0.7818608E-02  0.1295542E+00
          2   -1    0    0  502    0  0.00000000000E+00  0.00000000000E+00  0.17791977934E+03  0.17791977934E+03  0.00000000000E+00 0. -1.
          1   -1    0    0  501    0 -0.00000000000E+00 -0.00000000000E+00 -0.16306713248E+04  0.16306713248E+04  0.00000000000E+00 0. -1.
         25    2    1    2    0    0  0.16166547984E+02  0.89284458982E+01 -0.12855779144E+03  0.18023844336E+03  0.12497086183E+03 0.  0.
          2    1    1    2  501    0  0.54601430384E+02 -0.78786767213E+02 -0.14582745498E+04  0.14614216823E+04  0.00000000000E+00 0. -1.
          1    1    1    2  502    0 -0.70767978368E+02  0.69858321315E+02  0.13408079571E+03  0.16693097854E+03  0.00000000000E+00 0. -1.
         22    1    3    3    0    0 -0.19800766570E+02 -0.17224410835E+02 -0.13298345530E+03  0.13554833112E+03  0.00000000000E+00 0. -1.
         22    1    3    3    0    0  0.35967314554E+02  0.26152856733E+02  0.44256638639E+01  0.44690112241E+02  0.00000000000E+00 0. -1.
</event>
<event>
 7    1  0.6089676E-006  0.2234723E+02  0.7818608E-02  0.1712074E+00
          2   -1    0    0  502    0  0.00000000000E+00  0.00000000000E+00  0.12432605132E+02  0.12432605132E+02  0.00000000000E+00 0. -1.
          1   -1    0    0  501    0 -0.00000000000E+00 -0.00000000000E+00 -0.78112643036E+03  0.78112643036E+03  0.00000000000E+00 0. -1.
         25    2    1    2    0    0  0.83397478364E+01 -0.16540226862E+02 -0.63474213586E+03  0.64719905656E+03  0.12500363705E+03 0.  0.
          2    1    1    2  501    0  0.12324425949E+02  0.21401767311E+02 -0.11587594947E+03  0.11847853301E+03  0.00000000000E+00 0. -1.
          1    1    1    2  502    0 -0.20664173786E+02 -0.48615404489E+01 -0.18075739895E+02  0.27881445919E+02  0.00000000000E+00 0. -1.
         22    1    3    3    0    0  0.72360247670E+01 -0.62585292931E+02 -0.51608541405E+03  0.51991675636E+03  0.00000000000E+00 0.  1.
         22    1    3    3    0    0  0.11037230694E+01  0.46045066069E+02 -0.11865672181E+03  0.12728230020E+03  0.00000000000E+00 0.  1.
</event>
<event>
 7    1  0.6089676E-006  0.1490541E+03  0.7818608E-02  0.1279402E+00
          2   -1    0    0  502    0  0.00000000000E+00  0.00000000000E+00  0.33142136880E+03  0.33142136880E+03  0.00000000000E+00 0. -1.
          1   -1    0    0  501    0 -0.00000000000E+00 -0.00000000000E+00 -0.14224956670E+04  0.14224956670E+04  0.00000000000E+00 0. -1.
         25    2    1    2    0    0 -0.41549461960E+02 -0.10620336494E+03 -0.12945230785E+03  0.21304359889E+03  0.12499664998E+03 0.  0.
          2    1    1    2  501    0  0.10916603450E+03  0.10870248827E+03 -0.12424726205E+04  0.12519870873E+04  0.00000000000E+00 0. -1.
          1    1    1    2  502    0 -0.67616572543E+02 -0.24991233307E+01  0.28085063018E+03  0.28888634958E+03  0.00000000000E+00 0. -1.
         22    1    3    3    0    0 -0.41581670396E+01 -0.29879674429E+02 -0.12428730452E+03  0.12789612723E+03  0.00000000000E+00 0.  1.
         22    1    3    3    0    0 -0.37391294920E+02 -0.76323690515E+02 -0.51650033309E+01  0.85147471654E+02  0.00000000000E+00 0.  1.
</event>
<event>
 7    1  0.6089676E-006  0.1088742E+03  0.7818608E-02  0.1268486E+00
          2   -1    0    0  502    0  0.00000000000E+00  0.00000000000E+00  0.19168158925E+04  0.19168158925E+04  0.00000000000E+00 0. -1.
          1   -1    0    0  501    0 -0.00000000000E+00 -0.00000000000E+00 -0.16330323369E+04  0.16330323369E+04  0.00000000000E+00 0. -1.
         25    2    1    2    0    0 -0.65236847192E+01 -0.19578864982E+03  0.44491247125E+03  0.50194114602E+03  0.12498821198E+03 0.  0.
          2    1    1    2  501    0  0.36113168601E+02  0.96330910971E+02 -0.16009999322E+04  0.16043019006E+04  0.00000000000E+00 0. -1.
          1    1    1    2  502    0 -0.29589483882E+02  0.99457738850E+02  0.14398710165E+04  0.14436051827E+04  0.00000000000E+00 0. -1.
         22    1    3    3    0    0  0.22823090015E+02 -0.84264945431E+02  0.77094865534E+02  0.11646927817E+03  0.00000000000E+00 0.  1.
         22    1    3    3    0    0 -0.29346774735E+02 -0.11152370439E+03  0.36781760572E+03  0.38547186785E+03  0.00000000000E+00 0.  1.
</event>
<event>
 7    1  0.6089676E-006  0.1422214E+03  0.7818608E-02  0.1372235E+00
          2   -1    0    0  502    0  0.00000000000E+00  0.00000000000E+00  0.17447063788E+03  0.17447063788E+03  0.00000000000E+00 0. -1.
          1   -1    0    0  501    0 -0.00000000000E+00 -0.00000000000E+00 -0.24949441196E+03  0.24949441196E+03  0.00000000000E+00 0. -1.
         25    2    1    2    0    0  0.75411900485E+02  0.10850619157E+03  0.40380655819E+02  0.18632069205E+03  0.12499701828E+03 0.  0.
          2    1    1    2  501    0 -0.59990216966E+02 -0.13556004815E+03 -0.36284788269E+02  0.15261696709E+03  0.00000000000E+00 0. -1.
          1    1    1    2  502    0 -0.15421683519E+02  0.27053856579E+02 -0.79119641622E+02  0.85027390697E+02  0.00000000000E+00 0. -1.
         22    1    3    3    0    0  0.78564604646E+02  0.13215374385E+03  0.48352013081E+02  0.16116738592E+03  0.00000000000E+00 0.  1.
         22    1    3    3    0    0 -0.31527041608E+01 -0.23647552283E+02 -0.79713572620E+01  0.25153306127E+02  0.00000000000E+00 0.  1.
</event>
<event>
 7    1  0.6089676E-006  0.4006830E+02  0.7818608E-02  0.1529693E+00
          2   -1    0    0  502    0  0.00000000000E+00  0.00000000000E+00  0.97369682100E+03  0.97369682100E+03  0.00000000000E+00 0. -1.
          1   -1    0    0  501    0 -0.00000000000E+00 -0.00000000000E+00 -0.10685192584E+04  0.10685192584E+04  0.00000000000E+00 0. -1.
         25    2    1    2    0    0  0.34606007257E+02 -0.48993760354E+02  0.19701440562E+03  0.24091818568E+03  0.12501572652E+03 0.  0.
          2    1    1    2  501    0 -0.33337582540E+02  0.91927253902E+01 -0.10457560897E+04  0.10463277210E+04  0.00000000000E+00 0. -1.
          1    1    1    2  502    0 -0.12684247176E+01  0.39801034964E+02  0.75391924663E+03  0.75497017274E+03  0.00000000000E+00 0. -1.
         22    1    3    3    0    0  0.57654338600E+02  0.12806038999E+02  0.42046967637E+02  0.72498033640E+02  0.00000000000E+00 0.  1.
         22    1    3    3    0    0 -0.23048331343E+02 -0.61799799354E+02  0.15496743799E+03  0.16842015204E+03  0.00000000000E+00 0.  1.
</event>
<event>
 7    1  0.6089676E-006  0.1155474E+03  0.7818608E-02  0.1360552E+00
          2   -1    0    0  502    0  0.00000000000E+00  0.00000000000E+00  0.18214495900E+03  0.18214495900E+03  0.00000000000E+00 0. -1.
          1   -1    0    0  501    0 -0.00000000000E+00 -0.00000000000E+00 -0.29573735327E+04  0.29573735327E+04  0.00000000000E+00 0. -1.
         25    2    1    2    0    0 -0.27041413174E+02 -0.14401461022E+03 -0.50770038757E+03  0.54300717457E+03  0.12500264844E+03 0.  0.
          2    1    1    2  501    0 -0.20791100466E+01  0.11341213662E+03 -0.24279614551E+04  0.24306096895E+04  0.00000000000E+00 0. -1.
          1    1    1    2  502    0  0.29120523221E+02  0.30602473601E+02  0.16043326894E+03  0.16590162762E+03  0.00000000000E+00 0. -1.
         22    1    3    3    0    0 -0.57444456409E+02 -0.14155032084E+03 -0.47171152983E+03  0.49583074358E+03  0.00000000000E+00 0. -1.
         22    1    3    3    0    0  0.30403043234E+02 -0.24642893756E+01 -0.35988857734E+02  0.47176430991E+02  0.00000000000E+00 0. -1.
</event>
<event>
 7    1  0.6089676E-006  0.3212698E+02  0.7818608E-02  0.1651049E+00
          2   -1    0    0  502    0  0.00000000000E+00  0.00000000000E+00  0.16359476536E+03  0.16359476536E+03  0.00000000000E+00 0. -1.
          1   -1    0    0  501    0 -0.00000000000E+00 -0.00000000000E+00 -0.42460997180E+03  0.42460997180E+03  0.00000000000E+00 0. -1.
         25    2    1    2    0    0  0.23879039958E+02 -0.20316391803E+01 -0.30064307777E+03  0.32647510309E+03  0.12500158648E+03 0.  0.
          2    1    1    2  501    0 -0.29845420307E+02 -0.17654080504E+02 -0.10761147916E+03  0.11306036493E+03  0.00000000000E+00 0. -1.
          1    1    1    2  502    0  0.59663803484E+01  0.19685719684E+02  0.14723935048E+03  0.14866926913E+03  0.00000000000E+00 0. -1.
         22    1    3    3    0    0  0.52132283811E+01  0.42850752635E+02 -0.32688150680E+02  0.54146836901E+02  0.00000000000E+00 0.  1.
         22    1    3    3    0    0  0.18665811577E+02 -0.44882391815E+02 -0.26795492709E+03  0.27232826619E+03  0.00000000000E+00 0.  1.
</event>
<event>
 7    1  0.6089676E-006  0.7252732E+02  0.7818608E-02  0.1358776E+00
          2   -1    0    0  502    0  0.00000000000E+00  0.00000000000E+00  0.70069577292E+03  0.70069577292E+03  0.00000000000E+00 0. -1.
          1   -1    0    0  501    0 -0.00000000000E+00 -0.00000000000E+00 -0.42086834476E+03  0.42086834476E+03  0.00000000000E+00 0. -1.
         25    2    1    2    0    0 -0.97506835677E+02  0.82930457154E+02  0.47347422100E+03  0.50614983192E+03  0.12499908268E+03 0.  0.
          2    1    1    2  501    0  0.31603070167E+02 -0.64947240046E+02 -0.39564163975E+03  0.40218056286E+03  0.00000000000E+00 0. -1.
          1    1    1    2  502    0  0.65903765510E+02 -0.17983217107E+02  0.20199484691E+03  0.21323372290E+03  0.00000000000E+00 0. -1.
         22    1    3    3    0    0 -0.66916744548E+02  0.87809798307E+02  0.45875784223E+03  0.47185502984E+03  0.00000000000E+00 0.  1.
         22    1    3    3    0    0 -0.30590091129E+02 -0.48793411537E+01  0.14716378775E+02  0.34294802079E+02  0.00000000000E+00 0.  1.
</event>
<event>
 7    1  0.6089676E-006  0.1452831E+03  0.7818608E-02  0.1271114E+00
          2   -1    0    0  502    0  0.00000000000E+00  0.00000000000E+00  0.28369207428E+03  0.28369207428E+03  0.00000000000E+00 0. -1.
          1   -1    0    0  501    0 -0.00000000000E+00 -0.00000000000E+00 -0.62177663880E+03  0.62177663880E+03  0.00000000000E+00 0. -1.
         25    2    1    2    0    0 -0.32696000794E+02  0.10584713279E+03 -0.56158379067E+02  0.17621401329E+03  0.12499988381E+03 0.  0.
          2    1    1    2  501    0  0.57903908357E+02  0.47919334166E+02 -0.47513479896E+03  0.48104282800E+03  0.00000000000E+00 0. -1.
          1    1    1    2  502    0 -0.25207907564E+02 -0.15376646695E+03  0.19320861350E+03  0.24821187179E+03  0.00000000000E+00 0. -1.
         22    1    3    3    0    0 -0.44137390403E+02  0.74801235924E+02 -0.92624199649E+02  0.12697470806E+03  0.00000000000E+00 0. -1.
         22    1    3    3    0    0  0.11441389609E+02  0.31045896863E+02  0.36465820582E+02  0.49239305224E+02  0.00000000000E+00 0. -1.
</event>
<event>
 7    1  0.6089676E-006  0.5868014E+02  0.7818608E-02  0.1517411E+00
          2   -1    0    0  502    0  0.00000000000E+00  0.00000000000E+00  0.52067011750E+03  0.52067011750E+03  0.00000000000E+00 0. -1.
          1   -1    0    0  501    0 -0.00000000000E+00 -0.00000000000E+00 -0.10425499875E+03  0.10425499875E+03  0.00000000000E+00 0. -1.
         25    2    1    2    0    0 -0.39008753072E+02 -0.59210423524E+02  0.31795772890E+02  0.14718650574E+03  0.12500135690E+03 0.  0.
          2    1    1    2  501    0 -0.78714021912E+01  0.24385354803E+02 -0.40881750258E+02  0.48248544076E+02  0.00000000000E+00 0. -1.
          1    1    1    2  502    0  0.46880155263E+02  0.34825068720E+02  0.42550109612E+03  0.42949006643E+03  0.00000000000E+00 0. -1.
         22    1    3    3    0    0 -0.27317619924E+01 -0.63543645916E+02  0.69825831465E+02  0.94450538377E+02  0.00000000000E+00 0. -1.
         22    1    3    3    0    0 -0.36276991079E+02  0.43332223920E+01 -0.38030058575E+02  0.52735967359E+02  0.00000000000E+00 0. -1.
</event>
<event>
 7    1  0.6089676E-006  0.1482912E+03  0.7818608E-02  0.1325753E+00
          2   -1    0    0  502    0  0.00000000000E+00  0.00000000000E+00  0.26305349942E+04  0.26305349942E+04  0.00000000000E+00 0. -1.
          1   -1    0    0  501    0 -0.00000000000E+00 -0.00000000000E+00 -0.64589960195E+02  0.64589960195E+02  0.00000000000E+00 0. -1.
         25    2    1    2    0    0 -0.82352462274E+02 -0.82268561493E+02  0.56453008667E+03  0.58980507967E+03  0.12500307594E+03 0.  0.
          2    1    1    2  501    0  0.12608758554E+03  0.90119692767E+02  0.64456703791E+02  0.16785203280E+03  0.00000000000E+00 0. -1.
          1    1    1    2  502    0 -0.43735123265E+02 -0.78511312739E+01  0.19369582436E+04  0.19374678420E+04  0.00000000000E+00 0. -1.
         22    1    3    3    0    0 -0.10362704015E+03 -0.34831084629E+02  0.28041313159E+03  0.30097058374E+03  0.00000000000E+00 0.  1.
         22    1    3    3    0    0  0.21274577879E+02 -0.47437476864E+02  0.28411695508E+03  0.28883449593E+03  0.00000000000E+00 0.  1.
</event>
<event>
 7    1  0.6089676E-006  0.3971144E+02  0.7818608E-02  0.1555056E+00
          2   -1    0    0  502    0  0.00000000000E+00  0.00000000000E+00  0.10153959159E+03  0.10153959159E+03  0.00000000000E+00 0. -1.
          1   -1    0    0  501    0 -0.00000000000E+00 -0.00000000000E+00 -0.15947304566E+04  0.15947304566E+04  0.00000000000E+00 0. -1.
         25    2    1    2    0    0 -0.18319537987E+02 -0.28792027513E+02 -0.57580248019E+03  0.59020117623E+03  0.12499738362E+03 0.  0.
          2    1    1    2  501    0 -0.20758157275E+02  0.21097970746E+02 -0.10072979737E+04  0.10077327192E+04  0.00000000000E+00 0. -1.
          1    1    1    2  502    0  0.39077695262E+02  0.76940567674E+01  0.89909588869E+02  0.98336152798E+02  0.00000000000E+00 0. -1.
         22    1    3    3    0    0 -0.17081098568E+02 -0.62222868971E+02 -0.15263345784E+03  0.16571186380E+03  0.00000000000E+00 0. -1.
         22    1    3    3    0    0 -0.12384394192E+01  0.33430841457E+02 -0.42316902235E+03  0.42448931243E+03  0.00000000000E+00 0. -1.
</event>
<event>
 7    1  0.6089676E-006  0.9955099E+02  0.7818608E-02  0.1369727E+00
          2   -1    0    0  502    0  0.00000000000E+00  0.00000000000E+00  0.54929543994E+02  0.54929543994E+02  0.00000000000E+00 0. -1.
          1   -1    0    0  501    0 -0.00000000000E+00 -0.00000000000E+00 -0.82622259039E+03  0.82622259039E+03  0.00000000000E+00 0. -1.
         25    2    1    2    0    0 -0.53995631900E+02  0.12374883367E+03 -0.19495821260E+03  0.26807145243E+03  0.12499718736E+03 0.  0.
          2    1    1    2  501    0  0.19898512646E+02 -0.93742119272E+02 -0.55443564051E+03  0.56265656950E+03  0.00000000000E+00 0. -1.
          1    1    1    2  502    0  0.34097119255E+02 -0.30006714398E+02 -0.21899193287E+02  0.50424112457E+02  0.00000000000E+00 0. -1.
         22    1    3    3    0    0 -0.73461082617E+02  0.54900657246E+02 -0.16840257436E+03  0.19175515606E+03  0.00000000000E+00 0. -1.
         22    1    3    3    0    0  0.19465450716E+02  0.68848176425E+02 -0.26555638235E+02  0.76316296364E+02  0.00000000000E+00 0. -1.
</event>
<event>
 7    1  0.6089676E-006  0.1421940E+03  0.7818608E-02  0.1340648E+00
          2   -1    0    0  502    0  0.00000000000E+00  0.00000000000E+00  0.20503154006E+04  0.20503154006E+04  0.00000000000E+00 0. -1.
          1   -1    0    0  501    0 -0.00000000000E+00 -0.00000000000E+00 -0.91488628669E+03  0.91488628669E+03  0.00000000000E+00 0. -1.
         25    2    1    2    0    0  0.49607414557E+02  0.17565534268E+03  0.15528247282E+04  0.15685041909E+04  0.12500026070E+03 0.  0.
          2    1    1    2  501    0 -0.35182182646E+02 -0.13762456974E+03 -0.90062535931E+03  0.91175892976E+03  0.00000000000E+00 0. -1.
          1    1    1    2  502    0 -0.14425231911E+02 -0.38030772936E+02  0.48322974503E+03  0.48493856672E+03  0.00000000000E+00 0. -1.
         22    1    3    3    0    0 -0.21742758922E+02  0.96499689003E+02  0.10418368726E+04  0.10465223393E+04  0.00000000000E+00 0.  1.
         22    1    3    3    0    0  0.71350173480E+02  0.79155653675E+02  0.51098785557E+03  0.52198185151E+03  0.00000000000E+00 0.  1.
</event>
<event>
 7    1  0.6089676E-006  0.5455847E+02  0.7818608E-02  0.1449670E+00
          2   -1    0    0  502    0  0.00000000000E+00  0.00000000000E+00  0.12212068504E+04  0.12212068504E+04  0.00000000000E+00 0. -1.
          1   -1    0    0  501    0 -0.00000000000E+00 -0.00000000000E+00 -0.21616965423E+03  0.21616965423E+03  0.00000000000E+00 0. -1.
         25    2    1    2    0    0 -0.38865974433E+02 -0.14863805823E+02  0.99464732144E+03  0.10033294730E+04  0.12496095625E+03 0.  0.
          2    1    1    2  501    0  0.15310138994E+02  0.52475433164E+02 -0.20601230750E+03  0.21314113231E+03  0.00000000000E+00 0. -1.
          1    1    1    2  502    0  0.23555835439E+02 -0.37611627341E+02  0.21640218220E+03  0.22090589933E+03  0.00000000000E+00 0. -1.
         22    1    3    3    0    0  0.43841665915E+02 -0.26386901623E+00  0.46529602845E+03  0.46735698923E+03  0.00000000000E+00 0.  1.
         22    1    3    3    0    0 -0.82707640348E+02 -0.14599936807E+02  0.52935129300E+03  0.53597248374E+03  0.00000000000E+00 0.  1.
</event>
<event>
 7    1  0.6089676E-006  0.7188006E+02  0.7818608E-02  0.1507112E+00
          2   -1    0    0  502    0  0.00000000000E+00  0.00000000000E+00  0.15884758088E+04  0.15884758088E+04  0.00000000000E+00 0. -1.
          1   -1    0    0  501    0 -0.00000000000E+00 -0.00000000000E+00 -0.60392860352E+02  0.60392860352E+02  0.00000000000E+00 0. -1.
         25    2    1    2    0    0 -0.79531140666E+02  0.21299091459E+02  0.22113227660E+03  0.26702365926E+03  0.12499318868E+03 0.  0.
          2    1    1    2  501    0  0.17386003316E+02  0.14165673791E+02 -0.33047184058E+02  0.39938149674E+02  0.00000000000E+00 0. -1.
          1    1    1    2  502    0  0.62145137350E+02 -0.35464765250E+02  0.13399978559E+04  0.13419068602E+04  0.00000000000E+00 0. -1.
         22    1    3    3    0    0 -0.95993634913E+02  0.55712680873E+02  0.17403905526E+03  0.20641771608E+03  0.00000000000E+00 0.  1.
         22    1    3    3    0    0  0.16462494246E+02 -0.34413589414E+02  0.47093221339E+02  0.60605943184E+02  0.00000000000E+00 0.  1.
</event>
<event>
 7    1  0.6089676E-006  0.5066471E+02  0.7818608E-02  0.1456068E+00
          2   -1    0    0  502    0  0.00000000000E+00  0.00000000000E+00  0.16585992695E+02  0.16585992695E+02  0.00000000000E+00 0. -1.
          1   -1    0    0  501    0 -0.00000000000E+00 -0.00000000000E+00 -0.86879277481E+03  0.86879277481E+03  0.00000000000E+00 0. -1.
         25    2    1    2    0    0  0.39157036654E+01  0.36849864746E+02 -0.49068313384E+03  0.50770802726E+03  0.12499703134E+03 0.  0.
          2    1    1    2  501    0 -0.49497684698E+02 -0.35626108315E+02 -0.24665755196E+03  0.25408500216E+03  0.00000000000E+00 0. -1.
          1    1    1    2  502    0  0.45581981032E+02 -0.12237564313E+01 -0.11486609632E+03  0.12358573809E+03  0.00000000000E+00 0. -1.
         22    1    3    3    0    0  0.23362815872E+02 -0.26501675206E+02 -0.35450798928E+03  0.35626405154E+03  0.00000000000E+00 0.  1.
         22    1    3    3    0    0 -0.19447112206E+02  0.63351539953E+02 -0.13617514456E+03  0.15144397572E+03  0.00000000000E+00 0.  1.
</event>
<event>
 7    1  0.6178652E-006  0.6582107E+02  0.7818608E-02  0.1409011E+00
          2   -1    0    0  502    0  0.00000000000E+00  0.00000000000E+00  0.64373900066E+03  0.64373900066E+03  0.00000000000E+00 0. -1.
          1   -1    0    0  501    0 -0.00000000000E+00 -0.00000000000E+00 -0.13273671648E+04  0.13273671648E+04  0.00000000000E+00 0. -1.
         25    2    1    2    0    0  0.18539470808E+02  0.16268025078E+02 -0.10220304751E+03  0.16333891469E+03  0.12500311002E+03 0.  0.
          2    1    1    2  501    0 -0.67128243166E+02 -0.41276643675E+01 -0.11926245267E+04  0.11945193596E+04  0.00000000000E+00 0. -1.
          1    1    1    2  502    0  0.48588772358E+02 -0.12140360711E+02  0.61119941010E+03  0.61324789120E+03  0.00000000000E+00 0. -1.
         22    1    3    3    0    0  0.62131920452E+02  0.29497111162E+02 -0.94898477404E+02  0.11720143395E+03  0.00000000000E+00 0.  1.
         22    1    3    3    0    0 -0.43592449644E+02 -0.13229086083E+02 -0.73045701030E+01  0.46137480739E+02  0.00000000000E+00 0.  1.
</event>
<event>
 7    1  0.6089676E-006  0.4666262E+02  0.7818608E-02  0.1465987E+00
          2   -1    0    0  502    0  0.00000000000E+00  0.00000000000E+00  0.34312493763E+03  0.34312493763E+03  0.00000000000E+00 0. -1.
          1   -1    0    0  501    0 -0.00000000000E+00 -0.00000000000E+00 -0.80717083484E+02  0.80717083484E+02  0.00000000000E+00 0. -1.
         25    2    1    2    0    0 -0.10869658486E+02  0.29121601224E+02  0.10808121280E+03  0.16814464030E+03  0.12499941748E+03 0.  0.
          2    1    1    2  501    0 -0.39061899576E+02 -0.24429677295E+02 -0.36255634603E+02  0.58626889493E+02  0.00000000000E+00 0. -1.
          1    1    1    2  502    0  0.49931558062E+02 -0.46919239295E+01  0.19058227595E+03  0.19707049132E+03  0.00000000000E+00 0. -1.
         22    1    3    3    0    0 -0.17452081678E+02  0.56117307883E+02  0.12320886603E+03  0.13650696710E+03  0.00000000000E+00 0.  1.
         22    1    3    3    0    0  0.65824231922E+01 -0.26995706659E+02 -0.15127653235E+02  0.31637673200E+02  0.00000000000E+00 0.  1.
</event>
<event>
 7    1  0.6089676E-006  0.7480527E+02  0.7818608E-02  0.1413051E+00
          2   -1    0    0  502    0  0.00000000000E+00  0.00000000000E+00  0.21874267510E+04  0.21874267510E+04  0.00000000000E+00 0. -1.
          1   -1    0    0  501    0 -0.00000000000E+00 -0.00000000000E+00 -0.54337259710E+03  0.54337259710E+03  0.00000000000E+00 0. -1.
         25    2    1    2    0    0  0.37874581280E+02 -0.19579726328E+02  0.30369609279E+03  0.33117206924E+03  0.12500309227E+03 0.  0.
          2    1    1    2  501    0  0.38988196642E+02  0.17418393385E+02 -0.52798177977E+03  0.52970580483E+03  0.00000000000E+00 0. -1.
          1    1    1    2  502    0 -0.76862777922E+02  0.21613329430E+01  0.18683398409E+04  0.18699214740E+04  0.00000000000E+00 0. -1.
         22    1    3    3    0    0  0.65815510491E+02  0.22146555879E+02  0.24121618080E+03  0.25101274318E+03  0.00000000000E+00 0.  1.
         22    1    3    3    0    0 -0.27940929211E+02 -0.41726282207E+02  0.62479911988E+02  0.80159326057E+02  0.00000000000E+00 0.  1.
</event>
<event>
 7    1  0.6089676E-006  0.1069748E+03  0.7818608E-02  0.1283550E+00
          2   -1    0    0  502    0  0.00000000000E+00  0.00000000000E+00  0.66592161334E+02  0.66592161334E+02  0.00000000000E+00 0. -1.
          1   -1    0    0  501    0 -0.00000000000E+00 -0.00000000000E+00 -0.23667819813E+04  0.23667819813E+04  0.00000000000E+00 0. -1.
         25    2    1    2    0    0 -0.49063128322E+02 -0.13869103616E+03 -0.10608506412E+04  0.10782730133E+04  0.12500485680E+03 0.  0.
          2    1    1    2  501    0  0.82466182884E+02  0.37611816610E+02 -0.12451904840E+04  0.12484849464E+04  0.00000000000E+00 0. -1.
          1    1    1    2  502    0 -0.33403054562E+02  0.10107921955E+03  0.58513052296E+01  0.10661618288E+03  0.00000000000E+00 0. -1.
         22    1    3    3    0    0 -0.10618323680E+02 -0.40125597957E+02 -0.72422198373E+03  0.72541043150E+03  0.00000000000E+00 0.  1.
         22    1    3    3    0    0 -0.38444804642E+02 -0.98565438203E+02 -0.33662865749E+03  0.35286258183E+03  0.00000000000E+00 0.  1.
</event>
<event>
 7    1  0.6089676E-006  0.5992834E+02  0.7818608E-02  0.1549311E+00
          2   -1    0    0  502    0  0.00000000000E+00  0.00000000000E+00  0.47992519404E+03  0.47992519404E+03  0.00000000000E+00 0. -1.
          1   -1    0    0  501    0 -0.00000000000E+00 -0.00000000000E+00 -0.22906131926E+03  0.22906131926E+03  0.00000000000E+00 0. -1.
         25    2    1    2    0    0  0.32089814102E+02 -0.58209264192E+02  0.15446082220E+03  0.20952826862E+03  0.12500350054E+03 0.  0.
          2    1    1    2  501    0 -0.20347408076E+02 -0.13905255748E+00 -0.19802854781E+03  0.19907119857E+03  0.00000000000E+00 0. -1.
          1    1    1    2  502    0 -0.11742406026E+02  0.58348316750E+02  0.29443160039E+03  0.30038704612E+03  0.00000000000E+00 0. -1.
         22    1    3    3    0    0  0.29845708342E+02  0.36306098078E+02  0.49085202558E+02  0.67957752864E+02  0.00000000000E+00 0.  1.
         22    1    3    3    0    0  0.22441057595E+01 -0.94515362271E+02  0.10537561964E+03  0.14157051575E+03  0.00000000000E+00 0.  1.
</event>
<event>
 7    1  0.6089676E-006  0.8585307E+02  0.7818608E-02  0.1332545E+00
          2   -1    0    0  502    0  0.00000000000E+00  0.00000000000E+00  0.45570306965E+03  0.45570306965E+03  0.00000000000E+00 0. -1.
          1   -1    0    0  501    0 -0.00000000000E+00 -0.00000000000E+00 -0.18000841397E+03  0.18000841397E+03  0.00000000000E+00 0. -1.
         25    2    1    2    0    0  0.11011900718E+03  0.60134730400E+02  0.17474559073E+03  0.24880404230E+03  0.12500019377E+03 0.  0.
          2    1    1    2  501    0 -0.71393323196E+02  0.11366826148E+02 -0.12631210215E+03  0.14553679426E+03  0.00000000000E+00 0. -1.
          1    1    1    2  502    0 -0.38725683983E+02 -0.71501556548E+02  0.22726116710E+03  0.24137064706E+03  0.00000000000E+00 0. -1.
         22    1    3    3    0    0  0.36690258804E+02 -0.37494386477E+02  0.72573426191E+02  0.89548346146E+02  0.00000000000E+00 0. -1.
         22    1    3    3    0    0  0.73428748375E+02  0.97629116877E+02  0.10217216454E+03  0.15925569615E+03  0.00000000000E+00 0. -1.
</event>
<event>
 7    1  0.6089676E-006  0.5538457E+02  0.7818608E-02  0.1456660E+00
          2   -1    0    0  502    0  0.00000000000E+00  0.00000000000E+00  0.50779573084E+03  0.50779573084E+03  0.00000000000E+00 0. -1.
          1   -1    0    0  501    0 -0.00000000000E+00 -0.00000000000E+00 -0.11935063073E+04  0.11935063073E+04  0.00000000000E+00 0. -1.
         25    2    1    2    0    0 -0.17781114338E+02  0.19930836034E+02 -0.42372549243E+03  0.44258614968E+03  0.12500320277E+03 0.  0.
          2    1    1    2  501    0  0.58452070441E+02 -0.11514734002E+02 -0.75831483977E+03  0.76065145097E+03  0.00000000000E+00 0. -1.
          1    1    1    2  502    0 -0.40670956103E+02 -0.84161020321E+01  0.49632975575E+03  0.49806443748E+03  0.00000000000E+00 0. -1.
         22    1    3    3    0    0 -0.12419621082E+02 -0.51697501612E+02 -0.13582479268E+03  0.14586038861E+03  0.00000000000E+00 0. -1.
         22    1    3    3    0    0 -0.53614932563E+01  0.71628337646E+02 -0.28790069975E+03  0.29672576107E+03  0.00000000000E+00 0. -1.
</event>
<event>
 7    1  0.6089676E-006  0.1535769E+03  0.7818608E-02  0.1211196E+00
          2   -1    0    0  502    0  0.00000000000E+00  0.00000000000E+00  0.22194896837E+04  0.22194896837E+04  0.00000000000E+00 0. -1.
          1   -1    0    0  501    0 -0.00000000000E+00 -0.00000000000E+00 -0.41484427483E+03  0.41484427483E+03  0.00000000000E+00 0. -1.
         25    2    1    2    0    0  0.83649220621E+02 -0.26043512712E+03  0.83805697419E+02  0.31220482622E+03  0.12499924417E+03 0.  0.
          2    1    1    2  501    0 -0.38785220660E+02  0.13783474098E+03 -0.28134847746E+03  0.31568920623E+03  0.00000000000E+00 0. -1.
          1    1    1    2  502    0 -0.44863999961E+02  0.12260038615E+03  0.20021881889E+04  0.20064399261E+04  0.00000000000E+00 0. -1.
         22    1    3    3    0    0  0.74148427018E+00 -0.16420588406E+03  0.85587025940E+02  0.18517359738E+03  0.00000000000E+00 0. -1.
         22    1    3    3    0    0  0.82907736351E+02 -0.96229243069E+02 -0.17813285217E+01  0.12703122884E+03  0.00000000000E+00 0. -1.
</event>
<event>
 7    1  0.6089676E-006  0.1456837E+03  0.7818608E-02  0.1316783E+00
          2   -1    0    0  502    0  0.00000000000E+00  0.00000000000E+00  0.42506113160E+03  0.42506113160E+03  0.00000000000E+00 0. -1.
          1   -1    0    0  501    0 -0.00000000000E+00 -0.00000000000E+00 -0.15963756755E+04  0.15963756755E+04  0.00000000000E+00 0. -1.
         25    2    1    2    0    0  0.95830063922E+02 -0.11841986031E+03 -0.19914071441E+03  0.28015900028E+03  0.12500150732E+03 0.  0.
          2    1    1    2  501    0 -0.50397570244E+02  0.13676158334E+03 -0.13512300875E+04  0.13590682085E+04  0.00000000000E+00 0. -1.
          1    1    1    2  502    0 -0.45432493678E+02 -0.18341723032E+02  0.37905625808E+03  0.38220959835E+03  0.00000000000E+00 0. -1.
         22    1    3    3    0    0 -0.14217420382E+02 -0.74743028988E+02 -0.56415057457E+02  0.94717021345E+02  0.00000000000E+00 0. -1.
         22    1    3    3    0    0  0.11004748430E+03 -0.43676831321E+02 -0.14272565696E+03  0.18544197893E+03  0.00000000000E+00 0. -1.
</event>
<event>
 7    1  0.6089676E-006  0.7990819E+02  0.7818608E-02  0.1449038E+00
          2   -1    0    0  502    0  0.00000000000E+00  0.00000000000E+00  0.20726179028E+04  0.20726179028E+04  0.00000000000E+00 0. -1.
          1   -1    0    0  501    0 -0.00000000000E+00 -0.00000000000E+00 -0.18859290556E+04  0.18859290556E+04  0.00000000000E+00 0. -1.
         25    2    1    2    0    0  0.56448737051E+02 -0.34982950531E+02 -0.85571349704E+02  0.16539771420E+03  0.12499472481E+03 0.  0.
          2    1    1    2  501    0 -0.48166157420E+02  0.64276545684E+02 -0.17594142690E+04  0.17612467241E+04  0.00000000000E+00 0. -1.
          1    1    1    2  502    0 -0.82825796313E+01 -0.29293595152E+02  0.20316744659E+04  0.20319025202E+04  0.00000000000E+00 0. -1.
         22    1    3    3    0    0  0.88837186488E+02 -0.20307093023E+02 -0.23901605226E+02  0.94210989075E+02  0.00000000000E+00 0. -1.
         22    1    3    3    0    0 -0.32388449436E+02 -0.14675857508E+02 -0.61669744477E+02  0.71186725127E+02  0.00000000000E+00 0. -1.
</event>
<event>
 7    1  0.6089676E-006  0.6158542E+02  0.7818608E-02  0.1484747E+00
          2   -1    0    0  502    0  0.00000000000E+00  0.00000000000E+00  0.16957413061E+04  0.16957413061E+04  0.00000000000E+00 0. -1.
          1   -1    0    0  501    0 -0.00000000000E+00 -0.00000000000E+00 -0.13844745270E+04  0.13844745270E+04  0.00000000000E+00 0. -1.
         25    2    1    2    0    0 -0.33801585081E+02  0.26797286534E+01 -0.81977624224E+01  0.12976727180E+03  0.12499045332E+03 0.  0.
          2    1    1    2  501    0  0.60850806621E+02  0.11519628787E+02 -0.13146202455E+04  0.13160782319E+04  0.00000000000E+00 0. -1.
          1    1    1    2  502    0 -0.27049221540E+02 -0.14199357440E+02  0.16340847870E+04  0.16343703293E+04  0.00000000000E+00 0. -1.
         22    1    3    3    0    0 -0.64875303595E+02 -0.33420734411E+02 -0.28024245944E+02  0.78173581636E+02  0.00000000000E+00 0.  1.
         22    1    3    3    0    0  0.31073718515E+02  0.36100463064E+02  0.19826483522E+02  0.51593690163E+02  0.00000000000E+00 0.  1.
</event>
<event>
 7    1  0.6089676E-006  0.4003069E+02  0.7818608E-02  0.1607672E+00
          2   -1    0    0  502    0  0.00000000000E+00  0.00000000000E+00  0.38223402466E+02  0.38223402466E+02  0.00000000000E+00 0. -1.
          1   -1    0    0  501    0 -0.00000000000E+00 -0.00000000000E+00 -0.67319019847E+03  0.67319019847E+03  0.00000000000E+00 0. -1.
         25    2    1    2    0    0 -0.39198647518E+02 -0.43716702168E+02 -0.26810878136E+03  0.30158626965E+03  0.12499710150E+03 0.  0.
          2    1    1    2  501    0  0.89588162221E+01  0.19244520347E+02 -0.37017630984E+03  0.37078445534E+03  0.00000000000E+00 0. -1.
          1    1    1    2  502    0  0.30239831296E+02  0.24472181820E+02  0.33182951921E+01  0.39042875955E+02  0.00000000000E+00 0. -1.
         22    1    3    3    0    0 -0.38310483189E+02 -0.85881338600E+02 -0.20674382881E+03  0.22712619442E+03  0.00000000000E+00 0. -1.
         22    1    3    3    0    0 -0.88816432872E+00  0.42164636433E+02 -0.61364952549E+02  0.74460075226E+02  0.00000000000E+00 0. -1.
</event>
<event>
 7    1  0.6089676E-006  0.5453770E+02  0.7818608E-02  0.1490498E+00
          2   -1    0    0  502    0  0.00000000000E+00  0.00000000000E+00  0.44816312562E+02  0.44816312562E+02  0.00000000000E+00 0. -1.
          1   -1    0    0  501    0 -0.00000000000E+00 -0.00000000000E+00 -0.92748163875E+03  0.92748163875E+03  0.00000000000E+00 0. -1.
         25    2    1    2    0    0  0.25776563276E+01 -0.35684827325E+02 -0.22393959552E+03  0.25894648704E+03  0.12499715794E+03 0.  0.
          2    1    1    2  501    0 -0.29421152159E+02 -0.15249614016E+02 -0.65480503892E+03  0.65564303849E+03  0.00000000000E+00 0. -1.
          1    1    1    2  502    0  0.26843495831E+02  0.50934441341E+02 -0.39206917461E+01  0.57708425788E+02  0.00000000000E+00 0. -1.
         22    1    3    3    0    0  0.54329252407E+01  0.37319620341E+02 -0.15126739647E+03  0.15589770997E+03  0.00000000000E+00 0. -1.
         22    1    3    3    0    0 -0.28552689131E+01 -0.73004447667E+02 -0.72672199050E+02  0.10304877706E+03  0.00000000000E+00 0. -1.
</event>
<event>
 7    1  0.6089676E-006  0.4432207E+02  0.7818608E-02  0.1578821E+00
          2   -1    0    0  502    0  0.00000000000E+00  0.00000000000E+00  0.10354784081E+03  0.10354784081E+03  0.00000000000E+00 0. -1.
          1   -1    0    0  501    0 -0.00000000000E+00 -0.00000000000E+00 -0.16272877619E+04  0.16272877619E+04  0.00000000000E+00 0. -1.
         25    2    1    2    0    0 -0.29440044171E+02  0.54631755835E+01 -0.32436908398E+02  0.13256659260E+03  0.12500074383E+03 0.  0.
          2    1    1    2  501    0 -0.15557715413E+02 -0.16724091991E+02 -0.15346275817E+04  0.15347975607E+04  0.00000000000E+00 0. -1.
          1    1    1    2  502    0  0.44997759583E+02  0.11260916407E+02  0.43324569046E+02  0.63471449400E+02  0.00000000000E+00 0. -1.
         22    1    3    3    0    0 -0.65006751026E+02 -0.13883517799E+02 -0.54946173665E+02  0.86242169186E+02  0.00000000000E+00 0. -1.
         22    1    3    3    0    0  0.35566706856E+02  0.19346693382E+02  0.22509265267E+02  0.46324423410E+02  0.00000000000E+00 0. -1.
</event>
<event>
 7    1  0.6089676E-006  0.9289817E+02  0.7818608E-02  0.1382982E+00
          2   -1    0    0  502    0  0.00000000000E+00  0.00000000000E+00  0.29534558763E+03  0.29534558763E+03  0.00000000000E+00 0. -1.
          1   -1    0    0  501    0 -0.00000000000E+00 -0.00000000000E+00 -0.99139863134E+03  0.99139863134E+03  0.00000000000E+00 0. -1.
         25    2    1    2    0    0  0.87537186905E+02  0.81002570715E+02  0.39872760086E+02  0.17730970139E+03  0.12499887062E+03 0.  0.
          2    1    1    2  501    0 -0.84547033318E+02 -0.37444831909E+02 -0.91777303319E+03  0.92241945812E+03  0.00000000000E+00 0. -1.
          1    1    1    2  502    0 -0.29901535870E+01 -0.43557738806E+02  0.18184722939E+03  0.18701505946E+03  0.00000000000E+00 0. -1.
         22    1    3    3    0    0  0.90245250177E+01 -0.32950721886E+02  0.43417172242E+01  0.34438969686E+02  0.00000000000E+00 0. -1.
         22    1    3    3    0    0  0.78512661887E+02  0.11395329260E+03  0.35531042862E+02  0.14287073171E+03  0.00000000000E+00 0. -1.
</event>
<event>
 7    1  0.6089676E-006  0.2312735E+03  0.7818608E-02  0.1231923E+00
          2   -1    0    0  502    0  0.00000000000E+00  0.00000000000E+00  0.58051617118E+03  0.58051617118E+03  0.00000000000E+00 0. -1.
          1   -1    0    0  501    0 -0.00000000000E+00 -0.00000000000E+00 -0.29060501128E+03  0.29060501128E+03  0.00000000000E+00 0. -1.
         25    2    1    2    0    0 -0.12363325989E+03 -0.12947876978E+03 -0.35430858017E+02  0.22119048031E+03  0.12497979079E+03 0.  0.
          2    1    1    2  501    0 -0.64792732752E+02 -0.25901620907E+02 -0.12183761729E+03  0.14040440581E+03  0.00000000000E+00 0. -1.
          1    1    1    2  502    0  0.18842599264E+03  0.15538039069E+03  0.44717963521E+03  0.50952629634E+03  0.00000000000E+00 0. -1.
         22    1    3    3    0    0 -0.73205561511E+02 -0.36803726302E+02 -0.72454478667E+02  0.10937650563E+03  0.00000000000E+00 0.  1.
         22    1    3    3    0    0 -0.50427698377E+02 -0.92675043478E+02  0.37023620649E+02  0.11181397468E+03  0.00000000000E+00 0.  1.
</event>
<event>
 7    1  0.6089676E-006  0.1601194E+03  0.7818608E-02  0.1397464E+00
          2   -1    0    0  502    0  0.00000000000E+00  0.00000000000E+00  0.13966837220E+04  0.13966837220E+04  0.00000000000E+00 0. -1.
          1   -1    0    0  501    0 -0.00000000000E+00 -0.00000000000E+00 -0.41011978399E+03  0.41011978399E+03  0.00000000000E+00 0. -1.
         25    2    1    2    0    0 -0.16827092717E+03 -0.19121576228E+02 -0.96597789601E+02  0.23160547671E+03  0.12501689597E+03 0.  0.
          2    1    1    2  501    0  0.83951834730E+01  0.20927863872E+02 -0.24068111926E+03  0.24173509418E+03  0.00000000000E+00 0. -1.
          1    1    1    2  502    0  0.15987574370E+03 -0.18062876448E+01  0.13238428469E+04  0.13334629351E+04  0.00000000000E+00 0. -1.
         22    1    3    3    0    0 -0.74850496080E+02  0.26969241371E+02  0.12754537763E+02  0.80576764499E+02  0.00000000000E+00 0.  1.
         22    1    3    3    0    0 -0.93420431092E+02 -0.46090817599E+02 -0.10935232736E+03  0.15102871221E+03  0.00000000000E+00 0.  1.
</event>
<event>
 7    1  0.6089676E-006  0.6879609E+02  0.7818608E-02  0.1488474E+00
          2   -1    0    0  502    0  0.00000000000E+00  0.00000000000E+00  0.53682004646E+03  0.53682004646E+03  0.00000000000E+00 0. -1.
          1   -1    0    0  501    0 -0.00000000000E+00 -0.00000000000E+00 -0.53962993932E+03  0.53962993932E+03  0.00000000000E+00 0. -1.
         25    2    1    2    0    0  0.19573166245E+02 -0.72445779285E+02  0.24007914940E+03  0.28086933641E+03  0.12497234249E+03 0.  0.
          2    1    1    2  501    0  0.20455259961E+02  0.17072300252E+02 -0.51466155479E+03  0.51535075151E+03  0.00000000000E+00 0. -1.
          1    1    1    2  502    0 -0.40028426205E+02  0.55373479033E+02  0.27177251253E+03  0.28022989786E+03  0.00000000000E+00 0. -1.
         22    1    3    3    0    0  0.34928198510E+02 -0.51809204961E+02  0.30162573761E+02  0.69382660843E+02  0.00000000000E+00 0.  1.
         22    1    3    3    0    0 -0.15355032266E+02 -0.20636574324E+02  0.20991657564E+03  0.21148667557E+03  0.00000000000E+00 0.  1.
</event>
<event>
 7    1  0.6089676E-006  0.9855470E+02  0.7818608E-02  0.1353175E+00
          2   -1    0    0  502    0  0.00000000000E+00  0.00000000000E+00  0.13385505454E+04  0.13385505454E+04  0.00000000000E+00 0. -1.
          1   -1    0    0  501    0 -0.00000000000E+00 -0.00000000000E+00 -0.15596338488E+03  0.15596338488E+03  0.00000000000E+00 0. -1.
         25    2    1    2    0    0  0.82196417759E+02 -0.46001008949E+02  0.65527964201E+03  0.67371266810E+03  0.12500002405E+03 0.  0.
          2    1    1    2  501    0 -0.48344771264E+02  0.86404224333E+02 -0.12886852175E+03  0.16251154664E+03  0.00000000000E+00 0. -1.
          1    1    1    2  502    0 -0.33851646495E+02 -0.40403215384E+02  0.65617604025E+03  0.65828971554E+03  0.00000000000E+00 0. -1.
         22    1    3    3    0    0  0.10451101065E+03 -0.16495726846E+02  0.58292711526E+03  0.59245141747E+03  0.00000000000E+00 0. -1.
         22    1    3    3    0    0 -0.22314592892E+02 -0.29505282103E+02  0.72352526746E+02  0.81261250633E+02  0.00000000000E+00 0. -1.
</event>
<event>
 7    1  0.6089676E-006  0.6083779E+02  0.7818608E-02  0.1445321E+00
          2   -1    0    0  502    0  0.00000000000E+00  0.00000000000E+00  0.10328120865E+03  0.10328120865E+03  0.00000000000E+00 0. -1.
          1   -1    0    0  501    0 -0.00000000000E+00 -0.00000000000E+00 -0.72488647246E+03  0.72488647246E+03  0.00000000000E+00 0. -1.
         25    2    1    2    0    0 -0.40867363454E+02 -0.20439221187E+01 -0.62028492926E+03  0.63407641051E+03  0.12500072755E+03 0.  0.
          2    1    1    2  501    0 -0.68980063471E+01  0.40516245203E+02 -0.82604558828E+02  0.92264087034E+02  0.00000000000E+00 0. -1.
          1    1    1    2  502    0  0.47765369801E+02 -0.38472323085E+02  0.81284224276E+02  0.10182718356E+03  0.00000000000E+00 0. -1.
         22    1    3    3    0    0  0.34273967970E+02 -0.20193998126E+02 -0.92938802082E+02  0.10109462584E+03  0.00000000000E+00 0. -1.
         22    1    3    3    0    0 -0.75141331424E+02  0.18150076007E+02 -0.52734612717E+03  0.53298178467E+03  0.00000000000E+00 0. -1.
</event>
<event>
 7    1  0.6089676E-006  0.6181141E+02  0.7818608E-02  0.1438184E+00
          2   -1    0    0  502    0  0.00000000000E+00  0.00000000000E+00  0.26681782321E+02  0.26681782321E+02  0.00000000000E+00 0. -1.
          1   -1    0    0  501    0 -0.00000000000E+00 -0.00000000000E+00 -0.13656653209E+04  0.13656653209E+04  0.00000000000E+00 0. -1.
         25    2    1    2    0    0 -0.39302148727E+02 -0.27503407089E+00 -0.28484704429E+03  0.31353968875E+03  0.12499825296E+03 0.  0.
          2    1    1    2  501    0  0.48912725635E+02 -0.41290571431E+02 -0.10253398763E+04  0.10273359859E+04  0.00000000000E+00 0. -1.
          1    1    1    2  502    0 -0.96105769082E+01  0.41565605501E+02 -0.28796617964E+02  0.51471428535E+02  0.00000000000E+00 0. -1.
         22    1    3    3    0    0 -0.81974942657E+02  0.47952632752E+01 -0.13848990398E+03  0.16100415920E+03  0.00000000000E+00 0.  1.
         22    1    3    3    0    0  0.42672793930E+02 -0.50702973461E+01 -0.14635714030E+03  0.15253552955E+03  0.00000000000E+00 0.  1.
</event>
<event>
 7    1  0.6089676E-006  0.7803127E+02  0.7818608E-02  0.1363963E+00
          2   -1    0    0  502    0  0.00000000000E+00  0.00000000000E+00  0.12800968718E+04  0.12800968718E+04  0.00000000000E+00 0. -1.
          1   -1    0    0  501    0 -0.00000000000E+00 -0.00000000000E+00 -0.17101192835E+04  0.17101192835E+04  0.00000000000E+00 0. -1.
         25    2    1    2    0    0 -0.30109470251E+02 -0.37751861792E+02 -0.39860626697E+02  0.13978700245E+03  0.12497901114E+03 0.  0.
          2    1    1    2  501    0  0.78922173183E+02  0.15166911524E+01 -0.16185819644E+04  0.16205056573E+04  0.00000000000E+00 0. -1.
          1    1    1    2  502    0 -0.48812702932E+02  0.36235170640E+02  0.12284201794E+04  0.12299234955E+04  0.00000000000E+00 0. -1.
         22    1    3    3    0    0 -0.31832634368E+02 -0.43182341891E+02  0.35423703135E+02  0.64287401610E+02  0.00000000000E+00 0. -1.
         22    1    3    3    0    0  0.17231641170E+01  0.54304800989E+01 -0.75284329831E+02  0.75499600839E+02  0.00000000000E+00 0. -1.
</event>
<event>
 7    1  0.6089676E-006  0.2333394E+03  0.7818608E-02  0.1184028E+00
          2   -1    0    0  502    0  0.00000000000E+00  0.00000000000E+00  0.19735780137E+04  0.19735780137E+04  0.00000000000E+00 0. -1.
          1   -1    0    0  501    0 -0.00000000000E+00 -0.00000000000E+00 -0.21520568791E+03  0.21520568791E+03  0.00000000000E+00 0. -1.
         25    2    1    2    0    0 -0.83905905758E+02 -0.10701667998E+03  0.51982128418E+02  0.19188415876E+03  0.12499847156E+03 0.  0.
          2    1    1    2  501    0 -0.24075874344E+02 -0.11301942829E+03 -0.11267480929E+03  0.16139594649E+03  0.00000000000E+00 0. -1.
          1    1    1    2  502    0  0.10798178010E+03  0.22003610826E+03  0.18190650066E+04  0.18355035963E+04  0.00000000000E+00 0. -1.
         22    1    3    3    0    0 -0.76153083901E+02 -0.33649433977E+00  0.34092819276E+02  0.83436956693E+02  0.00000000000E+00 0.  1.
         22    1    3    3    0    0 -0.77528218571E+01 -0.10668018564E+03  0.17889309141E+02  0.10844720206E+03  0.00000000000E+00 0.  1.
</event>
<event>
 7    1  0.6089676E-006  0.8976030E+02  0.7818608E-02  0.1314905E+00
          2   -1    0    0  502    0  0.00000000000E+00  0.00000000000E+00  0.22161902413E+04  0.22161902413E+04  0.00000000000E+00 0. -1.
          1   -1    0    0  501    0 -0.00000000000E+00 -0.00000000000E+00 -0.17108605734E+03  0.17108605734E+03  0.00000000000E+00 0. -1.
         25    2    1    2    0    0 -0.23586260070E+02 -0.12750884392E+02  0.27375450691E+03  0.30213318590E+03  0.12499614095E+03 0.  0.
          2    1    1    2  501    0  0.28764460211E+01 -0.80823924415E+02 -0.14519706689E+03  0.16620159125E+03  0.00000000000E+00 0. -1.
          1    1    1    2  502    0  0.20709814049E+02  0.93574808806E+02  0.19165467439E+04  0.19189415215E+04  0.00000000000E+00 0. -1.
         22    1    3    3    0    0 -0.28185522063E+02  0.29316002984E+01  0.28228090342E+03  0.28369971161E+03  0.00000000000E+00 0.  1.
         22    1    3    3    0    0  0.45992619929E+01 -0.15682484690E+02 -0.85263965070E+01  0.18433474288E+02  0.00000000000E+00 0.  1.
</event>
<event>
 7    1  0.6089676E-006  0.2631112E+03  0.7818608E-02  0.1326717E+00
          2   -1    0    0  502    0  0.00000000000E+00  0.00000000000E+00  0.98030208908E+03  0.98030208908E+03  0.00000000000E+00 0. -1.
          1   -1    0    0  501    0 -0.00000000000E+00 -0.00000000000E+00 -0.64182625299E+03  0.64182625299E+03  0.00000000000E+00 0. -1.
         25    2    1    2    0    0  0.22341063684E+03  0.16582721185E+03 -0.23260755051E+03  0.38359190125E+03  0.12500198922E+03 0.  0.
          2    1    1    2  501    0 -0.24350730269E+02  0.48584576590E+01 -0.31422842860E+03  0.31520797581E+03  0.00000000000E+00 0. -1.
          1    1    1    2  502    0 -0.19905990657E+03 -0.17068566951E+03  0.88531181520E+03  0.92332846502E+03  0.00000000000E+00 0. -1.
         22    1    3    3    0    0  0.97504868323E+02  0.12371860776E+01 -0.66825816386E+02  0.11821344979E+03  0.00000000000E+00 0.  1.
         22    1    3    3    0    0  0.12590576851E+03  0.16459002577E+03 -0.16578173413E+03  0.26537845146E+03  0.00000000000E+00 0.  1.
</event>
<event>
 7    1  0.6089676E-006  0.7297283E+02  0.7818608E-02  0.1377817E+00
          2   -1    0    0  502    0  0.00000000000E+00  0.00000000000E+00  0.11020408635E+03  0.11020408635E+03  0.00000000000E+00 0. -1.
          1   -1    0    0  501    0 -0.00000000000E+00 -0.00000000000E+00 -0.82882090993E+03  0.82882090993E+03  0.00000000000E+00 0. -1.
         25    2    1    2    0    0 -0.19733276282E+02  0.11358655889E+02 -0.10527113952E+03  0.16500057382E+03  0.12499902115E+03 0.  0.
          2    1    1    2  501    0 -0.53398998421E+02  0.22565989005E+02 -0.67189352380E+03  0.67438978656E+03  0.00000000000E+00 0. -1.
          1    1    1    2  502    0  0.73132274702E+02 -0.33924644894E+02  0.58547839737E+02  0.99634635907E+02  0.00000000000E+00 0. -1.
         22    1    3    3    0    0 -0.50241249922E+02 -0.26748635494E+02 -0.10108303926E+03  0.11600626501E+03  0.00000000000E+00 0.  1.
         22    1    3    3    0    0  0.30507973641E+02  0.38107291383E+02 -0.41881002589E+01  0.48994308812E+02  0.00000000000E+00 0.  1.
</event>
<event>
 7    1  0.6089676E-006  0.6402771E+02  0.7818608E-02  0.1487263E+00
          2   -1    0    0  502    0  0.00000000000E+00  0.00000000000E+00  0.58632762145E+02  0.58632762145E+02  0.00000000000E+00 0. -1.
          1   -1    0    0  501    0 -0.00000000000E+00 -0.00000000000E+00 -0.18295112936E+04  0.18295112936E+04  0.00000000000E+00 0. -1.
         25    2    1    2    0    0 -0.38972305646E+02  0.14481183159E+01 -0.10303550337E+03  0.16662422039E+03  0.12500551273E+03 0.  0.
          2    1    1    2  501    0  0.62812154272E+02  0.14836773932E+02 -0.16861168260E+04  0.16873516075E+04  0.00000000000E+00 0. -1.
          1    1    1    2  502    0 -0.23839848625E+02 -0.16284892248E+02  0.18273797942E+02  0.34168227774E+02  0.00000000000E+00 0. -1.
         22    1    3    3    0    0  0.29815547444E+02  0.39938035069E+02 -0.25206193996E+02  0.55851282263E+02  0.00000000000E+00 0.  1.
         22    1    3    3    0    0 -0.68787853091E+02 -0.38489916754E+02 -0.77829309372E+02  0.11077293813E+03  0.00000000000E+00 0.  1.
</event>
<event>
 7    1  0.6089676E-006  0.8709330E+02  0.7818608E-02  0.1363046E+00
          2   -1    0    0  502    0  0.00000000000E+00  0.00000000000E+00  0.86975451185E+03  0.86975451185E+03  0.00000000000E+00 0. -1.
          1   -1    0    0  501    0 -0.00000000000E+00 -0.00000000000E+00 -0.93330860787E+03  0.93330860787E+03  0.00000000000E+00 0. -1.
         25    2    1    2    0    0 -0.30909166860E+02 -0.44753223318E+02 -0.36052572215E+02  0.14100657750E+03  0.12499935736E+03 0.  0.
          2    1    1    2  501    0  0.33517148394E+02 -0.43463202373E+02 -0.84149982229E+03  0.84328785128E+03  0.00000000000E+00 0. -1.
          1    1    1    2  502    0 -0.26079815339E+01  0.88216425692E+02  0.81399829849E+03  0.81876869094E+03  0.00000000000E+00 0. -1.
         22    1    3    3    0    0 -0.31804716744E+02 -0.67420304187E+02  0.22782933522E+02  0.77949339213E+02  0.00000000000E+00 0. -1.
         22    1    3    3    0    0  0.89554988359E+00  0.22667080869E+02 -0.58835505737E+02  0.63057238284E+02  0.00000000000E+00 0. -1.
</event>
<event>
 7    1  0.6089676E-006  0.1142790E+03  0.7818608E-02  0.1307448E+00
          2   -1    0    0  502    0  0.00000000000E+00  0.00000000000E+00  0.12171990349E+04  0.12171990349E+04  0.00000000000E+00 0. -1.
          1   -1    0    0  501    0 -0.00000000000E+00 -0.00000000000E+00 -0.12286946126E+03  0.12286946126E+03  0.00000000000E+00 0. -1.
         25    2    1    2    0    0  0.11247742299E+03 -0.70609729012E+02  0.40810125805E+03  0.44698439185E+03  0.12494600924E+03 0.  0.
          2    1    1    2  501    0 -0.60743635417E+02 -0.30480467006E+02 -0.87653826871E+02  0.11091456837E+03  0.00000000000E+00 0. -1.
          1    1    1    2  502    0 -0.51733787572E+02  0.10109019602E+03  0.77388214245E+03  0.78216953591E+03  0.00000000000E+00 0. -1.
         22    1    3    3    0    0 -0.14316518934E+02  0.34642849611E+01  0.14443275577E+03  0.14518190288E+03  0.00000000000E+00 0.  1.
         22    1    3    3    0    0  0.12679394192E+03 -0.74074013973E+02  0.26366850227E+03  0.30180248897E+03  0.00000000000E+00 0.  1.
</event>
<event>
 7    1  0.6089676E-006  0.5085000E+02  0.7818608E-02  0.1513836E+00
          2   -1    0    0  502    0  0.00000000000E+00  0.00000000000E+00  0.22082013585E+02  0.22082013585E+02  0.00000000000E+00 0. -1.
          1   -1    0    0  501    0 -0.00000000000E+00 -0.00000000000E+00 -0.23858305175E+04  0.23858305175E+04  0.00000000000E+00 0. -1.
         25    2    1    2    0    0  0.43663525697E+02 -0.32987763011E+02 -0.13629523862E+04  0.13697659957E+04  0.12499991908E+03 0.  0.
          2    1    1    2  501    0  0.71847321888E+01  0.29425372086E+02 -0.98401689152E+03  0.98448296872E+03  0.00000000000E+00 0. -1.
          1    1    1    2  502    0 -0.50848257886E+02  0.35623909254E+01 -0.16779226150E+02  0.53663566685E+02  0.00000000000E+00 0. -1.
         22    1    3    3    0    0  0.10261380754E+02  0.27039820722E+02 -0.99714657343E+03  0.99756590596E+03  0.00000000000E+00 0.  1.
         22    1    3    3    0    0  0.33402144943E+02 -0.60027583733E+02 -0.36580581279E+03  0.37220008969E+03  0.00000000000E+00 0.  1.
</event>
<event>
 7    1  0.6089676E-006  0.3985952E+02  0.7818608E-02  0.1528186E+00
          2   -1    0    0  502    0  0.00000000000E+00  0.00000000000E+00  0.11127163329E+03  0.11127163329E+03  0.00000000000E+00 0. -1.
          1   -1    0    0  501    0 -0.00000000000E+00 -0.00000000000E+00 -0.36767867004E+03  0.36767867004E+03  0.00000000000E+00 0. -1.
         25    2    1    2    0    0 -0.76287660031E+01  0.14766829253E+02  0.40486773549E+02  0.13246022580E+03  0.12502109930E+03 0.  0.
          2    1    1    2  501    0 -0.21771065230E+02 -0.33960668061E+02 -0.30724776000E+03  0.30988464351E+03  0.00000000000E+00 0. -1.
          1    1    1    2  502    0  0.29399831233E+02  0.19193838808E+02  0.10353949700E+02  0.36605434010E+02  0.00000000000E+00 0. -1.
         22    1    3    3    0    0  0.17187829740E+02 -0.33677502316E+02 -0.26481665166E+02  0.46161393430E+02  0.00000000000E+00 0.  1.
         22    1    3    3    0    0 -0.24816595743E+02  0.48444331569E+02  0.66968438714E+02  0.86298832375E+02  0.00000000000E+00 0.  1.
</event>
<event>
 7    1  0.6089676E-006  0.5316943E+02  0.7818608E-02  0.1462817E+00
          2   -1    0    0  502    0  0.00000000000E+00  0.00000000000E+00  0.14858202397E+04  0.14858202397E+04  0.00000000000E+00 0. -1.
          1   -1    0    0  501    0 -0.00000000000E+00 -0.00000000000E+00 -0.34789473374E+03  0.34789473374E+03  0.00000000000E+00 0. -1.
         25    2    1    2    0    0  0.22858190159E+02  0.54945774057E+02  0.71228862056E+03  0.72561807986E+03  0.12499993558E+03 0.  0.
          2    1    1    2  501    0  0.26251997236E+02 -0.31973483533E+02 -0.33901270039E+03  0.34152757141E+03  0.00000000000E+00 0. -1.
          1    1    1    2  502    0 -0.49110187394E+02 -0.22972290524E+02  0.76464958579E+03  0.76656932216E+03  0.00000000000E+00 0. -1.
         22    1    3    3    0    0  0.48621637196E+02 -0.15949755861E+02  0.15453333245E+03  0.16278516257E+03  0.00000000000E+00 0.  1.
         22    1    3    3    0    0 -0.25763447037E+02  0.70895529918E+02  0.55775528811E+03  0.56283291729E+03  0.00000000000E+00 0.  1.
</event>
<event>
 7    1  0.6089676E-006  0.4974377E+02  0.7818608E-02  0.1551517E+00
          2   -1    0    0  502    0  0.00000000000E+00  0.00000000000E+00  0.56999477616E+03  0.56999477616E+03  0.00000000000E+00 0. -1.
          1   -1    0    0  501    0 -0.00000000000E+00 -0.00000000000E+00 -0.96995856556E+03  0.96995856556E+03  0.00000000000E+00 0. -1.
         25    2    1    2    0    0  0.24052276584E+02 -0.57241822197E+02  0.89983040657E+01  0.13986724900E+03  0.12500695841E+03 0.  0.
          2    1    1    2  501    0  0.10567316995E+02  0.21736708830E+02 -0.90312143734E+03  0.90344478707E+03  0.00000000000E+00 0. -1.
          1    1    1    2  502    0 -0.34619593579E+02  0.35505113367E+02  0.49415934387E+03  0.49664130564E+03  0.00000000000E+00 0. -1.
         22    1    3    3    0    0 -0.22930007426E+02 -0.20560650237E+02 -0.48237408411E+02  0.57230875836E+02  0.00000000000E+00 0.  1.
         22    1    3    3    0    0  0.46982284010E+02 -0.36681171960E+02  0.57235712477E+02  0.82636373165E+02  0.00000000000E+00 0.  1.
</event>
<event>
 7    1  0.6089676E-006  0.7214202E+02  0.7818608E-02  0.1518246E+00
          2   -1    0    0  502    0  0.00000000000E+00  0.00000000000E+00  0.28280361985E+04  0.28280361985E+04  0.00000000000E+00 0. -1.
          1   -1    0    0  501    0 -0.00000000000E+00 -0.00000000000E+00 -0.57902203736E+02  0.57902203736E+02  0.00000000000E+00 0. -1.
         25    2    1    2    0    0  0.10071146084E+02 -0.73925293183E+02  0.23713591815E+03  0.27825340829E+03  0.12500055437E+03 0.  0.
          2    1    1    2  501    0  0.19140498310E+02  0.79513212673E+01 -0.33921079691E+02  0.39752004136E+02  0.00000000000E+00 0. -1.
          1    1    1    2  502    0 -0.29211644394E+02  0.65973971915E+02  0.25669191563E+04  0.25679329898E+04  0.00000000000E+00 0. -1.
         22    1    3    3    0    0  0.38049250606E+02 -0.45709305473E+01  0.18028431543E+03  0.18431243384E+03  0.00000000000E+00 0. -1.
         22    1    3    3    0    0 -0.27978104522E+02 -0.69354362635E+02  0.56851602721E+02  0.93940974453E+02  0.00000000000E+00 0. -1.
</event>
<event>
 7    1  0.6089676E-006  0.6530618E+02  0.7818608E-02  0.1399642E+00
          2   -1    0    0  502    0  0.00000000000E+00  0.00000000000E+00  0.11132473262E+04  0.11132473262E+04  0.00000000000E+00 0. -1.
          1   -1    0    0  501    0 -0.00000000000E+00 -0.00000000000E+00 -0.41528029504E+03  0.41528029504E+03  0.00000000000E+00 0. -1.
         25    2    1    2    0    0 -0.80008864173E+02 -0.50855987633E+01  0.71494902390E+03  0.73020840355E+03  0.12499969671E+03 0.  0.
          2    1    1    2  501    0  0.50980492071E+02 -0.40850020757E+02 -0.40311872023E+03  0.40837781204E+03  0.00000000000E+00 0. -1.
          1    1    1    2  502    0  0.29028372102E+02  0.45935619520E+02  0.38613672747E+03  0.38994140563E+03  0.00000000000E+00 0. -1.
         22    1    3    3    0    0 -0.76842402705E+02  0.15399668675E+02  0.70066640247E+03  0.70503568150E+03  0.00000000000E+00 0.  1.
         22    1    3    3    0    0 -0.31664614676E+01 -0.20485267439E+02  0.14282621439E+02  0.25172722051E+02  0.00000000000E+00 0.  1.
</event>
<event>
 7    1  0.6089676E-006  0.1383544E+03  0.7818608E-02  0.1373059E+00
          2   -1    0    0  502    0  0.00000000000E+00  0.00000000000E+00  0.49966221940E+03  0.49966221940E+03  0.00000000000E+00 0. -1.
          1   -1    0    0  501    0 -0.00000000000E+00 -0.00000000000E+00 -0.56726357664E+03  0.56726357664E+03  0.00000000000E+00 0. -1.
         25    2    1    2    0    0  0.10016603269E+03 -0.65921416361E+02  0.92437352739E+02  0.19633928826E+03  0.12500233875E+03 0.  0.
          2    1    1    2  501    0  0.59585148453E+01 -0.31231043075E+02 -0.50022023213E+03  0.50122965055E+03  0.00000000000E+00 0. -1.
          1    1    1    2  502    0 -0.10612454754E+03  0.97152459436E+02  0.34018152216E+03  0.36935685723E+03  0.00000000000E+00 0. -1.
         22    1    3    3    0    0  0.94854220200E+02 -0.80983391249E+02  0.11436032164E+03  0.16921559004E+03  0.00000000000E+00 0. -1.
         22    1    3    3    0    0  0.53118124911E+01  0.15061974888E+02 -0.21922968903E+02  0.27123698217E+02  0.00000000000E+00 0. -1.
</event>
<event>
 7    1  0.6089676E-006  0.1340816E+03  0.7818608E-02  0.1285954E+00
          2   -1    0    0  502    0  0.00000000000E+00  0.00000000000E+00  0.71092852000E+03  0.71092852000E+03  0.00000000000E+00 0. -1.
          1   -1    0    0  501    0 -0.00000000000E+00 -0.00000000000E+00 -0.17801924944E+04  0.17801924944E+04  0.00000000000E+00 0. -1.
         25    2    1    2    0    0 -0.15578549788E+03  0.12144186975E+03  0.28582077783E+03  0.36923571995E+03  0.12499700304E+03 0.  0.
          2    1    1    2  501    0  0.11875644400E+03 -0.61224934962E+02 -0.17326325513E+04  0.17377764941E+04  0.00000000000E+00 0. -1.
          1    1    1    2  502    0  0.37029053878E+02 -0.60216934786E+02  0.37754779897E+03  0.38410880044E+03  0.00000000000E+00 0. -1.
         22    1    3    3    0    0  0.15624492644E+02  0.40239603981E+02  0.66426401455E+02  0.79220056231E+02  0.00000000000E+00 0. -1.
         22    1    3    3    0    0 -0.17140999052E+03  0.81202265767E+02  0.21939437638E+03  0.29001566372E+03  0.00000000000E+00 0. -1.
</event>
<event>
 7    1  0.6089676E-006  0.6921645E+02  0.7818608E-02  0.1382104E+00
          2   -1    0    0  502    0  0.00000000000E+00  0.00000000000E+00  0.91198210140E+03  0.91198210140E+03  0.00000000000E+00 0. -1.
          1   -1    0    0  501    0 -0.00000000000E+00 -0.00000000000E+00 -0.22909833424E+03  0.22909833424E+03  0.00000000000E+00 0. -1.
         25    2    1    2    0    0 -0.67970064086E+02  0.26562539636E+02  0.15800493188E+02  0.14560293146E+03  0.12500023977E+03 0.  0.
          2    1    1    2  501    0  0.44310529258E+02  0.38982645879E+02 -0.15737618759E+03  0.16807835703E+03  0.00000000000E+00 0. -1.
          1    1    1    2  502    0  0.23659534828E+02 -0.65545185514E+02  0.82445946156E+03  0.82739914714E+03  0.00000000000E+00 0. -1.
         22    1    3    3    0    0  0.10642747530E+02 -0.28148244653E+02  0.36813251250E+02  0.47547946535E+02  0.00000000000E+00 0. -1.
         22    1    3    3    0    0 -0.78612811616E+02  0.54710784289E+02 -0.21012758062E+02  0.98054984927E+02  0.00000000000E+00 0. -1.
</event>
<event>
 7    1  0.6089676E-006  0.1423796E+03  0.7818608E-02  0.1257594E+00
          2   -1    0    0  502    0  0.00000000000E+00  0.00000000000E+00  0.21792970885E+04  0.21792970885E+04  0.00000000000E+00 0. -1.
          1   -1    0    0  501    0 -0.00000000000E+00 -0.00000000000E+00 -0.16779494125E+03  0.16779494125E+03  0.00000000000E+00 0. -1.
         25    2    1    2    0    0  0.20060758816E+02  0.14409171365E+03  0.29685112925E+03  0.35342689134E+03  0.12500047439E+03 0.  0.
          2    1    1    2  501    0  0.78585470019E+02 -0.38501504309E+02 -0.12266204183E+03  0.15067852679E+03  0.00000000000E+00 0. -1.
          1    1    1    2  502    0 -0.98646228835E+02 -0.10559020934E+03  0.18373130598E+04  0.18429866116E+04  0.00000000000E+00 0. -1.
         22    1    3    3    0    0 -0.19942271266E+02  0.69618489960E+02  0.24212271763E+03  0.25272087116E+03  0.00000000000E+00 0.  1.
         22    1    3    3    0    0  0.40003030082E+02  0.74473223691E+02  0.54728411628E+02  0.10070602019E+03  0.00000000000E+00 0.  1.
</event>
<event>
 7    1  0.6089676E-006  0.6960979E+02  0.7818608E-02  0.1387926E+00
          2   -1    0    0  502    0  0.00000000000E+00  0.00000000000E+00  0.12888936354E+03  0.12888936354E+03  0.00000000000E+00 0. -1.
          1   -1    0    0  501    0 -0.00000000000E+00 -0.00000000000E+00 -0.68349152670E+03  0.68349152670E+03  0.00000000000E+00 0. -1.
         25    2    1    2    0    0 -0.55760604976E+02 -0.74225753177E+02 -0.15725922777E+03  0.22131956639E+03  0.12503270870E+03 0.  0.
          2    1    1    2  501    0  0.99195288046E-02  0.69132510914E+02 -0.48344316302E+03  0.48836113281E+03  0.00000000000E+00 0. -1.
          1    1    1    2  502    0  0.55750685447E+02  0.50932422634E+01  0.86100227622E+02  0.10270019105E+03  0.00000000000E+00 0. -1.
         22    1    3    3    0    0  0.36182591895E+02  0.17790790347E+01 -0.31851795738E+02  0.48237764979E+02  0.00000000000E+00 0.  1.
         22    1    3    3    0    0 -0.91943196871E+02 -0.76004832212E+02 -0.12540743203E+03  0.17308180141E+03  0.00000000000E+00 0.  1.
</event>
<event>
 7    1  0.6089676E-006  0.8385095E+02  0.7818608E-02  0.1473362E+00
          2   -1    0    0  502    0  0.00000000000E+00  0.00000000000E+00  0.14129891452E+04  0.14129891452E+04  0.00000000000E+00 0. -1.
          1   -1    0    0  501    0 -0.00000000000E+00 -0.00000000000E+00 -0.22094377650E+03  0.22094377650E+03  0.00000000000E+00 0. -1.
         25    2    1    2    0    0  0.27649333390E+02  0.82283218437E+02 -0.12637017387E+03  0.19780970145E+03  0.12499697386E+03 0.  0.
          2    1    1    2  501    0 -0.47401866193E+02 -0.68096576233E+02 -0.29447274608E+02  0.88041027908E+02  0.00000000000E+00 0. -1.
          1    1    1    2  502    0  0.19752532803E+02 -0.14186642203E+02  0.13478628171E+04  0.13480821923E+04  0.00000000000E+00 0. -1.
         22    1    3    3    0    0 -0.55203391207E+00  0.85298595271E+02 -0.19851660577E+02  0.87579926492E+02  0.00000000000E+00 0. -1.
         22    1    3    3    0    0  0.28201367302E+02 -0.30153768346E+01 -0.10651851329E+03  0.11022977496E+03  0.00000000000E+00 0. -1.
</event>
<event>
 7    1  0.6089676E-006  0.1014213E+03  0.7818608E-02  0.1301916E+00
          2   -1    0    0  502    0  0.00000000000E+00  0.00000000000E+00  0.25794397516E+04  0.25794397516E+04  0.00000000000E+00 0. -1.
          1   -1    0    0  501    0 -0.00000000000E+00 -0.00000000000E+00 -0.37149561274E+03  0.37149561274E+03  0.00000000000E+00 0. -1.
         25    2    1    2    0    0  0.64138819508E+02 -0.16887504293E+03  0.13521757097E+04  0.13699041384E+04  0.12500252127E+03 0.  0.
          2    1    1    2  501    0 -0.44213598857E+02  0.90823975334E+02 -0.35423152714E+03  0.36835283580E+03  0.00000000000E+00 0. -1.
          1    1    1    2  502    0 -0.19925220650E+02  0.78051067598E+02  0.12099999564E+04  0.12126783902E+04  0.00000000000E+00 0. -1.
         22    1    3    3    0    0  0.21019189902E+02 -0.17610511186E+02  0.63905050310E+03  0.63963855572E+03  0.00000000000E+00 0. -1.
         22    1    3    3    0    0  0.43119629606E+02 -0.15126453175E+03  0.71312520655E+03  0.73026558268E+03  0.00000000000E+00 0. -1.
</event>
<event>
 7    1  0.6089676E-006  0.1707046E+03  0.7818608E-02  0.1234178E+00
          2   -1    0    0  502    0  0.00000000000E+00  0.00000000000E+00  0.80690361416E+03  0.80690361416E+03  0.00000000000E+00 0. -1.
          1   -1    0    0  501    0 -0.00000000000E+00 -0.00000000000E+00 -0.70187403369E+03  0.70187403369E+03  0.00000000000E+00 0. -1.
         25    2    1    2    0    0 -0.20608816872E+03  0.95185696073E+02 -0.36448922940E+03  0.44722579631E+03  0.12500345800E+03 0.  0.
          2    1    1    2  501    0  0.36669166755E+02 -0.84781877489E+02 -0.27907018353E+03  0.29396047672E+03  0.00000000000E+00 0. -1.
          1    1    1    2  502    0  0.16941900197E+03 -0.10403818584E+02  0.74858899340E+03  0.76759137483E+03  0.00000000000E+00 0. -1.
         22    1    3    3    0    0 -0.14515500307E+03  0.50150102244E+02 -0.13135215743E+03  0.20208512299E+03  0.00000000000E+00 0.  1.
         22    1    3    3    0    0 -0.60933165647E+02  0.45035593829E+02 -0.23313707197E+03  0.24514067332E+03  0.00000000000E+00 0.  1.
</event>
<event>
 7    1  0.6089676E-006  0.4203267E+02  0.7818608E-02  0.1584836E+00
          2   -1    0    0  502    0  0.00000000000E+00  0.00000000000E+00  0.58226804862E+03  0.58226804862E+03  0.00000000000E+00 0. -1.
          1   -1    0    0  501    0 -0.00000000000E+00 -0.00000000000E+00 -0.10978748284E+03  0.10978748284E+03  0.00000000000E+00 0. -1.
         25    2    1    2    0    0  0.31819238922E+02 -0.36915045836E+02  0.13810292769E+03  0.19254428145E+03  0.12500278840E+03 0.  0.
          2    1    1    2  501    0 -0.22843600417E+02 -0.41053748193E+01 -0.79853065469E+02  0.83157658981E+02  0.00000000000E+00 0. -1.
          1    1    1    2  502    0 -0.89756385055E+01  0.41020420655E+02  0.41423070356E+03  0.41635359104E+03  0.00000000000E+00 0. -1.
         22    1    3    3    0    0  0.54788353016E+02 -0.70524117267E+02  0.71131804037E+02  0.11417157391E+03  0.00000000000E+00 0.  1.
         22    1    3    3    0    0 -0.22969114094E+02  0.33609071431E+02  0.66971123649E+02  0.78372707542E+02  0.00000000000E+00 0.  1.
</event>
<event>
 7    1  0.6089676E-006  0.6722305E+02  0.7818608E-02  0.1439597E+00
          2   -1    0    0  502    0  0.00000000000E+00  0.00000000000E+00  0.28772879050E+03  0.28772879050E+03  0.00000000000E+00 0. -1.
          1   -1    0    0  501    0 -0.00000000000E+00 -0.00000000000E+00 -0.34590235897E+03  0.34590235897E+03  0.00000000000E+00 0. -1.
         25    2    1    2    0    0 -0.25117396183E+02  0.97463430998E+02 -0.29309863769E+02  0.16313944468E+03  0.12500162528E+03 0.  0.
          2    1    1    2  501    0  0.22091980843E+02 -0.31914561279E+02 -0.24322977321E+03  0.24630736371E+03  0.00000000000E+00 0. -1.
          1    1    1    2  502    0  0.30254153394E+01 -0.65548869719E+02  0.21436606851E+03  0.22418434109E+03  0.00000000000E+00 0. -1.
         22    1    3    3    0    0  0.45755732965E+02  0.10302270946E+02 -0.17983745080E+02  0.50230856781E+02  0.00000000000E+00 0.  1.
         22    1    3    3    0    0 -0.70873129148E+02  0.87161160052E+02 -0.11326118689E+02  0.11290858790E+03  0.00000000000E+00 0.  1.
</event>
<event>
 7    1  0.6089676E-006  0.1250789E+03  0.7818608E-02  0.1291218E+00
          2   -1    0    0  502    0  0.00000000000E+00  0.00000000000E+00  0.22326414864E+04  0.22326414864E+04  0.00000000000E+00 0. -1.
          1   -1    0    0  501    0 -0.00000000000E+00 -0.00000000000E+00 -0.44991177162E+02  0.44991177162E+02  0.00000000000E+00 0. -1.
         25    2    1    2    0    0  0.48032813625E+02  0.70866749182E+02  0.84369269759E+03  0.85718644875E+03  0.12498796996E+03 0.  0.
          2    1    1    2  501    0  0.16690246288E+01  0.72106784620E+02  0.42890480047E+01  0.72253511777E+02  0.00000000000E+00 0. -1.
          1    1    1    2  502    0 -0.49701838254E+02 -0.14297353380E+03  0.13396685636E+04  0.13481927030E+04  0.00000000000E+00 0. -1.
         22    1    3    3    0    0  0.24442439308E+02 -0.33521092465E+02  0.31936417777E+03  0.32204747247E+03  0.00000000000E+00 0.  1.
         22    1    3    3    0    0  0.23590374317E+02  0.10438784165E+03  0.52432851982E+03  0.53513897629E+03  0.00000000000E+00 0.  1.
</event>
<event>
 7    1  0.6089676E-006  0.6922169E+02  0.7818608E-02  0.1437087E+00
          2   -1    0    0  502    0  0.00000000000E+00  0.00000000000E+00  0.10724289540E+04  0.10724289540E+04  0.00000000000E+00 0. -1.
          1   -1    0    0  501    0 -0.00000000000E+00 -0.00000000000E+00 -0.82909594292E+02  0.82909594292E+02  0.00000000000E+00 0. -1.
         25    2    1    2    0    0 -0.10353545718E+03  0.31277635660E+01  0.18644063615E+03  0.24721374668E+03  0.12500060775E+03 0.  0.
          2    1    1    2  501    0  0.37075479056E+02  0.10035668083E+02 -0.43962617863E+02  0.58378228394E+02  0.00000000000E+00 0. -1.
          1    1    1    2  502    0  0.66459978126E+02 -0.13163431649E+02  0.84704134145E+03  0.84974657325E+03  0.00000000000E+00 0. -1.
         22    1    3    3    0    0  0.56789698457E+01 -0.43182794787E+02  0.45307965882E+02  0.62847563489E+02  0.00000000000E+00 0. -1.
         22    1    3    3    0    0 -0.10921442703E+03  0.46310558353E+02  0.14113267027E+03  0.18436618319E+03  0.00000000000E+00 0. -1.
</event>
<event>
 7    1  0.6089676E-006  0.5127298E+02  0.7818608E-02  0.1457058E+00
          2   -1    0    0  502    0  0.00000000000E+00  0.00000000000E+00  0.45666446326E+03  0.45666446326E+03  0.00000000000E+00 0. -1.
          1   -1    0    0  501    0 -0.00000000000E+00 -0.00000000000E+00 -0.31304251273E+02  0.31304251273E+02  0.00000000000E+00 0. -1.
         25    2    1    2    0    0 -0.25980163991E+02  0.19965539407E+02  0.25284031348E+03  0.28394843924E+03  0.12499960137E+03 0.  0.
          2    1    1    2  501    0 -0.15484099976E+02 -0.50125672203E+02  0.56093270274E+02  0.76803615383E+02  0.00000000000E+00 0. -1.
          1    1    1    2  502    0  0.41464263967E+02  0.30160132796E+02  0.11642662822E+03  0.12721665990E+03  0.00000000000E+00 0. -1.
         22    1    3    3    0    0 -0.62090076466E+01 -0.22931191026E+02 -0.28542709531E+01  0.23927769651E+02  0.00000000000E+00 0. -1.
         22    1    3    3    0    0 -0.19771156344E+02  0.42896730433E+02  0.25569458444E+03  0.26002066959E+03  0.00000000000E+00 0. -1.
</event>
<event>
 7    1  0.6089676E-006  0.2806317E+03  0.7818608E-02  0.1283244E+00
          2   -1    0    0  502    0  0.00000000000E+00  0.00000000000E+00  0.20481730171E+04  0.20481730171E+04  0.00000000000E+00 0. -1.
          1   -1    0    0  501    0 -0.00000000000E+00 -0.00000000000E+00 -0.37410205357E+03  0.37410205357E+03  0.00000000000E+00 0. -1.
         25    2    1    2    0    0 -0.23184261110E+03  0.14299469620E+03  0.24046474674E+03  0.38424808827E+03  0.12499927780E+03 0.  0.
          2    1    1    2  501    0 -0.24359918818E+02 -0.24643228088E+02 -0.28969999608E+03  0.29176494317E+03  0.00000000000E+00 0. -1.
          1    1    1    2  502    0  0.25620252992E+03 -0.11835146811E+03  0.17233062129E+04  0.17462620393E+04  0.00000000000E+00 0. -1.
         22    1    3    3    0    0 -0.95743381769E+02  0.67136998121E+02  0.18499934772E+03  0.21885824254E+03  0.00000000000E+00 0.  1.
         22    1    3    3    0    0 -0.13609922933E+03  0.75857698080E+02  0.55465399018E+02  0.16538984573E+03  0.00000000000E+00 0.  1.
</event>
<event>
 7    1  0.6089676E-006  0.5882251E+02  0.7818608E-02  0.1419143E+00
          2   -1    0    0  502    0  0.00000000000E+00  0.00000000000E+00  0.21345308736E+02  0.21345308736E+02  0.00000000000E+00 0. -1.
          1   -1    0    0  501    0 -0.00000000000E+00 -0.00000000000E+00 -0.17379415065E+04  0.17379415065E+04  0.00000000000E+00 0. -1.
         25    2    1    2    0    0 -0.71773227613E+02  0.69691294457E+02 -0.49607645649E+03  0.52126619111E+03  0.12497327151E+03 0.  0.
          2    1    1    2  501    0  0.23087503939E+02 -0.51985403871E+02 -0.11451598354E+04  0.11465716565E+04  0.00000000000E+00 0. -1.
          1    1    1    2  502    0  0.48685723674E+02 -0.17705890587E+02 -0.75359905873E+02  0.91448967541E+02  0.00000000000E+00 0. -1.
         22    1    3    3    0    0 -0.26111263901E+02  0.46809778281E+02 -0.44776841703E+03  0.45096508594E+03  0.00000000000E+00 0.  1.
         22    1    3    3    0    0 -0.45661963713E+02  0.22881516176E+02 -0.48308039455E+02  0.70301105173E+02  0.00000000000E+00 0.  1.
</event>
<event>
 7    1  0.6089676E-006  0.3973166E+02  0.7818608E-02  0.1585538E+00
          2   -1    0    0  502    0  0.00000000000E+00  0.00000000000E+00  0.12072255509E+03  0.12072255509E+03  0.00000000000E+00 0. -1.
          1   -1    0    0  501    0 -0.00000000000E+00 -0.00000000000E+00 -0.21369431064E+03  0.21369431064E+03  0.00000000000E+00 0. -1.
         25    2    1    2    0    0 -0.39425866496E+02 -0.38777680689E+02 -0.13898036550E+03  0.19493320981E+03  0.12500122728E+03 0.  0.
          2    1    1    2  501    0  0.24335783267E+02  0.23430602288E+01 -0.38853810143E+02  0.45905760435E+02  0.00000000000E+00 0. -1.
          1    1    1    2  502    0  0.15090083229E+02  0.36434620460E+02  0.84862420092E+02  0.93577895487E+02  0.00000000000E+00 0. -1.
         22    1    3    3    0    0  0.36603740255E+02  0.78377760176E+01 -0.79106643743E+02  0.87516430559E+02  0.00000000000E+00 0. -1.
         22    1    3    3    0    0 -0.76029606751E+02 -0.46615456706E+02 -0.59873721757E+02  0.10741677925E+03  0.00000000000E+00 0. -1.
</event>
<event>
 7    1  0.6089676E-006  0.9472518E+02  0.7818608E-02  0.1419925E+00
          2   -1    0    0  502    0  0.00000000000E+00  0.00000000000E+00  0.19599234992E+04  0.19599234992E+04  0.00000000000E+00 0. -1.
          1   -1    0    0  501    0 -0.00000000000E+00 -0.00000000000E+00 -0.13332366018E+03  0.13332366018E+03  0.00000000000E+00 0. -1.
         25    2    1    2    0    0  0.73088984169E+02 -0.30436615342E+02  0.39979366467E+02  0.15326893472E+03  0.12499851778E+03 0.  0.
          2    1    1    2  501    0  0.21794811091E+02  0.23399363734E+02 -0.72074481846E+02  0.78849698458E+02  0.00000000000E+00 0. -1.
          1    1    1    2  502    0 -0.94883795260E+02  0.70372516080E+01  0.18586949544E+04  0.18611285262E+04  0.00000000000E+00 0. -1.
         22    1    3    3    0    0 -0.12903500717E+02 -0.48977756194E+02 -0.10670576220E+02  0.51760816545E+02  0.00000000000E+00 0.  1.
         22    1    3    3    0    0  0.85992484886E+02  0.18541140852E+02  0.50649942687E+02  0.10150811817E+03  0.00000000000E+00 0.  1.
</event>
<event>
 7    1  0.6089676E-006  0.1488187E+03  0.7818608E-02  0.1341197E+00
          2   -1    0    0  502    0  0.00000000000E+00  0.00000000000E+00  0.15476752889E+04  0.15476752889E+04  0.00000000000E+00 0. -1.
          1   -1    0    0  501    0 -0.00000000000E+00 -0.00000000000E+00 -0.42948780163E+03  0.42948780163E+03  0.00000000000E+00 0. -1.
         25    2    1    2    0    0 -0.32386374559E+02  0.10744221099E+03  0.15449159995E+01  0.16799226307E+03  0.12500523080E+03 0.  0.
          2    1    1    2  501    0 -0.51020362706E+01  0.38342024679E+02 -0.34129664827E+03  0.34348150424E+03  0.00000000000E+00 0. -1.
          1    1    1    2  502    0  0.37488410829E+02 -0.14578423567E+03  0.14579392196E+04  0.14656893232E+04  0.00000000000E+00 0. -1.
         22    1    3    3    0    0 -0.70078303579E+02  0.71266018142E+02 -0.33120586824E+02  0.10529381390E+03  0.00000000000E+00 0. -1.
         22    1    3    3    0    0  0.37691929021E+02  0.36176192846E+02  0.34665502824E+02  0.62698449169E+02  0.00000000000E+00 0. -1.
</event>
<event>
 7    1  0.6089676E-006  0.5072966E+02  0.7818608E-02  0.1498507E+00
          2   -1    0    0  502    0  0.00000000000E+00  0.00000000000E+00  0.22318965400E+04  0.22318965400E+04  0.00000000000E+00 0. -1.
          1   -1    0    0  501    0 -0.00000000000E+00 -0.00000000000E+00 -0.35913508454E+02  0.35913508454E+02  0.00000000000E+00 0. -1.
         25    2    1    2    0    0 -0.41290885119E+02 -0.41337103287E+02  0.46514149485E+03  0.48517547033E+03  0.12499973390E+03 0.  0.
          2    1    1    2  501    0  0.50086623224E+02  0.88006745320E+01 -0.60747486367E+00  0.50857553263E+02  0.00000000000E+00 0. -1.
          1    1    1    2  502    0 -0.87957381056E+01  0.32536428755E+02  0.17314490116E+04  0.17317770249E+04  0.00000000000E+00 0. -1.
         22    1    3    3    0    0 -0.49869324455E+01  0.44039951828E+02  0.17709414199E+03  0.18255607900E+03  0.00000000000E+00 0.  1.
         22    1    3    3    0    0 -0.36303952673E+02 -0.85377055115E+02  0.28804735286E+03  0.30261939133E+03  0.00000000000E+00 0.  1.
</event>
<event>
 7    1  0.6089676E-006  0.4687057E+02  0.7818608E-02  0.1543145E+00
          2   -1    0    0  502    0  0.00000000000E+00  0.00000000000E+00  0.13767988242E+04  0.13767988242E+04  0.00000000000E+00 0. -1.
          1   -1    0    0  501    0 -0.00000000000E+00 -0.00000000000E+00 -0.14512687934E+04  0.14512687934E+04  0.00000000000E+00 0. -1.
         25    2    1    2    0    0 -0.25949402074E+02  0.11590665737E+02 -0.13919985288E+03  0.18923580888E+03  0.12500350923E+03 0.  0.
          2    1    1    2  501    0 -0.65588713089E+00  0.27065093395E+02 -0.12865012438E+04  0.12867860738E+04  0.00000000000E+00 0. -1.
          1    1    1    2  502    0  0.26605289204E+02 -0.38655759132E+02  0.13512311275E+04  0.13520457348E+04  0.00000000000E+00 0. -1.
         22    1    3    3    0    0  0.62404687296E+01 -0.51252209666E+02 -0.87965542853E+02  0.10199837830E+03  0.00000000000E+00 0.  1.
         22    1    3    3    0    0 -0.32189870803E+02  0.62842875403E+02 -0.51234310031E+02  0.87237430588E+02  0.00000000000E+00 0.  1.
</event>
<event>
 7    1  0.6089676E-006  0.5958213E+02  0.7818608E-02  0.1460123E+00
          2   -1    0    0  502    0  0.00000000000E+00  0.00000000000E+00  0.97275493752E+02  0.97275493752E+02  0.00000000000E+00 0. -1.
          1   -1    0    0  501    0 -0.00000000000E+00 -0.00000000000E+00 -0.82202523090E+03  0.82202523090E+03  0.00000000000E+00 0. -1.
         25    2    1    2    0    0 -0.13346131692E+02  0.52852248167E+02 -0.11200745454E+03  0.17646958676E+03  0.12499746323E+03 0.  0.
          2    1    1    2  501    0 -0.34574923368E+02 -0.14891463493E+02 -0.66276864757E+03  0.66383692366E+03  0.00000000000E+00 0. -1.
          1    1    1    2  502    0  0.47921055060E+02 -0.37960784673E+02  0.50026364958E+02  0.78994214231E+02  0.00000000000E+00 0. -1.
         22    1    3    3    0    0 -0.44332106717E+01  0.68838338726E+02 -0.13226245641E+03  0.14917012975E+03  0.00000000000E+00 0.  1.
         22    1    3    3    0    0 -0.89129210202E+01 -0.15986090559E+02  0.20255001869E+02  0.27299457013E+02  0.00000000000E+00 0.  1.
</event>
<event>
 7    1  0.7267976E-006  0.5209607E+02  0.7818608E-02  0.1435347E+00
          2   -1    0    0  502    0  0.00000000000E+00  0.00000000000E+00  0.84375905247E+03  0.84375905247E+03  0.00000000000E+00 0. -1.
          1   -1    0    0  501    0 -0.00000000000E+00 -0.00000000000E+00 -0.77307386343E+03  0.77307386343E+03  0.00000000000E+00 0. -1.
         25    2    1    2    0    0 -0.34690291157E+02  0.90010032661E+02 -0.39999313691E+03  0.43002883282E+03  0.12500026082E+03 0.  0.
          2    1    1    2  501    0 -0.50927177385E+00 -0.51705244802E+02 -0.35537360187E+03  0.35911570364E+03  0.00000000000E+00 0. -1.
          1    1    1    2  502    0  0.35199562931E+02 -0.38304787859E+02  0.82605192781E+03  0.82768837943E+03  0.00000000000E+00 0. -1.
         22    1    3    3    0    0  0.37537828110E+02 -0.44768695987E+01 -0.75689623656E+02  0.84605260060E+02  0.00000000000E+00 0.  1.
         22    1    3    3    0    0 -0.72228119268E+02  0.94486902260E+02 -0.32430351325E+03  0.34542357276E+03  0.00000000000E+00 0.  1.
</event>
<event>
 7    1  0.6089676E-006  0.2984987E+02  0.7818608E-02  0.1661983E+00
          2   -1    0    0  502    0  0.00000000000E+00  0.00000000000E+00  0.37185722920E+03  0.37185722920E+03  0.00000000000E+00 0. -1.
          1   -1    0    0  501    0 -0.00000000000E+00 -0.00000000000E+00 -0.37996847976E+04  0.37996847976E+04  0.00000000000E+00 0. -1.
         25    2    1    2    0    0 -0.16263848217E+02  0.20730181510E+02 -0.34712589636E+04  0.34736090902E+04  0.12500826196E+03 0.  0.
          2    1    1    2  501    0  0.18771093427E+02  0.90160405103E+01 -0.32631734207E+03  0.32698111669E+03  0.00000000000E+00 0. -1.
          1    1    1    2  502    0 -0.25072452102E+01 -0.29746222020E+02  0.36974873728E+03  0.37095181995E+03  0.00000000000E+00 0. -1.
         22    1    3    3    0    0  0.45325402680E+02  0.19913420204E+02 -0.24463874977E+04  0.24468883761E+04  0.00000000000E+00 0. -1.
         22    1    3    3    0    0 -0.61589250897E+02  0.81676130571E+00 -0.10248714660E+04  0.10267207141E+04  0.00000000000E+00 0. -1.
</event>
<event>
 7    1  0.6089676E-006  0.1425179E+03  0.7818608E-02  0.1242706E+00
          2   -1    0    0  502    0  0.00000000000E+00  0.00000000000E+00  0.80848690607E+03  0.80848690607E+03  0.00000000000E+00 0. -1.
          1   -1    0    0  501    0 -0.00000000000E+00 -0.00000000000E+00 -0.14779567643E+04  0.14779567643E+04  0.00000000000E+00 0. -1.
         25    2    1    2    0    0  0.11139397035E+03 -0.91646572134E+01  0.48650422203E+02  0.17457576762E+03  0.12496890608E+03 0.  0.
          2    1    1    2  501    0 -0.94716596871E+02  0.10922390300E+03 -0.14075803932E+04  0.14149853914E+04  0.00000000000E+00 0. -1.
          1    1    1    2  502    0 -0.16677373481E+02 -0.10005924579E+03  0.68946011277E+03  0.69688251130E+03  0.00000000000E+00 0. -1.
         22    1    3    3    0    0  0.57698670560E+02 -0.36737012294E+02 -0.30618473346E+02  0.74941547667E+02  0.00000000000E+00 0.  1.
         22    1    3    3    0    0  0.53695299792E+02  0.27572355080E+02  0.79268895549E+02  0.99634219955E+02  0.00000000000E+00 0.  1.
</event>
<event>
 7    1  0.6089676E-006  0.1474085E+03  0.7818608E-02  0.1332499E+00
          2   -1    0    0  502    0  0.00000000000E+00  0.00000000000E+00  0.28820100748E+03  0.28820100748E+03  0.00000000000E+00 0. -1.
          1   -1    0    0  501    0 -0.00000000000E+00 -0.00000000000E+00 -0.10482485751E+04  0.10482485751E+04  0.00000000000E+00 0. -1.
         25    2    1    2    0    0  0.12774405992E+03  0.96687142716E+02 -0.20452772910E+02  0.20423041404E+03  0.12499919074E+03 0.  0.
          2    1    1    2  501    0  0.67554319231E+01 -0.41576079763E+02 -0.90844665692E+03  0.90942263813E+03  0.00000000000E+00 0. -1.
          1    1    1    2  502    0 -0.13449949184E+03 -0.55111062953E+02  0.16885186225E+03  0.22279653038E+03  0.00000000000E+00 0. -1.
         22    1    3    3    0    0  0.86244259926E+02  0.59917803346E+02  0.48563802148E+02  0.11570072777E+03  0.00000000000E+00 0. -1.
         22    1    3    3    0    0  0.41499799995E+02  0.36769339370E+02 -0.69016575058E+02  0.88529686264E+02  0.00000000000E+00 0. -1.
</event>
<event>
 7    1  0.6089676E-006  0.4856167E+02  0.7818608E-02  0.1554072E+00
          2   -1    0    0  502    0  0.00000000000E+00  0.00000000000E+00  0.62618752242E+02  0.62618752242E+02  0.00000000000E+00 0. -1.
          1   -1    0    0  501    0 -0.00000000000E+00 -0.00000000000E+00 -0.19316811114E+04  0.19316811114E+04  0.00000000000E+00 0. -1.
         25    2    1    2    0    0  0.34092908237E+02  0.58275970133E+02 -0.17024838377E+04  0.17084011799E+04  0.12499983587E+03 0.  0.
          2    1    1    2  501    0 -0.21480346311E+02 -0.11481126310E+02 -0.21559588616E+03  0.21696729632E+03  0.00000000000E+00 0. -1.
          1    1    1    2  502    0 -0.12612561926E+02 -0.46794843822E+02  0.49017364686E+02  0.68931387390E+02  0.00000000000E+00 0. -1.
         22    1    3    3    0    0 -0.42169415566E+01  0.40220633768E+02 -0.15386665485E+04  0.15391979175E+04  0.00000000000E+00 0. -1.
         22    1    3    3    0    0  0.38309849793E+02  0.18055336365E+02 -0.16381728919E+03  0.16920326238E+03  0.00000000000E+00 0. -1.
</event>
<event>
 7    1  0.6089676E-006  0.1218825E+03  0.7818608E-02  0.1288655E+00
          2   -1    0    0  502    0  0.00000000000E+00  0.00000000000E+00  0.11450993492E+04  0.11450993492E+04  0.00000000000E+00 0. -1.
          1   -1    0    0  501    0 -0.00000000000E+00 -0.00000000000E+00 -0.19339414657E+03  0.19339414657E+03  0.00000000000E+00 0. -1.
         25    2    1    2    0    0 -0.71319202761E+02  0.27616783610E+02  0.61925826405E+02  0.15908899282E+03  0.12500153695E+03 0.  0.
          2    1    1    2  501    0 -0.52207216088E+02 -0.54976952744E+02 -0.13070762802E+03  0.15110441015E+03  0.00000000000E+00 0. -1.
          1    1    1    2  502    0  0.12352641885E+03  0.27360169134E+02  0.10204870042E+04  0.10283000928E+04  0.00000000000E+00 0. -1.
         22    1    3    3    0    0  0.75271329797E+01  0.60159316213E+02  0.18594311740E+02  0.63415688021E+02  0.00000000000E+00 0.  1.
         22    1    3    3    0    0 -0.78846335741E+02 -0.32542532602E+02  0.43331514665E+02  0.95673304799E+02  0.00000000000E+00 0.  1.
</event>
<event>
 7    1  0.6089676E-006  0.6680666E+02  0.7818608E-02  0.1371786E+00
          2   -1    0    0  502    0  0.00000000000E+00  0.00000000000E+00  0.62971877231E+03  0.62971877231E+03  0.00000000000E+00 0. -1.
          1   -1    0    0  501    0 -0.00000000000E+00 -0.00000000000E+00 -0.80551235084E+03  0.80551235084E+03  0.00000000000E+00 0. -1.
         25    2    1    2    0    0  0.24050491012E+00 -0.24707215415E+02  0.11230108107E+03  0.16984678268E+03  0.12500356971E+03 0.  0.
          2    1    1    2  501    0  0.66491434523E+02 -0.25396148963E+01 -0.77264360590E+03  0.77550351530E+03  0.00000000000E+00 0. -1.
          1    1    1    2  502    0 -0.66731939433E+02  0.27246830312E+02  0.48454894631E+03  0.48988082517E+03  0.00000000000E+00 0. -1.
         22    1    3    3    0    0  0.10616720454E+02 -0.70386358257E+02  0.34667178793E+02  0.79175548418E+02  0.00000000000E+00 0.  1.
         22    1    3    3    0    0 -0.10376215544E+02  0.45679142841E+02  0.77633902273E+02  0.90671234258E+02  0.00000000000E+00 0.  1.
</event>
<event>
 7    1  0.6089676E-006  0.8125165E+02  0.7818608E-02  0.1456947E+00
          2   -1    0    0  502    0  0.00000000000E+00  0.00000000000E+00  0.11030278561E+04  0.11030278561E+04  0.00000000000E+00 0. -1.
          1   -1    0    0  501    0 -0.00000000000E+00 -0.00000000000E+00 -0.62829493165E+02  0.62829493165E+02  0.00000000000E+00 0. -1.
         25    2    1    2    0    0  0.41228604333E+02  0.53624463035E+02  0.82532682116E+02  0.16436235997E+03  0.12501184306E+03 0.  0.
          2    1    1    2  501    0 -0.43494404002E+02 -0.81784484059E+02  0.77219486367E+02  0.12059566363E+03  0.00000000000E+00 0. -1.
          1    1    1    2  502    0  0.22657996686E+01  0.28160021024E+02  0.88044619448E+03  0.88089932570E+03  0.00000000000E+00 0. -1.
         22    1    3    3    0    0  0.46377518164E+02 -0.25977978981E+02  0.54514945230E+01  0.53436395607E+02  0.00000000000E+00 0.  1.
         22    1    3    3    0    0 -0.51489138309E+01  0.79602442016E+02  0.77081187593E+02  0.11092596436E+03  0.00000000000E+00 0.  1.
</event>
<event>
 7    1  0.6089676E-006  0.8427130E+02  0.7818608E-02  0.1359982E+00
          2   -1    0    0  502    0  0.00000000000E+00  0.00000000000E+00  0.13711037882E+03  0.13711037882E+03  0.00000000000E+00 0. -1.
          1   -1    0    0  501    0 -0.00000000000E+00 -0.00000000000E+00 -0.13892339442E+04  0.13892339442E+04  0.00000000000E+00 0. -1.
         25    2    1    2    0    0 -0.97263102596E+02 -0.16455482932E+02 -0.49377007684E+03  0.51880921089E+03  0.12499285771E+03 0.  0.
          2    1    1    2  501    0  0.21694711590E+02  0.54004973330E+02 -0.86756878333E+03  0.86951871255E+03  0.00000000000E+00 0. -1.
          1    1    1    2  502    0  0.75568391006E+02 -0.37549490398E+02  0.10921529477E+03  0.13801639960E+03  0.00000000000E+00 0. -1.
         22    1    3    3    0    0 -0.12126648254E+03  0.65674293747E+01 -0.43085784650E+03  0.44764626080E+03  0.00000000000E+00 0. -1.
         22    1    3    3    0    0  0.24003379942E+02 -0.23022912307E+02 -0.62912230341E+02  0.71162950095E+02  0.00000000000E+00 0. -1.
</event>
<event>
 7    1  0.6089676E-006  0.1523612E+03  0.7818608E-02  0.1222726E+00
          2   -1    0    0  502    0  0.00000000000E+00  0.00000000000E+00  0.15764163147E+03  0.15764163147E+03  0.00000000000E+00 0. -1.
          1   -1    0    0  501    0 -0.00000000000E+00 -0.00000000000E+00 -0.11573247438E+04  0.11573247438E+04  0.00000000000E+00 0. -1.
         25    2    1    2    0    0 -0.46806211985E+02 -0.16400264210E+02  0.77572524547E+02  0.15525049389E+03  0.12500171656E+03 0.  0.
          2    1    1    2  501    0  0.10750330186E+03  0.11586124575E+03 -0.10157250508E+04  0.10279485236E+04  0.00000000000E+00 0. -1.
          1    1    1    2  502    0 -0.60697089877E+02 -0.99460981543E+02 -0.61530586047E+02  0.13176735783E+03  0.00000000000E+00 0. -1.
         22    1    3    3    0    0 -0.83371113976E+02  0.15733509013E+02  0.40222976930E+02  0.93894482397E+02  0.00000000000E+00 0.  1.
         22    1    3    3    0    0  0.36564901991E+02 -0.32133773224E+02  0.37349547617E+02  0.61356011493E+02  0.00000000000E+00 0.  1.
</event>
<event>
 7    1  0.6089676E-006  0.3432886E+02  0.7818608E-02  0.1573704E+00
          2   -1    0    0  502    0  0.00000000000E+00  0.00000000000E+00  0.10527286029E+03  0.10527286029E+03  0.00000000000E+00 0. -1.
          1   -1    0    0  501    0 -0.00000000000E+00 -0.00000000000E+00 -0.73434168977E+03  0.73434168977E+03  0.00000000000E+00 0. -1.
         25    2    1    2    0    0  0.36374873298E+02  0.10192711378E+01 -0.99782208551E+02  0.16402788731E+03  0.12499795339E+03 0.  0.
          2    1    1    2  501    0 -0.13654741497E+02 -0.27207802854E+02 -0.59791940958E+03  0.59869385905E+03  0.00000000000E+00 0. -1.
          1    1    1    2  502    0 -0.22720131801E+02  0.26188531716E+02  0.68632788653E+02  0.76892803700E+02  0.00000000000E+00 0. -1.
         22    1    3    3    0    0 -0.94113407826E+01 -0.36152246176E+02 -0.98162061145E+02  0.10503022654E+03  0.00000000000E+00 0. -1.
         22    1    3    3    0    0  0.45786214080E+02  0.37171517314E+02 -0.16201474062E+01  0.58997660774E+02  0.00000000000E+00 0. -1.
</event>
<event>
 7    1  0.6089676E-006  0.8054080E+02  0.7818608E-02  0.1467879E+00
          2   -1    0    0  502    0  0.00000000000E+00  0.00000000000E+00  0.34923975889E+03  0.34923975889E+03  0.00000000000E+00 0. -1.
          1   -1    0    0  501    0 -0.00000000000E+00 -0.00000000000E+00 -0.40535898839E+03  0.40535898839E+03  0.00000000000E+00 0. -1.
         25    2    1    2    0    0  0.53218414810E+02  0.16849006843E+02 -0.46401929144E+02  0.14454868398E+03  0.12500037722E+03 0.  0.
          2    1    1    2  501    0  0.23831110191E+02  0.11199991089E+02 -0.30370364007E+03  0.30484301305E+03  0.00000000000E+00 0. -1.
          1    1    1    2  502    0 -0.77049525001E+02 -0.28048997931E+02  0.29398633971E+03  0.30520705025E+03  0.00000000000E+00 0. -1.
         22    1    3    3    0    0  0.27280329882E+02  0.70947968692E+02 -0.34072334195E+02  0.83299187376E+02  0.00000000000E+00 0. -1.
         22    1    3    3    0    0  0.25938084928E+02 -0.54098961849E+02 -0.12329594949E+02  0.61249496606E+02  0.00000000000E+00 0. -1.
</event>
<event>
 7    1  0.6089676E-006  0.8547601E+02  0.7818608E-02  0.1341703E+00
          2   -1    0    0  502    0  0.00000000000E+00  0.00000000000E+00  0.72887444743E+03  0.72887444743E+03  0.00000000000E+00 0. -1.
          1   -1    0    0  501    0 -0.00000000000E+00 -0.00000000000E+00 -0.14269812716E+04  0.14269812716E+04  0.00000000000E+00 0. -1.
         25    2    1    2    0    0 -0.75298070460E+02  0.31263892090E+02 -0.11446380541E+03  0.18807885178E+03  0.12499784548E+03 0.  0.
          2    1    1    2  501    0  0.45376762526E+02  0.49362634649E+02 -0.12721519773E+04  0.12739177264E+04  0.00000000000E+00 0. -1.
          1    1    1    2  502    0  0.29921307934E+02 -0.80626526739E+02  0.68850895849E+03  0.69385914090E+03  0.00000000000E+00 0. -1.
         22    1    3    3    0    0  0.13296434918E+01 -0.91605349962E+01 -0.99777624026E+02  0.10020607571E+03  0.00000000000E+00 0. -1.
         22    1    3    3    0    0 -0.76627713951E+02  0.40424427087E+02 -0.14686181383E+02  0.87872776070E+02  0.00000000000E+00 0. -1.
</event>
<event>
 7    1  0.6089676E-006  0.1585580E+03  0.7818608E-02  0.1251420E+00
          2   -1    0    0  502    0  0.00000000000E+00  0.00000000000E+00  0.50167661225E+03  0.50167661225E+03  0.00000000000E+00 0. -1.
          1   -1    0    0  501    0 -0.00000000000E+00 -0.00000000000E+00 -0.79636440268E+03  0.79636440268E+03  0.00000000000E+00 0. -1.
         25    2    1    2    0    0 -0.20385847973E+03 -0.90856851463E+02 -0.20439491270E+01  0.25581643893E+03  0.12499850194E+03 0.  0.
          2    1    1    2  501    0  0.15240015565E+03  0.25044292472E+02 -0.65366533191E+03  0.67166315231E+03  0.00000000000E+00 0. -1.
          1    1    1    2  502    0  0.51458324079E+02  0.65812558991E+02  0.36102149062E+03  0.37056142369E+03  0.00000000000E+00 0. -1.
         22    1    3    3    0    0 -0.23798821385E+02  0.28106282315E+02  0.14027039040E+02  0.39409451012E+02  0.00000000000E+00 0.  1.
         22    1    3    3    0    0 -0.18005965834E+03 -0.11896313378E+03 -0.16070988167E+02  0.21640698792E+03  0.00000000000E+00 0.  1.
</event>
<event>
 7    1  0.6089676E-006  0.1348791E+03  0.7818608E-02  0.1376454E+00
          2   -1    0    0  502    0  0.00000000000E+00  0.00000000000E+00  0.12504691601E+03  0.12504691601E+03  0.00000000000E+00 0. -1.
          1   -1    0    0  501    0 -0.00000000000E+00 -0.00000000000E+00 -0.15385426367E+04  0.15385426367E+04  0.00000000000E+00 0. -1.
         25    2    1    2    0    0 -0.14565239455E+03 -0.31988407995E+02 -0.57922390382E+03  0.61103897573E+03  0.12502168142E+03 0.  0.
          2    1    1    2  501    0  0.13129355950E+03  0.37089132211E+01 -0.93642268599E+03  0.94558934091E+03  0.00000000000E+00 0. -1.
          1    1    1    2  502    0  0.14358835046E+02  0.28279494774E+02  0.10215086910E+03  0.10696123609E+03  0.00000000000E+00 0. -1.
         22    1    3    3    0    0 -0.61803316185E+02 -0.33793074058E+02 -0.45946642685E+03  0.46483439970E+03  0.00000000000E+00 0.  1.
         22    1    3    3    0    0 -0.83849078363E+02  0.18046660622E+01 -0.11975747697E+03  0.14620457603E+03  0.00000000000E+00 0.  1.
</event>
<event>
 7    1  0.6089676E-006  0.2164158E+03  0.7818608E-02  0.1218737E+00
          2   -1    0    0  502    0  0.00000000000E+00  0.00000000000E+00  0.17914910089E+04  0.17914910089E+04  0.00000000000E+00 0. -1.
          1   -1    0    0  501    0 -0.00000000000E+00 -0.00000000000E+00 -0.63613151840E+03  0.63613151840E+03  0.00000000000E+00 0. -1.
         25    2    1    2    0    0  0.12593477357E+03  0.16425188385E+03  0.81759891863E+02  0.25523786147E+03  0.12499374970E+03 0.  0.
          2    1    1    2  501    0 -0.71258927506E+02  0.47311312812E+02 -0.53864771804E+03  0.54539669894E+03  0.00000000000E+00 0. -1.
          1    1    1    2  502    0 -0.54675846069E+02 -0.21156319666E+03  0.16122473167E+04  0.16269879669E+04  0.00000000000E+00 0. -1.
         22    1    3    3    0    0  0.38963847406E+02  0.81981961387E+02  0.98967568012E+02  0.13428999559E+03  0.00000000000E+00 0. -1.
         22    1    3    3    0    0  0.86970926169E+02  0.82269922466E+02 -0.17207676149E+02  0.12094786587E+03  0.00000000000E+00 0. -1.
</event>
<event>
 7    1  0.6089676E-006  0.5451928E+02  0.7818608E-02  0.1454634E+00
          2   -1    0    0  502    0  0.00000000000E+00  0.00000000000E+00  0.30663928149E+04  0.30663928149E+04  0.00000000000E+00 0. -1.
          1   -1    0    0  501    0 -0.00000000000E+00 -0.00000000000E+00 -0.35028960288E+04  0.35028960288E+04  0.00000000000E+00 0. -1.
         25    2    1    2    0    0  0.16572902832E+02  0.37559254600E+02  0.56154178791E+01  0.13168177256E+03  0.12499279016E+03 0.  0.
          2    1    1    2  501    0  0.24783843400E+02 -0.48661559252E+02 -0.34394931750E+04  0.34399266689E+04  0.00000000000E+00 0. -1.
          1    1    1    2  502    0 -0.41356746232E+02  0.11102304652E+02  0.29973745433E+04  0.29976804023E+04  0.00000000000E+00 0. -1.
         22    1    3    3    0    0 -0.93694111964E+01 -0.44001486121E+02  0.96043071175E+01  0.46001732165E+02  0.00000000000E+00 0.  1.
         22    1    3    3    0    0  0.25942314028E+02  0.81560740720E+02 -0.39888892384E+01  0.85680040391E+02  0.00000000000E+00 0.  1.
</event>
<event>
 7    1  0.6089676E-006  0.3513897E+03  0.7818608E-02  0.1150899E+00
          2   -1    0    0  502    0  0.00000000000E+00  0.00000000000E+00  0.21557913056E+04  0.21557913056E+04  0.00000000000E+00 0. -1.
          1   -1    0    0  501    0 -0.00000000000E+00 -0.00000000000E+00 -0.35580112317E+03  0.35580112317E+03  0.00000000000E+00 0. -1.
         25    2    1    2    0    0  0.21106829150E+03 -0.15385590221E+03  0.17331132667E+03  0.33746523266E+03  0.12499801990E+03 0.  0.
          2    1    1    2  501    0  0.74185144300E+02 -0.84282513838E+02 -0.24310252784E+03  0.26777941821E+03  0.00000000000E+00 0. -1.
          1    1    1    2  502    0 -0.28525343580E+03  0.23813841605E+03  0.18697813836E+04  0.19063477779E+04  0.00000000000E+00 0. -1.
         22    1    3    3    0    0  0.19191394218E+03 -0.12137292913E+03  0.19014245440E+03  0.29616971839E+03  0.00000000000E+00 0. -1.
         22    1    3    3    0    0  0.19154349321E+02 -0.32482973076E+02 -0.16831127729E+02  0.41295514264E+02  0.00000000000E+00 0. -1.
</event>
<event>
 7    1  0.6089676E-006  0.8986257E+02  0.7818608E-02  0.1461136E+00
          2   -1    0    0  502    0  0.00000000000E+00  0.00000000000E+00  0.82342110863E+03  0.82342110863E+03  0.00000000000E+00 0. -1.
          1   -1    0    0  501    0 -0.00000000000E+00 -0.00000000000E+00 -0.28414300276E+03  0.28414300276E+03  0.00000000000E+00 0. -1.
         25    2    1    2    0    0  0.69089365245E+02 -0.26164459175E+02  0.11992157740E+03  0.18831925421E+03  0.12500014987E+03 0.  0.
          2    1    1    2  501    0  0.76828639745E+01 -0.23556129523E+02 -0.24619447648E+03  0.24743814962E+03  0.00000000000E+00 0. -1.
          1    1    1    2  502    0 -0.76772229220E+02  0.49720588698E+02  0.66555100495E+03  0.67180670755E+03  0.00000000000E+00 0. -1.
         22    1    3    3    0    0 -0.13518085994E+02  0.54811692036E+01  0.95418277778E+02  0.96526833570E+02  0.00000000000E+00 0. -1.
         22    1    3    3    0    0  0.82607451239E+02 -0.31645628379E+02  0.24503299618E+02  0.91792420645E+02  0.00000000000E+00 0. -1.
</event>
<event>
 7    1  0.6089676E-006  0.1095221E+03  0.7818608E-02  0.1436077E+00
          2   -1    0    0  502    0  0.00000000000E+00  0.00000000000E+00  0.15961880633E+04  0.15961880633E+04  0.00000000000E+00 0. -1.
          1   -1    0    0  501    0 -0.00000000000E+00 -0.00000000000E+00 -0.17690256824E+03  0.17690256824E+03  0.00000000000E+00 0. -1.
         25    2    1    2    0    0  0.94121322250E+02 -0.37962797748E+02  0.14811144853E+03  0.21877281295E+03  0.12499818072E+03 0.  0.
          2    1    1    2  501    0 -0.10913556614E+03  0.18651879808E+02 -0.11980083324E+03  0.16312787641E+03  0.00000000000E+00 0. -1.
          1    1    1    2  502    0  0.15014243892E+02  0.19310917939E+02  0.13909748797E+04  0.13911899421E+04  0.00000000000E+00 0. -1.
         22    1    3    3    0    0 -0.25103180516E+02  0.10201614007E+02  0.72558255847E+01  0.28051552636E+02  0.00000000000E+00 0. -1.
         22    1    3    3    0    0  0.11922450277E+03 -0.48164411754E+02  0.14085562295E+03  0.19072126031E+03  0.00000000000E+00 0. -1.
</event>
<event>
 7    1  0.6089676E-006  0.5222150E+02  0.7818608E-02  0.1515991E+00
          2   -1    0    0  502    0  0.00000000000E+00  0.00000000000E+00  0.56179754255E+02  0.56179754255E+02  0.00000000000E+00 0. -1.
          1   -1    0    0  501    0 -0.00000000000E+00 -0.00000000000E+00 -0.34227086246E+04  0.34227086246E+04  0.00000000000E+00 0. -1.
         25    2    1    2    0    0  0.57563568543E+02 -0.46828992915E+02 -0.35298110699E+03  0.38174731866E+03  0.12501533669E+03 0.  0.
          2    1    1    2  501    0 -0.28712118843E+02  0.43275533710E+02 -0.30500420459E+04  0.30504841648E+04  0.00000000000E+00 0. -1.
          1    1    1    2  502    0 -0.28851449699E+02  0.35534592054E+01  0.36494282623E+02  0.46656895378E+02  0.00000000000E+00 0. -1.
         22    1    3    3    0    0 -0.26804154943E+02 -0.16413478501E+01 -0.15605943758E+02  0.31059655915E+02  0.00000000000E+00 0. -1.
         22    1    3    3    0    0  0.84367723486E+02 -0.45187645065E+02 -0.33737516323E+03  0.35068766274E+03  0.00000000000E+00 0. -1.
</event>
<event>
 7    1  0.6089676E-006  0.2006879E+03  0.7818608E-02  0.1193795E+00
          2   -1    0    0  502    0  0.00000000000E+00  0.00000000000E+00  0.15136128062E+04  0.15136128062E+04  0.00000000000E+00 0. -1.
          1   -1    0    0  501    0 -0.00000000000E+00 -0.00000000000E+00 -0.44201537555E+03  0.44201537555E+03  0.00000000000E+00 0. -1.
         25    2    1    2    0    0 -0.18143358801E+03 -0.45357503150E+02 -0.13993300561E+03  0.26491690048E+03  0.12499707258E+03 0.  0.
          2    1    1    2  501    0  0.50917636379E+02 -0.10931300794E+03 -0.21681802314E+03  0.24809674435E+03  0.00000000000E+00 0. -1.
          1    1    1    2  502    0  0.13051595163E+03  0.15467051109E+03  0.14283484594E+04  0.14426145370E+04  0.00000000000E+00 0. -1.
         22    1    3    3    0    0 -0.41027542236E+02 -0.66734658074E+02 -0.25050023511E+02  0.82245227752E+02  0.00000000000E+00 0. -1.
         22    1    3    3    0    0 -0.14040604577E+03  0.21377154924E+02 -0.11488298210E+03  0.18267167273E+03  0.00000000000E+00 0. -1.
</event>
<event>
 7    1  0.6089676E-006  0.4503508E+02  0.7818608E-02  0.1492648E+00
          2   -1    0    0  502    0  0.00000000000E+00  0.00000000000E+00  0.20880598261E+04  0.20880598261E+04  0.00000000000E+00 0. -1.
          1   -1    0    0  501    0 -0.00000000000E+00 -0.00000000000E+00 -0.41576916725E+02  0.41576916725E+02  0.00000000000E+00 0. -1.
         25    2    1    2    0    0  0.13471742190E+02  0.47137470032E+02  0.12171993006E+03  0.18123480966E+03  0.12500754353E+03 0.  0.
          2    1    1    2  501    0 -0.38382386262E+02 -0.94786714143E+01  0.22275978264E+02  0.45379202225E+02  0.00000000000E+00 0. -1.
          1    1    1    2  502    0  0.24910644072E+02 -0.37658798618E+02  0.19024870011E+04  0.19030227310E+04  0.00000000000E+00 0. -1.
         22    1    3    3    0    0  0.39962024150E+02  0.30677405562E+02 -0.50996418328E+01  0.50636675770E+02  0.00000000000E+00 0.  1.
         22    1    3    3    0    0 -0.26490281961E+02  0.16460064470E+02  0.12681957189E+03  0.13059813389E+03  0.00000000000E+00 0.  1.
</event>
<event>
 7    1  0.6089676E-006  0.9739728E+02  0.7818608E-02  0.1408766E+00
          2   -1    0    0  502    0  0.00000000000E+00  0.00000000000E+00  0.12551967066E+03  0.12551967066E+03  0.00000000000E+00 0. -1.
          1   -1    0    0  501    0 -0.00000000000E+00 -0.00000000000E+00 -0.69566631530E+03  0.69566631530E+03  0.00000000000E+00 0. -1.
         25    2    1    2    0    0 -0.10885785057E+03 -0.51837506042E+02 -0.28473395841E+03  0.33351935040E+03  0.12499828541E+03 0.  0.
          2    1    1    2  501    0  0.89227195140E+02  0.24186466692E+02 -0.37796019048E+03  0.38910202147E+03  0.00000000000E+00 0. -1.
          1    1    1    2  502    0  0.19630655426E+02  0.27651039351E+02  0.92547504243E+02  0.98564614093E+02  0.00000000000E+00 0. -1.
         22    1    3    3    0    0 -0.82761262576E+02 -0.67266705672E+01 -0.59034277733E+02  0.10188091395E+03  0.00000000000E+00 0. -1.
         22    1    3    3    0    0 -0.26096587991E+02 -0.45110835475E+02 -0.22569968067E+03  0.23163843645E+03  0.00000000000E+00 0. -1.
</event>
<event>
 7    1  0.6089676E-006  0.5320432E+02  0.7818608E-02  0.1566391E+00
          2   -1    0    0  502    0  0.00000000000E+00  0.00000000000E+00  0.25013199142E+04  0.25013199142E+04  0.00000000000E+00 0. -1.
          1   -1    0    0  501    0 -0.00000000000E+00 -0.00000000000E+00 -0.75145354809E+01  0.75145354809E+01  0.00000000000E+00 0. -1.
         25    2    1    2    0    0 -0.27584273313E+02  0.53791726487E+02  0.10465358002E+04  0.10557059082E+04  0.12499336666E+03 0.  0.
          2    1    1    2  501    0  0.20505573015E+02 -0.15145667513E+01  0.40972399590E+02  0.45842229061E+02  0.00000000000E+00 0. -1.
          1    1    1    2  502    0  0.70787002976E+01 -0.52277159736E+02  0.14062971790E+04  0.14072863124E+04  0.00000000000E+00 0. -1.
         22    1    3    3    0    0  0.16544614331E+02  0.51995809292E+02  0.18104115646E+03  0.18908513633E+03  0.00000000000E+00 0.  1.
         22    1    3    3    0    0 -0.44128887644E+02  0.17959171954E+01  0.86549464370E+03  0.86662077191E+03  0.00000000000E+00 0.  1.
</event>
<event>
 7    1  0.6089676E-006  0.7120459E+02  0.7818608E-02  0.1428995E+00
          2   -1    0    0  502    0  0.00000000000E+00  0.00000000000E+00  0.21269241441E+04  0.21269241441E+04  0.00000000000E+00 0. -1.
          1   -1    0    0  501    0 -0.00000000000E+00 -0.00000000000E+00 -0.55348039936E+02  0.55348039936E+02  0.00000000000E+00 0. -1.
         25    2    1    2    0    0  0.11237501409E+02 -0.77694150469E+02  0.56313685726E+03  0.58216382780E+03  0.12501575875E+03 0.  0.
          2    1    1    2  501    0  0.33188230070E+02  0.21770795466E+02 -0.36258882741E+02  0.53759954688E+02  0.00000000000E+00 0. -1.
          1    1    1    2  502    0 -0.44425731479E+02  0.55923355003E+02  0.15446981297E+04  0.15463484016E+04  0.00000000000E+00 0. -1.
         22    1    3    3    0    0  0.33204807672E+02 -0.86580793668E+02  0.54359850206E+03  0.55145092667E+03  0.00000000000E+00 0.  1.
         22    1    3    3    0    0 -0.21967306264E+02  0.88866431987E+01  0.19538355207E+02  0.30712901133E+02  0.00000000000E+00 0.  1.
</event>
<event>
 7    1  0.6089676E-006  0.5050303E+02  0.7818608E-02  0.1466043E+00
          2   -1    0    0  502    0  0.00000000000E+00  0.00000000000E+00  0.26630211200E+04  0.26630211200E+04  0.00000000000E+00 0. -1.
          1   -1    0    0  501    0 -0.00000000000E+00 -0.00000000000E+00 -0.80068001320E+02  0.80068001320E+02  0.00000000000E+00 0. -1.
         25    2    1    2    0    0  0.36421222954E+02  0.15590613580E+02  0.91522880189E+02  0.15990919013E+03  0.12499975511E+03 0.  0.
          2    1    1    2  501    0  0.68698914955E+01 -0.41993285027E+02 -0.35698265575E+02  0.55542754357E+02  0.00000000000E+00 0. -1.
          1    1    1    2  502    0 -0.43291114450E+02  0.26402671446E+02  0.25271285041E+04  0.25276371768E+04  0.00000000000E+00 0. -1.
         22    1    3    3    0    0  0.65623617962E+02 -0.26960806350E+02  0.23943282143E+02  0.74877400284E+02  0.00000000000E+00 0.  1.
         22    1    3    3    0    0 -0.29202395008E+02  0.42551419931E+02  0.67579598047E+02  0.85031789846E+02  0.00000000000E+00 0.  1.
</event>
<event>
 7    1  0.6089676E-006  0.8209049E+02  0.7818608E-02  0.1373102E+00
          2   -1    0    0  502    0  0.00000000000E+00  0.00000000000E+00  0.19634900717E+04  0.19634900717E+04  0.00000000000E+00 0. -1.
          1   -1    0    0  501    0 -0.00000000000E+00 -0.00000000000E+00 -0.12420158643E+04  0.12420158643E+04  0.00000000000E+00 0. -1.
         25    2    1    2    0    0  0.33876202521E+01 -0.10810036744E+03  0.35991703641E+03  0.39605686647E+03  0.12499441177E+03 0.  0.
          2    1    1    2  501    0  0.37189886231E+02  0.73130856234E+02 -0.12221177050E+04  0.12248685214E+04  0.00000000000E+00 0. -1.
          1    1    1    2  502    0 -0.40577506484E+02  0.34969511201E+02  0.15836748760E+04  0.15845805481E+04  0.00000000000E+00 0. -1.
         22    1    3    3    0    0  0.37343027537E+02  0.84927725281E+01  0.48478563005E+02  0.61780255437E+02  0.00000000000E+00 0.  1.
         22    1    3    3    0    0 -0.33955407285E+02 -0.11659313996E+03  0.31143847340E+03  0.33427661103E+03  0.00000000000E+00 0.  1.
</event>
<event>
 7    1  0.6089676E-006  0.8974525E+02  0.7818608E-02  0.1311441E+00
          2   -1    0    0  502    0  0.00000000000E+00  0.00000000000E+00  0.11805020104E+03  0.11805020104E+03  0.00000000000E+00 0. -1.
          1   -1    0    0  501    0 -0.00000000000E+00 -0.00000000000E+00 -0.18204906778E+04  0.18204906778E+04  0.00000000000E+00 0. -1.
         25    2    1    2    0    0 -0.85455296914E+02 -0.70559429529E+02 -0.26396338489E+03  0.31238293611E+03  0.12500075739E+03 0.  0.
          2    1    1    2  501    0  0.43826433407E+01  0.90373523647E+02 -0.15121375038E+04  0.15148420419E+04  0.00000000000E+00 0. -1.
          1    1    1    2  502    0  0.81072653573E+02 -0.19814094118E+02  0.73660411987E+02  0.11131590083E+03  0.00000000000E+00 0. -1.
         22    1    3    3    0    0 -0.89900629275E+02 -0.10470344120E+02 -0.21971743567E+03  0.23762891825E+03  0.00000000000E+00 0. -1.
         22    1    3    3    0    0  0.44453323608E+01 -0.60089085410E+02 -0.44245949220E+02  0.74754017869E+02  0.00000000000E+00 0. -1.
</event>
<event>
 7    1  0.6089676E-006  0.1007237E+03  0.7818608E-02  0.1324474E+00
          2   -1    0    0  502    0  0.00000000000E+00  0.00000000000E+00  0.82676068197E+03  0.82676068197E+03  0.00000000000E+00 0. -1.
          1   -1    0    0  501    0 -0.00000000000E+00 -0.00000000000E+00 -0.12179262515E+03  0.12179262515E+03  0.00000000000E+00 0. -1.
         25    2    1    2    0    0 -0.10831096159E+03 -0.83663473195E+02  0.19582997064E+02  0.18638224914E+03  0.12499603142E+03 0.  0.
          2    1    1    2  501    0  0.42773935316E+02  0.74576002738E+02  0.13487402370E+02  0.87023558589E+02  0.00000000000E+00 0. -1.
          1    1    1    2  502    0  0.65537026278E+02  0.90874704572E+01  0.67189765738E+03  0.67514749939E+03  0.00000000000E+00 0. -1.
         22    1    3    3    0    0 -0.81885722890E+02 -0.95585432862E+02 -0.29593598233E+02  0.12929666525E+03  0.00000000000E+00 0. -1.
         22    1    3    3    0    0 -0.26425238704E+02  0.11921959667E+02  0.49176595297E+02  0.57085583888E+02  0.00000000000E+00 0. -1.
</event>
<event>
 7    1  0.6089676E-006  0.8641639E+02  0.7818608E-02  0.1404045E+00
          2   -1    0    0  502    0  0.00000000000E+00  0.00000000000E+00  0.10994854541E+04  0.10994854541E+04  0.00000000000E+00 0. -1.
          1   -1    0    0  501    0 -0.00000000000E+00 -0.00000000000E+00 -0.75780201563E+02  0.75780201563E+02  0.00000000000E+00 0. -1.
         25    2    1    2    0    0 -0.69396387966E+02  0.18950652699E+02  0.17922431521E+03  0.23004576936E+03  0.12499885975E+03 0.  0.
          2    1    1    2  501    0  0.89174835711E+02  0.15427406721E+02 -0.88833501207E+01  0.90934427538E+02  0.00000000000E+00 0. -1.
          1    1    1    2  502    0 -0.19778447745E+02 -0.34378059420E+02  0.85336428742E+03  0.85428545873E+03  0.00000000000E+00 0. -1.
         22    1    3    3    0    0 -0.22027118030E+02 -0.53156920247E+02  0.80261352987E+02  0.98755946060E+02  0.00000000000E+00 0. -1.
         22    1    3    3    0    0 -0.47369269936E+02  0.72107572946E+02  0.98962962220E+02  0.13128982330E+03  0.00000000000E+00 0. -1.
</event>
<event>
 7    1  0.6089676E-006  0.6669859E+02  0.7818608E-02  0.1420985E+00
          2   -1    0    0  502    0  0.00000000000E+00  0.00000000000E+00  0.78116334811E+03  0.78116334811E+03  0.00000000000E+00 0. -1.
          1   -1    0    0  501    0 -0.00000000000E+00 -0.00000000000E+00 -0.13241063891E+04  0.13241063891E+04  0.00000000000E+00 0. -1.
         25    2    1    2    0    0 -0.25088002268E+02  0.41660782735E+01  0.62683024796E+03  0.63967800595E+03  0.12500010987E+03 0.  0.
          2    1    1    2  501    0  0.64267222169E+02  0.18061782949E+02 -0.13133853826E+04  0.13150808595E+04  0.00000000000E+00 0. -1.
          1    1    1    2  502    0 -0.39179219901E+02 -0.22227861223E+02  0.14361209362E+03  0.15051087177E+03  0.00000000000E+00 0. -1.
         22    1    3    3    0    0 -0.57431263582E+02 -0.17280458505E+02  0.15413113197E+03  0.16538854291E+03  0.00000000000E+00 0.  1.
         22    1    3    3    0    0  0.32343261314E+02  0.21446536778E+02  0.47269911599E+03  0.47428946304E+03  0.00000000000E+00 0.  1.
</event>
<event>
 7    1  0.6089676E-006  0.9446033E+02  0.7818608E-02  0.1330720E+00
          2   -1    0    0  502    0  0.00000000000E+00  0.00000000000E+00  0.14547327229E+04  0.14547327229E+04  0.00000000000E+00 0. -1.
          1   -1    0    0  501    0 -0.00000000000E+00 -0.00000000000E+00 -0.19914320812E+03  0.19914320812E+03  0.00000000000E+00 0. -1.
         25    2    1    2    0    0  0.97623377261E+01  0.13505048671E+03  0.53492970255E+03  0.56578151144E+03  0.12499997928E+03 0.  0.
          2    1    1    2  501    0  0.36191044347E+02 -0.86615223612E+02 -0.17039506766E+03  0.19454168637E+03  0.00000000000E+00 0. -1.
          1    1    1    2  502    0 -0.45953382074E+02 -0.48435263096E+02  0.89105487987E+03  0.89355273319E+03  0.00000000000E+00 0. -1.
         22    1    3    3    0    0  0.32351530048E+02  0.52858013564E+01  0.31705346332E+02  0.45604716625E+02  0.00000000000E+00 0.  1.
         22    1    3    3    0    0 -0.22589192322E+02  0.12976468535E+03  0.50322435622E+03  0.52017679482E+03  0.00000000000E+00 0.  1.
</event>
<event>
 7    1  0.6089676E-006  0.6652464E+02  0.7818608E-02  0.1463455E+00
          2   -1    0    0  502    0  0.00000000000E+00  0.00000000000E+00  0.89665505152E+03  0.89665505152E+03  0.00000000000E+00 0. -1.
          1   -1    0    0  501    0 -0.00000000000E+00 -0.00000000000E+00 -0.44652538626E+03  0.44652538626E+03  0.00000000000E+00 0. -1.
         25    2    1    2    0    0  0.66178463082E+02  0.20478292368E+02  0.51830859793E+02  0.15201922722E+03  0.12499783191E+03 0.  0.
          2    1    1    2  501    0 -0.65496820132E+02  0.12427008036E+02 -0.39328415349E+03  0.39889433358E+03  0.00000000000E+00 0. -1.
          1    1    1    2  502    0 -0.68164295073E+00 -0.32905300404E+02  0.79158295896E+03  0.79226687697E+03  0.00000000000E+00 0. -1.
         22    1    3    3    0    0  0.67214801639E+02 -0.14998805172E+00  0.87780376222E+02  0.11055879208E+03  0.00000000000E+00 0.  1.
         22    1    3    3    0    0 -0.10363385562E+01  0.20628280419E+02 -0.35949516430E+02  0.41460435142E+02  0.00000000000E+00 0.  1.
</event>
<event>
 7    1  0.6089676E-006  0.5934167E+02  0.7818608E-02  0.1506382E+00
          2   -1    0    0  502    0  0.00000000000E+00  0.00000000000E+00  0.15300858946E+04  0.15300858946E+04  0.00000000000E+00 0. -1.
          1   -1    0    0  501    0 -0.00000000000E+00 -0.00000000000E+00 -0.82028381201E+03  0.82028381201E+03  0.00000000000E+00 0. -1.
         25    2    1    2    0    0 -0.24020789070E+02  0.30326415141E+02 -0.30650847209E+03  0.33327117426E+03  0.12500216945E+03 0.  0.
          2    1    1    2  501    0  0.50524690424E+02 -0.36871718670E+02 -0.49831590765E+03  0.50222605647E+03  0.00000000000E+00 0. -1.
          1    1    1    2  502    0 -0.26503901354E+02  0.65453035285E+01  0.15146264623E+04  0.15148724759E+04  0.00000000000E+00 0. -1.
         22    1    3    3    0    0 -0.27051107744E+02 -0.42372455845E+02 -0.72592916125E+02  0.88300163738E+02  0.00000000000E+00 0.  1.
         22    1    3    3    0    0  0.30303186737E+01  0.72698870986E+02 -0.23391555596E+03  0.24497101052E+03  0.00000000000E+00 0.  1.
</event>
<event>
 7    1  0.6089676E-006  0.6900891E+02  0.7818608E-02  0.1431332E+00
          2   -1    0    0  502    0  0.00000000000E+00  0.00000000000E+00  0.45694920851E+03  0.45694920851E+03  0.00000000000E+00 0. -1.
          1   -1    0    0  501    0 -0.00000000000E+00 -0.00000000000E+00 -0.32860235173E+03  0.32860235173E+03  0.00000000000E+00 0. -1.
         25    2    1    2    0    0  0.48172457179E+02  0.15089623452E+02  0.16192996725E+03  0.21070025977E+03  0.12500001123E+03 0.  0.
          2    1    1    2  501    0 -0.66426967194E+02  0.20766671964E+02 -0.29869879542E+03  0.30669979951E+03  0.00000000000E+00 0. -1.
          1    1    1    2  502    0  0.18254510015E+02 -0.35856295415E+02  0.26511568495E+03  0.26815150095E+03  0.00000000000E+00 0. -1.
         22    1    3    3    0    0  0.42987744736E+02 -0.38399410924E+02  0.23575939957E+02  0.62275885395E+02  0.00000000000E+00 0. -1.
         22    1    3    3    0    0  0.51847124427E+01  0.53489034376E+02  0.13835402729E+03  0.14842437438E+03  0.00000000000E+00 0. -1.
</event>
<event>
 7    1  0.6089676E-006  0.6448302E+02  0.7818608E-02  0.1399054E+00
          2   -1    0    0  502    0  0.00000000000E+00  0.00000000000E+00  0.20327955220E+04  0.20327955220E+04  0.00000000000E+00 0. -1.
          1   -1    0    0  501    0 -0.00000000000E+00 -0.00000000000E+00 -0.48302956685E+03  0.48302956685E+03  0.00000000000E+00 0. -1.
         25    2    1    2    0    0  0.74336113206E+02  0.25914384016E+02  0.12478153575E+04  0.12565285540E+04  0.12499371023E+03 0.  0.
          2    1    1    2  501    0 -0.29024076246E+02 -0.57597072197E+02 -0.47551416983E+03  0.47986825842E+03  0.00000000000E+00 0. -1.
          1    1    1    2  502    0 -0.45312036960E+02  0.31682688181E+02  0.77746476754E+03  0.77942827649E+03  0.00000000000E+00 0. -1.
         22    1    3    3    0    0  0.73575010152E+02  0.63222007055E+02  0.61401825116E+03  0.62163390919E+03  0.00000000000E+00 0. -1.
         22    1    3    3    0    0  0.76110305352E+00 -0.37307623039E+02  0.63379710632E+03  0.63489464480E+03  0.00000000000E+00 0. -1.
</event>
<event>
 7    1  0.6089676E-006  0.4311400E+02  0.7818608E-02  0.1486746E+00
          2   -1    0    0  502    0  0.00000000000E+00  0.00000000000E+00  0.43659139053E+03  0.43659139053E+03  0.00000000000E+00 0. -1.
          1   -1    0    0  501    0 -0.00000000000E+00 -0.00000000000E+00 -0.18090576338E+04  0.18090576338E+04  0.00000000000E+00 0. -1.
         25    2    1    2    0    0 -0.11672688532E+00  0.35179515751E+02 -0.24720097805E+02  0.13216947773E+03  0.12498030107E+03 0.  0.
          2    1    1    2  501    0 -0.39500382733E+02 -0.17070655085E+02 -0.17291053242E+04  0.17296406880E+04  0.00000000000E+00 0. -1.
          1    1    1    2  502    0  0.39617109619E+02 -0.18108860666E+02  0.38135917869E+03  0.38383885862E+03  0.00000000000E+00 0. -1.
         22    1    3    3    0    0 -0.33170946501E+02  0.33674557946E+02 -0.64792368158E+02  0.80201861051E+02  0.00000000000E+00 0.  1.
         22    1    3    3    0    0  0.33054219615E+02  0.15049578049E+01  0.40072270353E+02  0.51967616682E+02  0.00000000000E+00 0.  1.
</event>
<event>
 7    1  0.6089676E-006  0.3767279E+02  0.7818608E-02  0.1553107E+00
          2   -1    0    0  502    0  0.00000000000E+00  0.00000000000E+00  0.10726258931E+03  0.10726258931E+03  0.00000000000E+00 0. -1.
          1   -1    0    0  501    0 -0.00000000000E+00 -0.00000000000E+00 -0.22379649812E+03  0.22379649812E+03  0.00000000000E+00 0. -1.
         25    2    1    2    0    0  0.27553292354E+02 -0.14181374256E+02 -0.16397065771E+02  0.12982494552E+03  0.12500142967E+03 0.  0.
          2    1    1    2  501    0 -0.19758647558E+02 -0.24648292776E+02 -0.14090116556E+03  0.14439903374E+03  0.00000000000E+00 0. -1.
          1    1    1    2  502    0 -0.77946447962E+01  0.38829667032E+02  0.40764322515E+02  0.56835108159E+02  0.00000000000E+00 0. -1.
         22    1    3    3    0    0 -0.15030284278E+02  0.34905071105E+01 -0.62647523953E+02  0.64519805818E+02  0.00000000000E+00 0. -1.
         22    1    3    3    0    0  0.42583576632E+02 -0.17671881367E+02  0.46250458182E+02  0.65305139705E+02  0.00000000000E+00 0. -1.
</event>
<event>
 7    1  0.6089676E-006  0.9180534E+02  0.7818608E-02  0.1349543E+00
          2   -1    0    0  502    0  0.00000000000E+00  0.00000000000E+00  0.89946923768E+03  0.89946923768E+03  0.00000000000E+00 0. -1.
          1   -1    0    0  501    0 -0.00000000000E+00 -0.00000000000E+00 -0.97118954666E+03  0.97118954666E+03  0.00000000000E+00 0. -1.
         25    2    1    2    0    0  0.70170140781E+02 -0.54058725969E+02  0.16375907332E+03  0.22425949449E+03  0.12501636799E+03 0.  0.
          2    1    1    2  501    0  0.23674294173E+02  0.53344911339E+02 -0.93690619553E+03  0.93872220119E+03  0.00000000000E+00 0. -1.
          1    1    1    2  502    0 -0.93844434955E+02  0.71381463008E+00  0.70142681323E+03  0.70767708866E+03  0.00000000000E+00 0. -1.
         22    1    3    3    0    0  0.45296308678E+02 -0.37217549637E+02  0.87799938407E+00  0.58631667755E+02  0.00000000000E+00 0.  1.
         22    1    3    3    0    0  0.24873832103E+02 -0.16841176332E+02  0.16288107394E+03  0.16562782674E+03  0.00000000000E+00 0.  1.
</event>
<event>
 7    1  0.6089676E-006  0.6688974E+02  0.7818608E-02  0.1405367E+00
          2   -1    0    0  502    0  0.00000000000E+00  0.00000000000E+00  0.16745384944E+03  0.16745384944E+03  0.00000000000E+00 0. -1.
          1   -1    0    0  501    0 -0.00000000000E+00 -0.00000000000E+00 -0.15097580690E+04  0.15097580690E+04  0.00000000000E+00 0. -1.
         25    2    1    2    0    0  0.23693418963E+02 -0.16827689876E+02 -0.93784102272E+03  0.94658077154E+03  0.12499929563E+03 0.  0.
          2    1    1    2  501    0  0.42711489197E+02  0.27335403646E+02 -0.55942229565E+03  0.56171594287E+03  0.00000000000E+00 0. -1.
          1    1    1    2  502    0 -0.66404908160E+02 -0.10507713770E+02  0.15495909876E+03  0.16891520407E+03  0.00000000000E+00 0. -1.
         22    1    3    3    0    0  0.11204197269E+02 -0.71434512286E+02 -0.53380853346E+03  0.53868355644E+03  0.00000000000E+00 0.  1.
         22    1    3    3    0    0  0.12489221694E+02  0.54606822410E+02 -0.40403248926E+03  0.40789721510E+03  0.00000000000E+00 0.  1.
</event>
<event>
 7    1  0.6089676E-006  0.9235616E+02  0.7818608E-02  0.1450650E+00
          2   -1    0    0  502    0  0.00000000000E+00  0.00000000000E+00  0.10197733031E+04  0.10197733031E+04  0.00000000000E+00 0. -1.
          1   -1    0    0  501    0 -0.00000000000E+00 -0.00000000000E+00 -0.15344881965E+04  0.15344881965E+04  0.00000000000E+00 0. -1.
         25    2    1    2    0    0  0.10156056059E+03  0.15723663884E+02 -0.32486751397E+03  0.36294068643E+03  0.12500103661E+03 0.  0.
          2    1    1    2  501    0 -0.96378992557E+01 -0.24177821904E+02 -0.11883125415E+04  0.11885975570E+04  0.00000000000E+00 0. -1.
          1    1    1    2  502    0 -0.91922661339E+02  0.84541580202E+01  0.99846516210E+03  0.10027232561E+04  0.00000000000E+00 0. -1.
         22    1    3    3    0    0  0.21327714385E+02  0.17918463160E+02 -0.25503363222E+03  0.25655037768E+03  0.00000000000E+00 0. -1.
         22    1    3    3    0    0  0.80232846210E+02 -0.21947992765E+01 -0.69833881748E+02  0.10639030875E+03  0.00000000000E+00 0. -1.
</event>
<event>
 7    1  0.6089676E-006  0.1206381E+03  0.7818608E-02  0.1339566E+00
          2   -1    0    0  502    0  0.00000000000E+00  0.00000000000E+00  0.16788825421E+04  0.16788825421E+04  0.00000000000E+00 0. -1.
          1   -1    0    0  501    0 -0.00000000000E+00 -0.00000000000E+00 -0.65166765041E+03  0.65166765041E+03  0.00000000000E+00 0. -1.
         25    2    1    2    0    0 -0.11535439720E+03  0.10932843196E+03  0.97472917076E+02  0.22446723038E+03  0.12500089984E+03 0.  0.
          2    1    1    2  501    0  0.10131544890E+03 -0.63015323148E+02 -0.58172837497E+03  0.59383807000E+03  0.00000000000E+00 0. -1.
          1    1    1    2  502    0  0.14038948299E+02 -0.46313108810E+02  0.15114703495E+04  0.15122448921E+04  0.00000000000E+00 0. -1.
         22    1    3    3    0    0 -0.17277690401E+02 -0.27465251447E+02  0.26092646945E+02  0.41637541321E+02  0.00000000000E+00 0.  1.
         22    1    3    3    0    0 -0.98076706801E+02  0.13679368341E+03  0.71380270131E+02  0.18282968906E+03  0.00000000000E+00 0.  1.
</event>
<event>
 7    1  0.6089676E-006  0.9156235E+02  0.7818608E-02  0.1321081E+00
          2   -1    0    0  502    0  0.00000000000E+00  0.00000000000E+00  0.12082111614E+04  0.12082111614E+04  0.00000000000E+00 0. -1.
          1   -1    0    0  501    0 -0.00000000000E+00 -0.00000000000E+00 -0.92625649067E+02  0.92625649067E+02  0.00000000000E+00 0. -1.
         25    2    1    2    0    0 -0.13841468605E+03 -0.10661855819E+02  0.20202978988E+03  0.27516249372E+03  0.12500424579E+03 0.  0.
          2    1    1    2  501    0  0.57087287092E+02  0.48664036165E+02 -0.27835885503E+02  0.80012394572E+02  0.00000000000E+00 0. -1.
          1    1    1    2  502    0  0.81327398954E+02 -0.38002180346E+02  0.94139160794E+03  0.94566192217E+03  0.00000000000E+00 0. -1.
         22    1    3    3    0    0 -0.16353827689E+02  0.39901391675E+02  0.13964040882E+02  0.45327289522E+02  0.00000000000E+00 0. -1.
         22    1    3    3    0    0 -0.12206085836E+03 -0.50563247494E+02  0.18806574900E+03  0.22983520420E+03  0.00000000000E+00 0. -1.
</event>
<event>
 7    1  0.6089676E-006  0.9531267E+02  0.7818608E-02  0.1315294E+00
          2   -1    0    0  502    0  0.00000000000E+00  0.00000000000E+00  0.92869542843E+03  0.92869542843E+03  0.00000000000E+00 0. -1.
          1   -1    0    0  501    0 -0.00000000000E+00 -0.00000000000E+00 -0.23056483910E+03  0.23056483910E+03  0.00000000000E+00 0. -1.
         25    2    1    2    0    0  0.18917188558E+01 -0.45616994801E+01 -0.24574262498E+02  0.12748827880E+03  0.12499991660E+03 0.  0.
          2    1    1    2  501    0 -0.93814611309E+02  0.29754696519E+02 -0.13595408033E+03  0.16783931369E+03  0.00000000000E+00 0. -1.
          1    1    1    2  502    0  0.91922892453E+02 -0.25192997039E+02  0.85865893216E+03  0.86393267506E+03  0.00000000000E+00 0. -1.
         22    1    3    3    0    0 -0.10902996300E+02  0.15147688004E+01  0.50195701722E+02  0.51388503814E+02  0.00000000000E+00 0. -1.
         22    1    3    3    0    0  0.12794715155E+02 -0.60764682806E+01 -0.74769964221E+02  0.76099774981E+02  0.00000000000E+00 0. -1.
</event>
<event>
 7    1  0.6089676E-006  0.1111977E+03  0.7818608E-02  0.1326463E+00
          2   -1    0    0  502    0  0.00000000000E+00  0.00000000000E+00  0.12281912750E+04  0.12281912750E+04  0.00000000000E+00 0. -1.
          1   -1    0    0  501    0 -0.00000000000E+00 -0.00000000000E+00 -0.47976617247E+03  0.47976617247E+03  0.00000000000E+00 0. -1.
         25    2    1    2    0    0 -0.52840462669E+02 -0.46343284940E+02  0.84585689123E+02  0.16649209228E+03  0.12500025373E+03 0.  0.
          2    1    1    2  501    0  0.10970023536E+03  0.31032193413E+02 -0.43060338764E+03  0.44543957627E+03  0.00000000000E+00 0. -1.
          1    1    1    2  502    0 -0.56859772691E+02  0.15311091527E+02  0.10944428010E+04  0.10960257789E+04  0.00000000000E+00 0. -1.
         22    1    3    3    0    0 -0.76780571129E+00 -0.52476185599E+02  0.99055405758E+02  0.11209956731E+03  0.00000000000E+00 0. -1.
         22    1    3    3    0    0 -0.52072656958E+02  0.61329006581E+01 -0.14469716635E+02  0.54392524970E+02  0.00000000000E+00 0. -1.
</event>
<event>
 7    1  0.6089676E-006  0.3283014E+02  0.7818608E-02  0.1605566E+00
          2   -1    0    0  502    0  0.00000000000E+00  0.00000000000E+00  0.10520400080E+04  0.10520400080E+04  0.00000000000E+00 0. -1.
          1   -1    0    0  501    0 -0.00000000000E+00 -0.00000000000E+00 -0.26560254420E+03  0.26560254420E+03  0.00000000000E+00 0. -1.
         25    2    1    2    0    0  0.51120399638E+01 -0.26818782430E+02 -0.86124723355E+02  0.15423407305E+03  0.12500120509E+03 0.  0.
          2    1    1    2  501    0  0.21092517489E+02  0.26253028790E+02 -0.14330215517E+03  0.14720605793E+03  0.00000000000E+00 0. -1.
          1    1    1    2  502    0 -0.26204557453E+02  0.56575364000E+00  0.10158643423E+04  0.10162024212E+04  0.00000000000E+00 0. -1.
         22    1    3    3    0    0  0.25633096354E+02 -0.21130253848E+02 -0.11423577750E+03  0.11896787851E+03  0.00000000000E+00 0.  1.
         22    1    3    3    0    0 -0.20521056391E+02 -0.56885285820E+01  0.28111054141E+02  0.35266194545E+02  0.00000000000E+00 0.  1.
</event>
<event>
 7    1  0.6089676E-006  0.3952789E+02  0.7818608E-02  0.1514840E+00
          2   -1    0    0  502    0  0.00000000000E+00  0.00000000000E+00  0.24160827970E+03  0.24160827970E+03  0.00000000000E+00 0. -1.
          1   -1    0    0  501    0 -0.00000000000E+00 -0.00000000000E+00 -0.13894166117E+04  0.13894166117E+04  0.00000000000E+00 0. -1.
         25    2    1    2    0    0 -0.12871106154E+02  0.23889258121E+02  0.84005443052E+02  0.15303127276E+03  0.12500117581E+03 0.  0.
          2    1    1    2  501    0 -0.28435928871E+02 -0.27456359730E+02 -0.13511150958E+04  0.13516931811E+04  0.00000000000E+00 0. -1.
          1    1    1    2  502    0  0.41307035025E+02  0.35671016091E+01  0.11930132082E+03  0.12630043747E+03  0.00000000000E+00 0. -1.
         22    1    3    3    0    0  0.41342273297E+02  0.52054703056E+02  0.49374700213E+02  0.82805414635E+02  0.00000000000E+00 0.  1.
         22    1    3    3    0    0 -0.54213379452E+02 -0.28165444935E+02  0.34630742839E+02  0.70225858126E+02  0.00000000000E+00 0.  1.
</event>
<event>
 7    1  0.6089676E-006  0.1393292E+03  0.7818608E-02  0.1306149E+00
          2   -1    0    0  502    0  0.00000000000E+00  0.00000000000E+00  0.10133528315E+04  0.10133528315E+04  0.00000000000E+00 0. -1.
          1   -1    0    0  501    0 -0.00000000000E+00 -0.00000000000E+00 -0.34089323207E+03  0.34089323207E+03  0.00000000000E+00 0. -1.
         25    2    1    2    0    0  0.16689754671E+03  0.76432614631E+02  0.34336598690E+03  0.40892709426E+03  0.12499772710E+03 0.  0.
          2    1    1    2  501    0 -0.55853674480E+02 -0.78838859637E+01 -0.29876436702E+03  0.30404265426E+03  0.00000000000E+00 0. -1.
          1    1    1    2  502    0 -0.11104387223E+03 -0.68548728667E+02  0.62785797952E+03  0.64127631502E+03  0.00000000000E+00 0. -1.
         22    1    3    3    0    0  0.57777535033E+02 -0.95165300684E+00  0.23806735286E+02  0.62497278684E+02  0.00000000000E+00 0.  1.
         22    1    3    3    0    0  0.10912001168E+03  0.77384267638E+02  0.31955925161E+03  0.34642981557E+03  0.00000000000E+00 0.  1.
</event>
<event>
 7    1  0.6089676E-006  0.5042660E+02  0.7818608E-02  0.1474715E+00
          2   -1    0    0  502    0  0.00000000000E+00  0.00000000000E+00  0.20905081853E+03  0.20905081853E+03  0.00000000000E+00 0. -1.
          1   -1    0    0  501    0 -0.00000000000E+00 -0.00000000000E+00 -0.49781831562E+03  0.49781831562E+03  0.00000000000E+00 0. -1.
         25    2    1    2    0    0  0.78719372040E+01 -0.18059400889E+02 -0.51548687195E+02  0.13664025545E+03  0.12500073160E+03 0.  0.
          2    1    1    2  501    0 -0.25569103484E+02 -0.30826856742E+02 -0.39863726981E+03  0.40064416511E+03  0.00000000000E+00 0. -1.
          1    1    1    2  502    0  0.17697166280E+02  0.48886257630E+02  0.16141845992E+03  0.16958471359E+03  0.00000000000E+00 0. -1.
         22    1    3    3    0    0  0.18888622383E+01 -0.27660901796E+02 -0.91244520217E+02  0.95363807382E+02  0.00000000000E+00 0.  1.
         22    1    3    3    0    0  0.59830749657E+01  0.96015009074E+01  0.39695833022E+02  0.41276448067E+02  0.00000000000E+00 0.  1.
</event>
<event>
 7    1  0.6089676E-006  0.3928416E+02  0.7818608E-02  0.1569300E+00
          2   -1    0    0  502    0  0.00000000000E+00  0.00000000000E+00  0.26735352141E+03  0.26735352141E+03  0.00000000000E+00 0. -1.
          1   -1    0    0  501    0 -0.00000000000E+00 -0.00000000000E+00 -0.39686385702E+03  0.39686385702E+03  0.00000000000E+00 0. -1.
         25    2    1    2    0    0  0.23648827342E+01  0.45759480038E+02  0.82666737415E+01  0.13339748861E+03  0.12500811729E+03 0.  0.
          2    1    1    2  501    0 -0.24970270541E+02 -0.30375438780E+02 -0.33218206346E+03  0.33450127799E+03  0.00000000000E+00 0. -1.
          1    1    1    2  502    0  0.22605387806E+02 -0.15384041258E+02  0.19440505411E+03  0.19631861182E+03  0.00000000000E+00 0. -1.
         22    1    3    3    0    0  0.14217780234E+02 -0.41690740562E+02  0.98379519630E+01  0.45133672820E+02  0.00000000000E+00 0. -1.
         22    1    3    3    0    0 -0.11852897499E+02  0.87450220600E+02 -0.15712782215E+01  0.88263815788E+02  0.00000000000E+00 0. -1.
</event>
<event>
 7    1  0.6089676E-006  0.1454596E+03  0.7818608E-02  0.1235318E+00
          2   -1    0    0  502    0  0.00000000000E+00  0.00000000000E+00  0.13091192200E+04  0.13091192200E+04  0.00000000000E+00 0. -1.
          1   -1    0    0  501    0 -0.00000000000E+00 -0.00000000000E+00 -0.67057553119E+03  0.67057553119E+03  0.00000000000E+00 0. -1.
         25    2    1    2    0    0  0.24933664924E+03 -0.13860060905E+02  0.57947355239E+03  0.64325340609E+03  0.12499792232E+03 0.  0.
          2    1    1    2  501    0 -0.14246515548E+03  0.21506337169E+02 -0.62634472971E+03  0.64270254667E+03  0.00000000000E+00 0. -1.
          1    1    1    2  502    0 -0.10687149376E+03 -0.76462762645E+01  0.68541486610E+03  0.69373879839E+03  0.00000000000E+00 0. -1.
         22    1    3    3    0    0  0.15026344108E+03  0.51387085878E+01  0.47413123539E+03  0.49739917211E+03  0.00000000000E+00 0. -1.
         22    1    3    3    0    0  0.99073208156E+02 -0.18998769492E+02  0.10534231700E+03  0.14585423397E+03  0.00000000000E+00 0. -1.
</event>
<event>
 7    1  0.6089676E-006  0.6978720E+02  0.7818608E-02  0.1386343E+00
          2   -1    0    0  502    0  0.00000000000E+00  0.00000000000E+00  0.85627033593E+03  0.85627033593E+03  0.00000000000E+00 0. -1.
          1   -1    0    0  501    0 -0.00000000000E+00 -0.00000000000E+00 -0.92568229974E+02  0.92568229974E+02  0.00000000000E+00 0. -1.
         25    2    1    2    0    0  0.87650874999E+02  0.87689208696E+02  0.42689760267E+03  0.46177989806E+03  0.12500815127E+03 0.  0.
          2    1    1    2  501    0 -0.51572708350E+02 -0.44132472011E+02 -0.57353109580E+02  0.88863932565E+02  0.00000000000E+00 0. -1.
          1    1    1    2  502    0 -0.36078166648E+02 -0.43556736684E+02  0.39415761287E+03  0.39819473528E+03  0.00000000000E+00 0. -1.
         22    1    3    3    0    0  0.23310599490E+02 -0.30815627714E+02  0.13152138048E+03  0.13707975957E+03  0.00000000000E+00 0. -1.
         22    1    3    3    0    0  0.64340275509E+02  0.11850483641E+03  0.29537622218E+03  0.32470013849E+03  0.00000000000E+00 0. -1.
</event>
<event>
 7    1  0.6089676E-006  0.1059760E+03  0.7818608E-02  0.1431375E+00
          2   -1    0    0  502    0  0.00000000000E+00  0.00000000000E+00  0.17149021629E+04  0.17149021629E+04  0.00000000000E+00 0. -1.
          1   -1    0    0  501    0 -0.00000000000E+00 -0.00000000000E+00 -0.25246335826E+03  0.25246335826E+03  0.00000000000E+00 0. -1.
         25    2    1    2    0    0  0.63847070539E+02  0.90176025820E+02  0.26673880796E+03  0.31462006916E+03  0.12501212821E+03 0.  0.
          2    1    1    2  501    0  0.16019981302E+02 -0.20721432717E+02 -0.22579821646E+03  0.22731223489E+03  0.00000000000E+00 0. -1.
          1    1    1    2  502    0 -0.79867051840E+02 -0.69454593103E+02  0.14214982131E+04  0.14254332171E+04  0.00000000000E+00 0. -1.
         22    1    3    3    0    0  0.52651585974E+02  0.71796135100E+02  0.61389121234E+02  0.10814572912E+03  0.00000000000E+00 0. -1.
         22    1    3    3    0    0  0.11195484565E+02  0.18379890720E+02  0.20534968673E+03  0.20647434004E+03  0.00000000000E+00 0. -1.
</event>
<event>
 7    1  0.6089676E-006  0.1036743E+03  0.7818608E-02  0.1338098E+00
          2   -1    0    0  502    0  0.00000000000E+00  0.00000000000E+00  0.31251595884E+03  0.31251595884E+03  0.00000000000E+00 0. -1.
          1   -1    0    0  501    0 -0.00000000000E+00 -0.00000000000E+00 -0.34251061386E+03  0.34251061386E+03  0.00000000000E+00 0. -1.
         25    2    1    2    0    0  0.61547153663E+02  0.11358823210E+03  0.75311578105E+02  0.19490767107E+03  0.12500731119E+03 0.  0.
          2    1    1    2  501    0  0.18463330758E+02 -0.53963448668E+02 -0.26540822639E+03  0.27146726324E+03  0.00000000000E+00 0. -1.
          1    1    1    2  502    0 -0.80010484421E+02 -0.59624783432E+02  0.16010199327E+03  0.18865163839E+03  0.00000000000E+00 0. -1.
         22    1    3    3    0    0  0.54541967023E+02  0.46183527265E+02 -0.23374483792E+02  0.75193821887E+02  0.00000000000E+00 0.  1.
         22    1    3    3    0    0  0.70051866394E+01  0.67404704835E+02  0.98686061897E+02  0.11971384918E+03  0.00000000000E+00 0.  1.
</event>
<event>
 7    1  0.6089676E-006  0.9469532E+02  0.7818608E-02  0.1314021E+00
          2   -1    0    0  502    0  0.00000000000E+00  0.00000000000E+00  0.56312916314E+02  0.56312916314E+02  0.00000000000E+00 0. -1.
          1   -1    0    0  501    0 -0.00000000000E+00 -0.00000000000E+00 -0.12635445296E+04  0.12635445296E+04  0.00000000000E+00 0. -1.
         25    2    1    2    0    0 -0.95338738607E+01 -0.28391999465E+02 -0.25012299264E+03  0.28121706833E+03  0.12499811073E+03 0.  0.
          2    1    1    2  501    0  0.29490499838E+02  0.10304386276E+03 -0.95535363019E+03  0.96134712042E+03  0.00000000000E+00 0. -1.
          1    1    1    2  502    0 -0.19956625977E+02 -0.74651863292E+02 -0.17549904679E+01  0.77293257176E+02  0.00000000000E+00 0. -1.
         22    1    3    3    0    0 -0.67446031008E+02 -0.15098261831E+02 -0.13363260628E+03  0.15044799125E+03  0.00000000000E+00 0. -1.
         22    1    3    3    0    0  0.57912157147E+02 -0.13293737633E+02 -0.11649038636E+03  0.13076907708E+03  0.00000000000E+00 0. -1.
</event>
<event>
 7    1  0.6089676E-006  0.8736826E+02  0.7818608E-02  0.1341600E+00
          2   -1    0    0  502    0  0.00000000000E+00  0.00000000000E+00  0.17253339237E+04  0.17253339237E+04  0.00000000000E+00 0. -1.
          1   -1    0    0  501    0 -0.00000000000E+00 -0.00000000000E+00 -0.84116422190E+03  0.84116422190E+03  0.00000000000E+00 0. -1.
         25    2    1    2    0    0  0.45525335090E+02  0.92789243298E+02  0.68941980800E+02  0.17623880879E+03  0.12499888480E+03 0.  0.
          2    1    1    2  501    0  0.19697593854E+02 -0.85256013441E+02 -0.78440968660E+03  0.78927507211E+03  0.00000000000E+00 0. -1.
          1    1    1    2  502    0 -0.65222928943E+02 -0.75332298562E+01  0.15996374076E+04  0.16009842647E+04  0.00000000000E+00 0. -1.
         22    1    3    3    0    0  0.83531115423E+02  0.36655583957E+02  0.22157408840E+02  0.93872412591E+02  0.00000000000E+00 0.  1.
         22    1    3    3    0    0 -0.38005780334E+02  0.56133659341E+02  0.46784571960E+02  0.82366396201E+02  0.00000000000E+00 0.  1.
</event>
<event>
 7    1  0.6089676E-006  0.7352205E+02  0.7818608E-02  0.1455693E+00
          2   -1    0    0  502    0  0.00000000000E+00  0.00000000000E+00  0.83454383225E+03  0.83454383225E+03  0.00000000000E+00 0. -1.
          1   -1    0    0  501    0 -0.00000000000E+00 -0.00000000000E+00 -0.92219208548E+03  0.92219208548E+03  0.00000000000E+00 0. -1.
         25    2    1    2    0    0 -0.28353437707E+02 -0.66312786762E+02  0.12694584185E+03  0.19220735036E+03  0.12500846231E+03 0.  0.
          2    1    1    2  501    0 -0.23094011242E+01  0.73562842259E+02 -0.88766982674E+03  0.89071574950E+03  0.00000000000E+00 0. -1.
          1    1    1    2  502    0  0.30662838831E+02 -0.72500554971E+01  0.67307573165E+03  0.67381281787E+03  0.00000000000E+00 0. -1.
         22    1    3    3    0    0 -0.66375075049E+02 -0.77710271233E+02  0.74675284430E+02  0.12657383200E+03  0.00000000000E+00 0.  1.
         22    1    3    3    0    0  0.38021637342E+02  0.11397484471E+02  0.52270557423E+02  0.65633518356E+02  0.00000000000E+00 0.  1.
</event>
<event>
 7    1  0.6089676E-006  0.8620691E+02  0.7818608E-02  0.1339963E+00
          2   -1    0    0  502    0  0.00000000000E+00  0.00000000000E+00  0.39432200828E+03  0.39432200828E+03  0.00000000000E+00 0. -1.
          1   -1    0    0  501    0 -0.00000000000E+00 -0.00000000000E+00 -0.28010008993E+04  0.28010008993E+04  0.00000000000E+00 0. -1.
         25    2    1    2    0    0  0.10647250677E+03 -0.10872947360E+03 -0.29168306831E+03  0.35194192590E+03  0.12500245494E+03 0.  0.
          2    1    1    2  501    0 -0.42637233678E+02  0.52316302043E+02 -0.24737400219E+04  0.24746605070E+04  0.00000000000E+00 0. -1.
          1    1    1    2  502    0 -0.63835273096E+02  0.56413171553E+02  0.35874419915E+03  0.36872047467E+03  0.00000000000E+00 0. -1.
         22    1    3    3    0    0  0.64694084424E+01  0.15421113405E+02  0.29158843540E+01  0.16975463640E+02  0.00000000000E+00 0.  1.
         22    1    3    3    0    0  0.10000309833E+03 -0.12415058700E+03 -0.29459895266E+03  0.33496646226E+03  0.00000000000E+00 0.  1.
</event>
<event>
 7    1  0.6089676E-006  0.5471882E+02  0.7818608E-02  0.1482658E+00
          2   -1    0    0  502    0  0.00000000000E+00  0.00000000000E+00  0.11277076595E+03  0.11277076595E+03  0.00000000000E+00 0. -1.
          1   -1    0    0  501    0 -0.00000000000E+00 -0.00000000000E+00 -0.11302895115E+04  0.11302895115E+04  0.00000000000E+00 0. -1.
         25    2    1    2    0    0  0.31004714729E+02 -0.60171132488E+02 -0.44838653799E+02  0.14905455125E+03  0.12499958742E+03 0.  0.
          2    1    1    2  501    0 -0.34347731568E+02  0.61373115424E+01 -0.10209068754E+04  0.10215029522E+04  0.00000000000E+00 0. -1.
          1    1    1    2  502    0  0.33430168387E+01  0.54033820945E+02  0.48226783637E+02  0.72502773930E+02  0.00000000000E+00 0. -1.
         22    1    3    3    0    0  0.59251453475E+02 -0.12273908136E+02 -0.66016725516E+02  0.89552172546E+02  0.00000000000E+00 0. -1.
         22    1    3    3    0    0 -0.28246738746E+02 -0.47897224351E+02  0.21178071717E+02  0.59502378708E+02  0.00000000000E+00 0. -1.
</event>
<event>
 7    1  0.6089676E-006  0.8439274E+02  0.7818608E-02  0.1332446E+00
          2   -1    0    0  502    0  0.00000000000E+00  0.00000000000E+00  0.35590937454E+03  0.35590937454E+03  0.00000000000E+00 0. -1.
          1   -1    0    0  501    0 -0.00000000000E+00 -0.00000000000E+00 -0.18413469827E+04  0.18413469827E+04  0.00000000000E+00 0. -1.
         25    2    1    2    0    0 -0.12933519839E+03  0.60146163845E+02  0.36513755009E+01  0.18969287735E+03  0.12499960242E+03 0.  0.
          2    1    1    2  501    0  0.83874571568E+02 -0.22551431981E+01 -0.17420711094E+04  0.17440905308E+04  0.00000000000E+00 0. -1.
          1    1    1    2  502    0  0.45460626825E+02 -0.57891020647E+02  0.25298212583E+03  0.26347294900E+03  0.00000000000E+00 0. -1.
         22    1    3    3    0    0  0.19471617100E+02  0.10146754715E+02  0.22673433280E+02  0.31562399789E+02  0.00000000000E+00 0. -1.
         22    1    3    3    0    0 -0.14880681549E+03  0.49999409130E+02 -0.19022057779E+02  0.15813047756E+03  0.00000000000E+00 0. -1.
</event>
<event>
 7    1  0.6089676E-006  0.3676297E+02  0.7818608E-02  0.1575294E+00
          2   -1    0    0  502    0  0.00000000000E+00  0.00000000000E+00  0.14221638676E+04  0.14221638676E+04  0.00000000000E+00 0. -1.
          1   -1    0    0  501    0 -0.00000000000E+00 -0.00000000000E+00 -0.12040670936E+04  0.12040670936E+04  0.00000000000E+00 0. -1.
         25    2    1    2    0    0 -0.63828219208E+02  0.23970373081E+01 -0.14742917978E+03  0.20356635386E+03  0.12499644002E+03 0.  0.
          2    1    1    2  501    0  0.35933584498E+02 -0.61566184293E+01 -0.10281041254E+04  0.10287503192E+04  0.00000000000E+00 0. -1.
          1    1    1    2  502    0  0.27894634709E+02  0.37595811212E+01  0.13936300793E+04  0.13939142882E+04  0.00000000000E+00 0. -1.
         22    1    3    3    0    0 -0.86444768148E+00 -0.42415226105E+02 -0.10959545494E+03  0.11752005113E+03  0.00000000000E+00 0. -1.
         22    1    3    3    0    0 -0.62963771526E+02  0.44812263413E+02 -0.37833724842E+02  0.86046302724E+02  0.00000000000E+00 0. -1.
</event>
<event>
 7    1  0.6089676E-006  0.6586724E+02  0.7818608E-02  0.1417726E+00
          2   -1    0    0  502    0  0.00000000000E+00  0.00000000000E+00  0.12600663020E+04  0.12600663020E+04  0.00000000000E+00 0. -1.
          1   -1    0    0  501    0 -0.00000000000E+00 -0.00000000000E+00 -0.17779704390E+03  0.17779704390E+03  0.00000000000E+00 0. -1.
         25    2    1    2    0    0  0.49578834005E+02  0.77264242369E+02  0.49648094102E+03  0.52014108603E+03  0.12500240259E+03 0.  0.
          2    1    1    2  501    0 -0.44791260904E+02 -0.13470508741E+02 -0.16127715590E+03  0.16792269851E+03  0.00000000000E+00 0. -1.
          1    1    1    2  502    0 -0.47875731004E+01 -0.63793733628E+02  0.74706547294E+03  0.74979956133E+03  0.00000000000E+00 0. -1.
         22    1    3    3    0    0  0.78902160741E+02  0.16866932425E+02  0.19052780343E+03  0.20690792218E+03  0.00000000000E+00 0.  1.
         22    1    3    3    0    0 -0.29323326737E+02  0.60397309944E+02  0.30595313759E+03  0.31323316386E+03  0.00000000000E+00 0.  1.
</event>
<event>
 7    1  0.6089676E-006  0.8171984E+02  0.7818608E-02  0.1478094E+00
          2   -1    0    0  502    0  0.00000000000E+00  0.00000000000E+00  0.36157818839E+03  0.36157818839E+03  0.00000000000E+00 0. -1.
          1   -1    0    0  501    0 -0.00000000000E+00 -0.00000000000E+00 -0.56338286288E+03  0.56338286288E+03  0.00000000000E+00 0. -1.
         25    2    1    2    0    0  0.43647749594E+02  0.39515843258E+02  0.81143943424E+02  0.16024057256E+03  0.12500429444E+03 0.  0.
          2    1    1    2  501    0 -0.65311434405E+02 -0.50139413886E+02 -0.51998278580E+03  0.52646143431E+03  0.00000000000E+00 0. -1.
          1    1    1    2  502    0  0.21663684811E+02  0.10623570627E+02  0.23703416789E+03  0.23825904440E+03  0.00000000000E+00 0. -1.
         22    1    3    3    0    0  0.85565010646E+02  0.40713749504E+02  0.45092409864E+02  0.10493953437E+03  0.00000000000E+00 0.  1.
         22    1    3    3    0    0 -0.41917261052E+02 -0.11979062453E+01  0.36051533560E+02  0.55301038195E+02  0.00000000000E+00 0.  1.
</event>
<event>
 7    1  0.6089676E-006  0.1982150E+03  0.7818608E-02  0.1220966E+00
          2   -1    0    0  502    0  0.00000000000E+00  0.00000000000E+00  0.17480074932E+04  0.17480074932E+04  0.00000000000E+00 0. -1.
          1   -1    0    0  501    0 -0.00000000000E+00 -0.00000000000E+00 -0.10784169263E+03  0.10784169263E+03  0.00000000000E+00 0. -1.
         25    2    1    2    0    0 -0.14180364989E+03  0.21152371752E+02  0.10577198149E+04  0.10746855445E+04  0.12498845891E+03 0.  0.
          2    1    1    2  501    0  0.19868315304E+03  0.50174032415E+02  0.13950644006E+02  0.20539486191E+03  0.00000000000E+00 0. -1.
          1    1    1    2  502    0 -0.56879503150E+02 -0.71326404168E+02  0.56849534174E+03  0.57576877945E+03  0.00000000000E+00 0. -1.
         22    1    3    3    0    0 -0.47653130977E+01  0.44874350106E+02  0.15943669995E+03  0.16569996016E+03  0.00000000000E+00 0.  1.
         22    1    3    3    0    0 -0.13703833679E+03 -0.23721978354E+02  0.89828311490E+03  0.90898558434E+03  0.00000000000E+00 0.  1.
</event>
<event>
 7    1  0.6089676E-006  0.3926377E+02  0.7818608E-02  0.1576827E+00
          2   -1    0    0  502    0  0.00000000000E+00  0.00000000000E+00  0.19217725045E+04  0.19217725045E+04  0.00000000000E+00 0. -1.
          1   -1    0    0  501    0 -0.00000000000E+00 -0.00000000000E+00 -0.79041527094E+03  0.79041527094E+03  0.00000000000E+00 0. -1.
         25    2    1    2    0    0 -0.14284087933E+02 -0.52593514682E+00  0.15919890557E+03  0.20291626744E+03  0.12500563300E+03 0.  0.
          2    1    1    2  501    0 -0.23244132684E+02 -0.11880919000E+02 -0.76811045665E+03  0.76855391454E+03  0.00000000000E+00 0. -1.
          1    1    1    2  502    0  0.37528220617E+02  0.12406854147E+02  0.17402687846E+04  0.17407175934E+04  0.00000000000E+00 0. -1.
         22    1    3    3    0    0  0.70968534988E+01  0.59344762646E+02  0.57208588771E+02  0.82734447555E+02  0.00000000000E+00 0.  1.
         22    1    3    3    0    0 -0.21380941432E+02 -0.59870697793E+02  0.10199031680E+03  0.12018181989E+03  0.00000000000E+00 0.  1.
</event>
<event>
 7    1  0.6089676E-006  0.5601487E+02  0.7818608E-02  0.1473171E+00
          2   -1    0    0  502    0  0.00000000000E+00  0.00000000000E+00  0.51659277289E+02  0.51659277289E+02  0.00000000000E+00 0. -1.
          1   -1    0    0  501    0 -0.00000000000E+00 -0.00000000000E+00 -0.88277105072E+03  0.88277105072E+03  0.00000000000E+00 0. -1.
         25    2    1    2    0    0  0.48091965990E+02 -0.99977127507E+01 -0.63762606641E+03  0.65161698517E+03  0.12499961335E+03 0.  0.
          2    1    1    2  501    0 -0.44493996800E+02  0.46273613328E+02 -0.22540003250E+03  0.23436326012E+03  0.00000000000E+00 0. -1.
          1    1    1    2  502    0 -0.35979691895E+01 -0.36275900577E+02  0.31914325482E+02  0.48450082724E+02  0.00000000000E+00 0. -1.
         22    1    3    3    0    0 -0.22769852026E+02 -0.35221782162E+02 -0.95581026121E+02  0.10437802764E+03  0.00000000000E+00 0. -1.
         22    1    3    3    0    0  0.70861818016E+02  0.25224069411E+02 -0.54204504029E+03  0.54723895753E+03  0.00000000000E+00 0. -1.
</event>
<event>
 7    1  0.1007263E-005  0.5668152E+02  0.7818608E-02  0.1507667E+00
          2   -1    0    0  502    0  0.00000000000E+00  0.00000000000E+00  0.23362746851E+04  0.23362746851E+04  0.00000000000E+00 0. -1.
          1   -1    0    0  501    0 -0.00000000000E+00 -0.00000000000E+00 -0.12053424110E+04  0.12053424110E+04  0.00000000000E+00 0. -1.
         25    2    1    2    0    0  0.14379037028E+02 -0.30817450596E+02 -0.37302140372E+03  0.39487667402E+03  0.12500459224E+03 0.  0.
          2    1    1    2  501    0 -0.11660811540E+02 -0.25821574947E+02 -0.82080322697E+03  0.82129207086E+03  0.00000000000E+00 0. -1.
          1    1    1    2  502    0 -0.27182254884E+01  0.56639025543E+02  0.23247569047E+04  0.23254483512E+04  0.00000000000E+00 0. -1.
         22    1    3    3    0    0  0.58069615236E+02  0.17083876476E+02 -0.23025851515E+03  0.23808175665E+03  0.00000000000E+00 0.  1.
         22    1    3    3    0    0 -0.43690578208E+02 -0.47901327072E+02 -0.14276288857E+03  0.15679491737E+03  0.00000000000E+00 0.  1.
</event>
<event>
 7    1  0.6089676E-006  0.6003993E+02  0.7818608E-02  0.1436375E+00
          2   -1    0    0  502    0  0.00000000000E+00  0.00000000000E+00  0.97844503258E+01  0.97844503258E+01  0.00000000000E+00 0. -1.
          1   -1    0    0  501    0 -0.00000000000E+00 -0.00000000000E+00 -0.34269905897E+04  0.34269905897E+04  0.00000000000E+00 0. -1.
         25    2    1    2    0    0  0.18327962323E+02 -0.31345379184E+02 -0.10199077238E+04  0.10281805681E+04  0.12500027435E+03 0.  0.
          2    1    1    2  501    0 -0.28697289251E+02 -0.34037863701E+02 -0.22006842677E+04  0.22011345612E+04  0.00000000000E+00 0. -1.
          1    1    1    2  502    0  0.10369326928E+02  0.65383242885E+02 -0.19661414787E+03  0.20745991067E+03  0.00000000000E+00 0. -1.
         22    1    3    3    0    0 -0.11676507717E+02 -0.70764646600E+02 -0.40675008162E+03  0.41302494469E+03  0.00000000000E+00 0.  1.
         22    1    3    3    0    0  0.30004470040E+02  0.39419267416E+02 -0.61315764219E+03  0.61515562343E+03  0.00000000000E+00 0.  1.
</event>
<event>
 7    1  0.8706338E-006  0.7410994E+02  0.7818608E-02  0.1350958E+00
          2   -1    0    0  502    0  0.00000000000E+00  0.00000000000E+00  0.23047976786E+04  0.23047976786E+04  0.00000000000E+00 0. -1.
          1   -1    0    0  501    0 -0.00000000000E+00 -0.00000000000E+00 -0.22112953526E+04  0.22112953526E+04  0.00000000000E+00 0. -1.
         25    2    1    2    0    0  0.13753408560E+02 -0.25719028619E+02 -0.30218177302E+03  0.32831083634E+03  0.12499422640E+03 0.  0.
          2    1    1    2  501    0  0.48252122304E+02  0.61181687003E+02 -0.18946914796E+04  0.18962930335E+04  0.00000000000E+00 0. -1.
          1    1    1    2  502    0 -0.62005530864E+02 -0.35462658384E+02  0.22903755786E+04  0.22914891614E+04  0.00000000000E+00 0. -1.
         22    1    3    3    0    0  0.31825309324E+02  0.30936911206E+02 -0.40927885090E+02  0.60374121662E+02  0.00000000000E+00 0.  1.
         22    1    3    3    0    0 -0.18071900764E+02 -0.56655939825E+02 -0.26125388793E+03  0.26793671468E+03  0.00000000000E+00 0.  1.
</event>
<event>
 7    1  0.6089676E-006  0.2955594E+02  0.7818608E-02  0.1603825E+00
          2   -1    0    0  502    0  0.00000000000E+00  0.00000000000E+00  0.79898555857E+03  0.79898555857E+03  0.00000000000E+00 0. -1.
          1   -1    0    0  501    0 -0.00000000000E+00 -0.00000000000E+00 -0.20822607662E+02  0.20822607662E+02  0.00000000000E+00 0. -1.
         25    2    1    2    0    0 -0.27982175245E+02 -0.28278331970E+02  0.40342675793E+03  0.42421796453E+03  0.12500026492E+03 0.  0.
          2    1    1    2  501    0  0.29637980662E+02 -0.10941059991E+01  0.12538492978E+02  0.32199701425E+02  0.00000000000E+00 0. -1.
          1    1    1    2  502    0 -0.16558054177E+01  0.29372437969E+02  0.36219770000E+03  0.36339050028E+03  0.00000000000E+00 0. -1.
         22    1    3    3    0    0 -0.91068496709E+01 -0.32359516196E+02  0.40350840554E+03  0.40490629328E+03  0.00000000000E+00 0.  1.
         22    1    3    3    0    0 -0.18875325574E+02  0.40811842254E+01 -0.81647608560E-01  0.19311671252E+02  0.00000000000E+00 0.  1.
</event>
<event>
 7    1  0.6089676E-006  0.4274536E+02  0.7818608E-02  0.1498560E+00
          2   -1    0    0  502    0  0.00000000000E+00  0.00000000000E+00  0.52792234590E+02  0.52792234590E+02  0.00000000000E+00 0. -1.
          1   -1    0    0  501    0 -0.00000000000E+00 -0.00000000000E+00 -0.17907536138E+04  0.17907536138E+04  0.00000000000E+00 0. -1.
         25    2    1    2    0    0  0.29757151240E+02  0.60662256525E+02 -0.16740937236E+03  0.21959422307E+03  0.12502130793E+03 0.  0.
          2    1    1    2  501    0 -0.34908557045E+02 -0.19499008497E+02 -0.15807310762E+04  0.15812367166E+04  0.00000000000E+00 0. -1.
          1    1    1    2  502    0  0.51514058051E+01 -0.41163248028E+02  0.10179069382E+02  0.42714908679E+02  0.00000000000E+00 0. -1.
         22    1    3    3    0    0  0.69863961394E+02  0.69444338223E+02 -0.98003027203E+02  0.13895352660E+03  0.00000000000E+00 0.  1.
         22    1    3    3    0    0 -0.40106810154E+02 -0.87820816980E+01 -0.69406345154E+02  0.80640696471E+02  0.00000000000E+00 0.  1.
</event>
<event>
 7    1  0.6089676E-006  0.6138168E+02  0.7818608E-02  0.1511412E+00
          2   -1    0    0  502    0  0.00000000000E+00  0.00000000000E+00  0.13747620549E+04  0.13747620549E+04  0.00000000000E+00 0. -1.
          1   -1    0    0  501    0 -0.00000000000E+00 -0.00000000000E+00 -0.19151536169E+03  0.19151536169E+03  0.00000000000E+00 0. -1.
         25    2    1    2    0    0 -0.22708349565E+02  0.39848692275E+02  0.61453793307E+02  0.14664410012E+03  0.12499734386E+03 0.  0.
          2    1    1    2  501    0  0.96944023011E+01 -0.61785868357E+02 -0.14221947131E+03  0.15536361538E+03  0.00000000000E+00 0. -1.
          1    1    1    2  502    0  0.13013947264E+02  0.21937176082E+02  0.12640123712E+04  0.12642697011E+04  0.00000000000E+00 0. -1.
         22    1    3    3    0    0 -0.55861756980E+02  0.20933347165E+02  0.83457595190E+02  0.10258611559E+03  0.00000000000E+00 0.  1.
         22    1    3    3    0    0  0.33153407415E+02  0.18915345110E+02 -0.22003801883E+02  0.44057984533E+02  0.00000000000E+00 0.  1.
</event>
<event>
 7    1  0.6089676E-006  0.5837394E+02  0.7818608E-02  0.1417665E+00
          2   -1    0    0  502    0  0.00000000000E+00  0.00000000000E+00  0.13241510641E+03  0.13241510641E+03  0.00000000000E+00 0. -1.
          1   -1    0    0  501    0 -0.00000000000E+00 -0.00000000000E+00 -0.24852463633E+03  0.24852463633E+03  0.00000000000E+00 0. -1.
         25    2    1    2    0    0 -0.53123015762E+02  0.66390595816E+02 -0.10279390849E+03  0.18281553287E+03  0.12500066168E+03 0.  0.
          2    1    1    2  501    0  0.14065469795E+01 -0.55740895672E+02 -0.89489716487E+02  0.10543924877E+03  0.00000000000E+00 0. -1.
          1    1    1    2  502    0  0.51716468782E+02 -0.10649700144E+02  0.76174095061E+02  0.92684961104E+02  0.00000000000E+00 0. -1.
         22    1    3    3    0    0  0.28350367778E+02  0.43930219309E+02 -0.79499500291E+02  0.95151342966E+02  0.00000000000E+00 0.  1.
         22    1    3    3    0    0 -0.81473383539E+02  0.22460376507E+02 -0.23294408198E+02  0.87664189904E+02  0.00000000000E+00 0.  1.
</event>
<event>
 7    1  0.6089676E-006  0.9421648E+02  0.7818608E-02  0.1334920E+00
          2   -1    0    0  502    0  0.00000000000E+00  0.00000000000E+00  0.10044613390E+04  0.10044613390E+04  0.00000000000E+00 0. -1.
          1   -1    0    0  501    0 -0.00000000000E+00 -0.00000000000E+00 -0.19436353388E+04  0.19436353388E+04  0.00000000000E+00 0. -1.
         25    2    1    2    0    0  0.14472907228E+03 -0.41405851608E+01 -0.13991068438E+03  0.23698880764E+03  0.12500018615E+03 0.  0.
          2    1    1    2  501    0 -0.88804593725E+02 -0.28037119014E+02 -0.17528594441E+04  0.17553314692E+04  0.00000000000E+00 0. -1.
          1    1    1    2  502    0 -0.55924478551E+02  0.32177704175E+02  0.95359612868E+03  0.95577640093E+03  0.00000000000E+00 0. -1.
         22    1    3    3    0    0  0.36027642697E+02 -0.43959513567E+02 -0.99097816781E+02  0.11424012939E+03  0.00000000000E+00 0.  1.
         22    1    3    3    0    0  0.10870142958E+03  0.39818928407E+02 -0.40812867596E+02  0.12274867826E+03  0.00000000000E+00 0.  1.
</event>
<event>
 7    1  0.6089676E-006  0.9333676E+02  0.7818608E-02  0.1394641E+00
          2   -1    0    0  502    0  0.00000000000E+00  0.00000000000E+00  0.21868642840E+04  0.21868642840E+04  0.00000000000E+00 0. -1.
          1   -1    0    0  501    0 -0.00000000000E+00 -0.00000000000E+00 -0.42614445047E+03  0.42614445047E+03  0.00000000000E+00 0. -1.
         25    2    1    2    0    0 -0.27155787305E+02  0.47112884208E+02 -0.31398250568E+03  0.34229635574E+03  0.12499888255E+03 0.  0.
          2    1    1    2  501    0 -0.12337915405E+02  0.37589208139E+02 -0.92964133473E+02  0.10103218714E+03  0.00000000000E+00 0. -1.
          1    1    1    2  502    0  0.39493702711E+02 -0.84702092347E+02  0.21676664727E+04  0.21696801916E+04  0.00000000000E+00 0. -1.
         22    1    3    3    0    0 -0.64999803015E+02 -0.87210989878E+00 -0.96217088613E+02  0.11611831513E+03  0.00000000000E+00 0.  1.
         22    1    3    3    0    0  0.37844015710E+02  0.47984994107E+02 -0.21776541707E+03  0.22617804061E+03  0.00000000000E+00 0.  1.
</event>
<event>
 7    1  0.6089676E-006  0.4511539E+03  0.7818608E-02  0.1046098E+00
          2   -1    0    0  502    0  0.00000000000E+00  0.00000000000E+00  0.97734105100E+03  0.97734105100E+03  0.00000000000E+00 0. -1.
          1   -1    0    0  501    0 -0.00000000000E+00 -0.00000000000E+00 -0.11569076543E+04  0.11569076543E+04  0.00000000000E+00 0. -1.
         25    2    1    2    0    0 -0.11418962165E+03  0.35477806624E+03 -0.24523167941E+03  0.46332571230E+03  0.12500157244E+03 0.  0.
          2    1    1    2  501    0 -0.17262992038E+03 -0.54287897475E+03 -0.65785058951E+03  0.87022185031E+03  0.00000000000E+00 0. -1.
          1    1    1    2  502    0  0.28681954203E+03  0.18810090851E+03  0.72351566563E+03  0.80070114268E+03  0.00000000000E+00 0. -1.
         22    1    3    3    0    0  0.58546956296E+01 -0.84974924129E+01 -0.88694185062E+01  0.13607035785E+02  0.00000000000E+00 0.  1.
         22    1    3    3    0    0 -0.12004431728E+03  0.36327555865E+03 -0.23636226090E+03  0.44971867651E+03  0.00000000000E+00 0.  1.
</event>
<event>
 7    1  0.6089676E-006  0.1326548E+03  0.7818608E-02  0.1419551E+00
          2   -1    0    0  502    0  0.00000000000E+00  0.00000000000E+00  0.11399024560E+03  0.11399024560E+03  0.00000000000E+00 0. -1.
          1   -1    0    0  501    0 -0.00000000000E+00 -0.00000000000E+00 -0.47789172814E+03  0.47789172814E+03  0.00000000000E+00 0. -1.
         25    2    1    2    0    0 -0.48921283226E+01  0.12692095154E+03 -0.36309990933E+03  0.40447393973E+03  0.12499905160E+03 0.  0.
          2    1    1    2  501    0  0.93557295703E+01 -0.14938150724E+03 -0.27558008335E+02  0.15219003977E+03  0.00000000000E+00 0. -1.
          1    1    1    2  502    0 -0.44636012477E+01  0.22460555699E+02  0.26756435121E+02  0.35217994247E+02  0.00000000000E+00 0. -1.
         22    1    3    3    0    0 -0.31124214653E+02  0.25529139622E+02 -0.18484530717E+02  0.44295954481E+02  0.00000000000E+00 0. -1.
         22    1    3    3    0    0  0.26232086330E+02  0.10139181192E+03 -0.34461537861E+03  0.36017798525E+03  0.00000000000E+00 0. -1.
</event>
<event>
 7    1  0.6089676E-006  0.5570973E+02  0.7818608E-02  0.1455086E+00
          2   -1    0    0  502    0  0.00000000000E+00  0.00000000000E+00  0.16844638240E+04  0.16844638240E+04  0.00000000000E+00 0. -1.
          1   -1    0    0  501    0 -0.00000000000E+00 -0.00000000000E+00 -0.23019566949E+03  0.23019566949E+03  0.00000000000E+00 0. -1.
         25    2    1    2    0    0 -0.91576756981E+02 -0.18292030150E+02  0.11703510716E+03  0.19504625610E+03  0.12499969969E+03 0.  0.
          2    1    1    2  501    0  0.50014946041E+02  0.22435103588E+02 -0.18696900781E+03  0.19483900683E+03  0.00000000000E+00 0. -1.
          1    1    1    2  502    0  0.41561810939E+02 -0.41430734382E+01  0.15242020552E+04  0.15247742306E+04  0.00000000000E+00 0. -1.
         22    1    3    3    0    0 -0.11708214940E+03  0.46006060924E+01  0.68809380581E+02  0.13588276617E+03  0.00000000000E+00 0. -1.
         22    1    3    3    0    0  0.25505392422E+02 -0.22892636242E+02  0.48225726577E+02  0.59163489929E+02  0.00000000000E+00 0. -1.
</event>
<event>
 7    1  0.6089676E-006  0.3754253E+02  0.7818608E-02  0.1614310E+00
          2   -1    0    0  502    0  0.00000000000E+00  0.00000000000E+00  0.13687096454E+04  0.13687096454E+04  0.00000000000E+00 0. -1.
          1   -1    0    0  501    0 -0.00000000000E+00 -0.00000000000E+00 -0.56083127246E+02  0.56083127246E+02  0.00000000000E+00 0. -1.
         25    2    1    2    0    0 -0.29278478340E+02 -0.10058261281E+02  0.10575635411E+03  0.16662045912E+03  0.12497829031E+03 0.  0.
          2    1    1    2  501    0  0.23325265485E+02  0.30988690370E+02 -0.10836260193E+02  0.40271472232E+02  0.00000000000E+00 0. -1.
          1    1    1    2  502    0  0.59532128547E+01 -0.20930429089E+02  0.12177064243E+04  0.12179008413E+04  0.00000000000E+00 0. -1.
         22    1    3    3    0    0 -0.43084661020E+02  0.47789907454E+02  0.31966398079E+02  0.71847156352E+02  0.00000000000E+00 0.  1.
         22    1    3    3    0    0  0.13806182680E+02 -0.57848168735E+02  0.73789956031E+02  0.94773302767E+02  0.00000000000E+00 0.  1.
</event>
<event>
 7    1  0.6089676E-006  0.8800603E+02  0.7818608E-02  0.1399624E+00
          2   -1    0    0  502    0  0.00000000000E+00  0.00000000000E+00  0.50233947490E+03  0.50233947490E+03  0.00000000000E+00 0. -1.
          1   -1    0    0  501    0 -0.00000000000E+00 -0.00000000000E+00 -0.12105667447E+03  0.12105667447E+03  0.00000000000E+00 0. -1.
         25    2    1    2    0    0  0.61141194828E+02 -0.28901362831E+01  0.27902294451E+03  0.31180179099E+03  0.12497981719E+03 0.  0.
          2    1    1    2  501    0 -0.81932083410E+02  0.37446543849E+02 -0.82700436162E+02  0.12228847893E+03  0.00000000000E+00 0. -1.
          1    1    1    2  502    0  0.20790888582E+02 -0.34556407566E+02  0.18496029208E+03  0.18930587946E+03  0.00000000000E+00 0. -1.
         22    1    3    3    0    0 -0.83806419962E+01 -0.52714675103E+02  0.98160215851E+02  0.11173405975E+03  0.00000000000E+00 0. -1.
         22    1    3    3    0    0  0.69521836824E+02  0.49824538820E+02  0.18086272866E+03  0.20006773124E+03  0.00000000000E+00 0. -1.
</event>
<event>
 7    1  0.6089676E-006  0.1127267E+03  0.7818608E-02  0.1382831E+00
          2   -1    0    0  502    0  0.00000000000E+00  0.00000000000E+00  0.30309800244E+03  0.30309800244E+03  0.00000000000E+00 0. -1.
          1   -1    0    0  501    0 -0.00000000000E+00 -0.00000000000E+00 -0.84808221190E+02  0.84808221190E+02  0.00000000000E+00 0. -1.
         25    2    1    2    0    0 -0.78884743048E+02 -0.51563887424E+02  0.10727651239E+03  0.18977416971E+03  0.12499739279E+03 0.  0.
          2    1    1    2  501    0 -0.18924200560E+02 -0.30653616062E+02  0.19472365979E+02  0.40950489391E+02  0.00000000000E+00 0. -1.
          1    1    1    2  502    0  0.97808943608E+02  0.82217503487E+02  0.91540902876E+02  0.15718156453E+03  0.00000000000E+00 0. -1.
         22    1    3    3    0    0  0.21785121088E+02  0.16501101072E+02  0.46418908364E+02  0.53866435664E+02  0.00000000000E+00 0. -1.
         22    1    3    3    0    0 -0.10066986414E+03 -0.68064988496E+02  0.60857604029E+02  0.13590773404E+03  0.00000000000E+00 0. -1.
</event>
<event>
 7    1  0.8533895E-006  0.9561324E+02  0.7818608E-02  0.1314560E+00
          2   -1    0    0  502    0  0.00000000000E+00  0.00000000000E+00  0.89641768309E+03  0.89641768309E+03  0.00000000000E+00 0. -1.
          1   -1    0    0  501    0 -0.00000000000E+00 -0.00000000000E+00 -0.12689048640E+04  0.12689048640E+04  0.00000000000E+00 0. -1.
         25    2    1    2    0    0 -0.59075446623E+01  0.12895681950E+03 -0.20205671615E+03  0.27040171395E+03  0.12500163994E+03 0.  0.
          2    1    1    2  501    0  0.59001139610E+02 -0.74352958943E+02 -0.10288049002E+04  0.10331742446E+04  0.00000000000E+00 0. -1.
          1    1    1    2  502    0 -0.53093594948E+02 -0.54603860553E+02  0.85837443546E+03  0.86174658854E+03  0.00000000000E+00 0. -1.
         22    1    3    3    0    0  0.52188653963E+02  0.89157150515E+02 -0.15286604064E+03  0.18450116388E+03  0.00000000000E+00 0.  1.
         22    1    3    3    0    0 -0.58096198625E+02  0.39799668982E+02 -0.49190675509E+02  0.85900550072E+02  0.00000000000E+00 0.  1.
</event>
<event>
 7    1  0.6089676E-006  0.5280521E+02  0.7818608E-02  0.1466270E+00
          2   -1    0    0  502    0  0.00000000000E+00  0.00000000000E+00  0.83113591465E+03  0.83113591465E+03  0.00000000000E+00 0. -1.
          1   -1    0    0  501    0 -0.00000000000E+00 -0.00000000000E+00 -0.50057326479E+03  0.50057326479E+03  0.00000000000E+00 0. -1.
         25    2    1    2    0    0  0.19138328944E+02  0.42252898574E+02  0.14860216017E+03  0.19965243478E+03  0.12500763831E+03 0.  0.
          2    1    1    2  501    0  0.20983792580E+02 -0.48655832059E+02 -0.47293901352E+03  0.47589811940E+03  0.00000000000E+00 0. -1.
          1    1    1    2  502    0 -0.40122121524E+02  0.64029334844E+01  0.65489950321E+03  0.65615862525E+03  0.00000000000E+00 0. -1.
         22    1    3    3    0    0 -0.79132221360E+01  0.35407135234E+02 -0.10778196455E+02  0.37847771782E+02  0.00000000000E+00 0.  1.
         22    1    3    3    0    0  0.27051551080E+02  0.68457633398E+01  0.15938035662E+03  0.16180466300E+03  0.00000000000E+00 0.  1.
</event>
<event>
 7    1  0.6089676E-006  0.1087804E+03  0.7818608E-02  0.1378454E+00
          2   -1    0    0  502    0  0.00000000000E+00  0.00000000000E+00  0.20552894302E+04  0.20552894302E+04  0.00000000000E+00 0. -1.
          1   -1    0    0  501    0 -0.00000000000E+00 -0.00000000000E+00 -0.59211789433E+02  0.59211789433E+02  0.00000000000E+00 0. -1.
         25    2    1    2    0    0 -0.27459197940E+02 -0.13488396720E+03  0.39494735546E+03  0.43652749869E+03  0.12500060546E+03 0.  0.
          2    1    1    2  501    0  0.26333937401E+02  0.28340467425E+02 -0.26478964941E+02  0.46880634992E+02  0.00000000000E+00 0. -1.
          1    1    1    2  502    0  0.11252605393E+01  0.10654349978E+03  0.16276092502E+04  0.16310930859E+04  0.00000000000E+00 0. -1.
         22    1    3    3    0    0  0.78323997270E+00 -0.10152486819E+02 -0.85196741143E+01  0.13276720246E+02  0.00000000000E+00 0.  1.
         22    1    3    3    0    0 -0.28242437913E+02 -0.12473148038E+03  0.40346702958E+03  0.42325077844E+03  0.00000000000E+00 0.  1.
</event>
<event>
 7    1  0.6089676E-006  0.7891271E+02  0.7818608E-02  0.1489505E+00
          2   -1    0    0  502    0  0.00000000000E+00  0.00000000000E+00  0.67269370634E+03  0.67269370634E+03  0.00000000000E+00 0. -1.
          1   -1    0    0  501    0 -0.00000000000E+00 -0.00000000000E+00 -0.42861627580E+02  0.42861627580E+02  0.00000000000E+00 0. -1.
         25    2    1    2    0    0  0.18821342132E+02  0.66144957367E+02  0.12283979578E+03  0.18825286852E+03  0.12498051357E+03 0.  0.
          2    1    1    2  501    0  0.22951566780E+02  0.22482514932E+01  0.12253287149E+02  0.26114595505E+02  0.00000000000E+00 0. -1.
          1    1    1    2  502    0 -0.41772908912E+02 -0.68393208860E+02  0.49473899583E+03  0.50118786990E+03  0.00000000000E+00 0. -1.
         22    1    3    3    0    0 -0.45397078830E+02 -0.20422732785E+01  0.60789283614E+02  0.75897316479E+02  0.00000000000E+00 0. -1.
         22    1    3    3    0    0  0.64218420962E+02  0.68187230646E+02  0.62050512168E+02  0.11235555204E+03  0.00000000000E+00 0. -1.
</event>
<event>
 7    1  0.6089676E-006  0.1710669E+03  0.7818608E-02  0.1248645E+00
          2   -1    0    0  502    0  0.00000000000E+00  0.00000000000E+00  0.86535340923E+03  0.86535340923E+03  0.00000000000E+00 0. -1.
          1   -1    0    0  501    0 -0.00000000000E+00 -0.00000000000E+00 -0.12729199857E+04  0.12729199857E+04  0.00000000000E+00 0. -1.
         25    2    1    2    0    0 -0.66983909908E+02  0.12250530505E+03 -0.40584368878E+03  0.44702182417E+03  0.12500007047E+03 0.  0.
          2    1    1    2  501    0 -0.75304169289E+02 -0.25825938158E+02 -0.83581849342E+03  0.83960124520E+03  0.00000000000E+00 0. -1.
          1    1    1    2  502    0  0.14228807920E+03 -0.96679366893E+02  0.83409560575E+03  0.85165032554E+03  0.00000000000E+00 0. -1.
         22    1    3    3    0    0  0.22619485291E+02  0.76375575724E+02 -0.12090623856E+03  0.14478669899E+03  0.00000000000E+00 0. -1.
         22    1    3    3    0    0 -0.89603395199E+02  0.46129729327E+02 -0.28493745022E+03  0.30223512519E+03  0.00000000000E+00 0. -1.
</event>
<event>
 7    1  0.6627597E-006  0.5357780E+02  0.7818608E-02  0.1449297E+00
          2   -1    0    0  502    0  0.00000000000E+00  0.00000000000E+00  0.11756881356E+04  0.11756881356E+04  0.00000000000E+00 0. -1.
          1   -1    0    0  501    0 -0.00000000000E+00 -0.00000000000E+00 -0.86651838912E+03  0.86651838912E+03  0.00000000000E+00 0. -1.
         25    2    1    2    0    0 -0.57340219780E+02  0.55550170675E+02 -0.15000022681E+03  0.21094662614E+03  0.12499875508E+03 0.  0.
          2    1    1    2  501    0  0.48483424763E+01 -0.45055828461E+02 -0.68467000261E+03  0.68616801629E+03  0.00000000000E+00 0. -1.
          1    1    1    2  502    0  0.52491877303E+02 -0.10494342214E+02  0.11438399759E+04  0.11450918822E+04  0.00000000000E+00 0. -1.
         22    1    3    3    0    0 -0.78014024809E+02  0.27141798823E+02 -0.33279853372E+02  0.89052871659E+02  0.00000000000E+00 0.  1.
         22    1    3    3    0    0  0.20673805029E+02  0.28408371852E+02 -0.11672037344E+03  0.12189375448E+03  0.00000000000E+00 0.  1.
</event>
<event>
 7    1  0.6089676E-006  0.8095614E+02  0.7818608E-02  0.1334463E+00
          2   -1    0    0  502    0  0.00000000000E+00  0.00000000000E+00  0.21430720538E+03  0.21430720538E+03  0.00000000000E+00 0. -1.
          1   -1    0    0  501    0 -0.00000000000E+00 -0.00000000000E+00 -0.26040305998E+03  0.26040305998E+03  0.00000000000E+00 0. -1.
         25    2    1    2    0    0 -0.10754596620E+02 -0.85384103437E+01 -0.65200243579E+01  0.12592274948E+03  0.12500184926E+03 0.  0.
          2    1    1    2  501    0  0.85657719314E+01 -0.80501704606E+02 -0.17147942235E+03  0.18962881950E+03  0.00000000000E+00 0. -1.
          1    1    1    2  502    0  0.21888246889E+01  0.89040114950E+02  0.13190359211E+03  0.15915869639E+03  0.00000000000E+00 0. -1.
         22    1    3    3    0    0 -0.14685079930E+02 -0.55096366563E+02  0.31984417612E+02  0.65377856732E+02  0.00000000000E+00 0. -1.
         22    1    3    3    0    0  0.39304833098E+01  0.46557956219E+02 -0.38504441970E+02  0.60544892747E+02  0.00000000000E+00 0. -1.
</event>
<event>
 7    1  0.6089676E-006  0.9524990E+02  0.7818608E-02  0.1453139E+00
          2   -1    0    0  502    0  0.00000000000E+00  0.00000000000E+00  0.62153342065E+03  0.62153342065E+03  0.00000000000E+00 0. -1.
          1   -1    0    0  501    0 -0.00000000000E+00 -0.00000000000E+00 -0.34575699546E+03  0.34575699546E+03  0.00000000000E+00 0. -1.
         25    2    1    2    0    0 -0.78852013816E+02  0.43874044860E+02 -0.27213938345E+03  0.31277390169E+03  0.12500039063E+03 0.  0.
          2    1    1    2  501    0  0.10387941381E+02  0.22497457173E+02 -0.46398623422E+02  0.52601113685E+02  0.00000000000E+00 0. -1.
          1    1    1    2  502    0  0.68464072436E+02 -0.66371502034E+02  0.59431443206E+03  0.60191540074E+03  0.00000000000E+00 0. -1.
         22    1    3    3    0    0 -0.30323682475E+02  0.11408268492E+02 -0.24714931215E+03  0.24926382972E+03  0.00000000000E+00 0.  1.
         22    1    3    3    0    0 -0.48528331342E+02  0.32465776368E+02 -0.24990071298E+02  0.63510071969E+02  0.00000000000E+00 0.  1.
</event>
<event>
 7    1  0.6089676E-006  0.2509412E+02  0.7818608E-02  0.1665963E+00
          2   -1    0    0  502    0  0.00000000000E+00  0.00000000000E+00  0.16189647955E+02  0.16189647955E+02  0.00000000000E+00 0. -1.
          1   -1    0    0  501    0 -0.00000000000E+00 -0.00000000000E+00 -0.22651248802E+04  0.22651248802E+04  0.00000000000E+00 0. -1.
         25    2    1    2    0    0  0.90095682582E+00  0.11261424382E+01 -0.51380550105E+03  0.52879051794E+03  0.12498495525E+03 0.  0.
          2    1    1    2  501    0 -0.24404168353E+02 -0.70139199824E+01 -0.17266751470E+04  0.17268618422E+04  0.00000000000E+00 0. -1.
          1    1    1    2  502    0  0.23503211527E+02  0.58877775442E+01 -0.84545841748E+01  0.25662168070E+02  0.00000000000E+00 0. -1.
         22    1    3    3    0    0  0.62926409570E+02  0.18583037056E+00 -0.25257257386E+03  0.26029343561E+03  0.00000000000E+00 0.  1.
         22    1    3    3    0    0 -0.62025452744E+02  0.94031206765E+00 -0.26123292719E+03  0.26849708233E+03  0.00000000000E+00 0.  1.
</event>
<event>
 7    1  0.6089676E-006  0.7532110E+02  0.7818608E-02  0.1373798E+00
          2   -1    0    0  502    0  0.00000000000E+00  0.00000000000E+00  0.64909781326E+03  0.64909781326E+03  0.00000000000E+00 0. -1.
          1   -1    0    0  501    0 -0.00000000000E+00 -0.00000000000E+00 -0.57054644566E+03  0.57054644566E+03  0.00000000000E+00 0. -1.
         25    2    1    2    0    0 -0.10253412416E+03 -0.54313483624E+02 -0.29865199299E+03  0.34391913681E+03  0.12499663448E+03 0.  0.
          2    1    1    2  501    0  0.67656874252E+02  0.79120186522E+01 -0.24322686031E+03  0.25258534844E+03  0.00000000000E+00 0. -1.
          1    1    1    2  502    0  0.34877249907E+02  0.46401464972E+02  0.62043022090E+03  0.62313977366E+03  0.00000000000E+00 0. -1.
         22    1    3    3    0    0 -0.13049407979E+03 -0.32934897624E+02 -0.24919732283E+03  0.28321849877E+03  0.00000000000E+00 0. -1.
         22    1    3    3    0    0  0.27959955631E+02 -0.21378586000E+02 -0.49454670159E+02  0.60700638042E+02  0.00000000000E+00 0. -1.
</event>
<event>
 7    1  0.6089676E-006  0.9590966E+02  0.7818608E-02  0.1349869E+00
          2   -1    0    0  502    0  0.00000000000E+00  0.00000000000E+00  0.91132936137E+02  0.91132936137E+02  0.00000000000E+00 0. -1.
          1   -1    0    0  501    0 -0.00000000000E+00 -0.00000000000E+00 -0.72946849366E+03  0.72946849366E+03  0.00000000000E+00 0. -1.
         25    2    1    2    0    0  0.39630729165E+02  0.35398600451E+02 -0.10534273125E+03  0.17188885307E+03  0.12500012470E+03 0.  0.
          2    1    1    2  501    0 -0.47247171994E+02 -0.90585161196E+02 -0.57177636668E+03  0.58083231675E+03  0.00000000000E+00 0. -1.
          1    1    1    2  502    0  0.76164428284E+01  0.55186560745E+02  0.38783540401E+02  0.67880259975E+02  0.00000000000E+00 0. -1.
         22    1    3    3    0    0  0.51411097122E+02  0.75918731973E+02 -0.85067017116E+02  0.12507258762E+03  0.00000000000E+00 0. -1.
         22    1    3    3    0    0 -0.11780367957E+02 -0.40520131522E+02 -0.20275714130E+02  0.46816265456E+02  0.00000000000E+00 0. -1.
</event>
<event>
 7    1  0.6089676E-006  0.1084630E+03  0.7818608E-02  0.1276668E+00
          2   -1    0    0  502    0  0.00000000000E+00  0.00000000000E+00  0.63609950963E+03  0.63609950963E+03  0.00000000000E+00 0. -1.
          1   -1    0    0  501    0 -0.00000000000E+00 -0.00000000000E+00 -0.10904607948E+04  0.10904607948E+04  0.00000000000E+00 0. -1.
         25    2    1    2    0    0 -0.16272483057E+03  0.28086599768E+02  0.12189039866E+03  0.24031350683E+03  0.12500033883E+03 0.  0.
          2    1    1    2  501    0  0.66019408018E+02 -0.68927033824E+02 -0.10229431497E+04  0.10273860938E+04  0.00000000000E+00 0. -1.
          1    1    1    2  502    0  0.96705422550E+02  0.40840434056E+02  0.44669146588E+03  0.45886070380E+03  0.00000000000E+00 0. -1.
         22    1    3    3    0    0  0.12842069621E+02 -0.41476600744E+01 -0.11296711943E+02  0.17599361834E+02  0.00000000000E+00 0.  1.
         22    1    3    3    0    0 -0.17556690019E+03  0.32234259843E+02  0.13318711060E+03  0.22271414499E+03  0.00000000000E+00 0.  1.
</event>
<event>
 7    1  0.6089676E-006  0.8574011E+02  0.7818608E-02  0.1316668E+00
          2   -1    0    0  502    0  0.00000000000E+00  0.00000000000E+00  0.12798523632E+03  0.12798523632E+03  0.00000000000E+00 0. -1.
          1   -1    0    0  501    0 -0.00000000000E+00 -0.00000000000E+00 -0.68391953258E+03  0.68391953258E+03  0.00000000000E+00 0. -1.
         25    2    1    2    0    0  0.53053988780E+01 -0.10753112090E+03 -0.19128463310E+03  0.25259419301E+03  0.12499170476E+03 0.  0.
          2    1    1    2  501    0 -0.68834105384E+02  0.53596252052E+02 -0.43902697926E+03  0.44761074699E+03  0.00000000000E+00 0. -1.
          1    1    1    2  502    0  0.63528706506E+02  0.53934868848E+02  0.74377316098E+02  0.11169982891E+03  0.00000000000E+00 0. -1.
         22    1    3    3    0    0 -0.34155130056E+02 -0.16907987521E+02 -0.94735777515E+00  0.38122833550E+02  0.00000000000E+00 0.  1.
         22    1    3    3    0    0  0.39460528934E+02 -0.90623133379E+02 -0.19033727533E+03  0.21447135946E+03  0.00000000000E+00 0.  1.
</event>
<event>
 7    1  0.6089676E-006  0.1232278E+03  0.7818608E-02  0.1261350E+00
          2   -1    0    0  502    0  0.00000000000E+00  0.00000000000E+00  0.17931869499E+04  0.17931869499E+04  0.00000000000E+00 0. -1.
          1   -1    0    0  501    0 -0.00000000000E+00 -0.00000000000E+00 -0.18176382122E+03  0.18176382122E+03  0.00000000000E+00 0. -1.
         25    2    1    2    0    0  0.84763520851E+02 -0.66449018769E+02  0.90362095943E+02  0.18812893398E+03  0.12500744320E+03 0.  0.
          2    1    1    2  501    0  0.38868054648E+02  0.89356268193E+02 -0.11226898120E+03  0.14865931682E+03  0.00000000000E+00 0. -1.
          1    1    1    2  502    0 -0.12363157550E+03 -0.22907249424E+02  0.16333300139E+04  0.16381625203E+04  0.00000000000E+00 0. -1.
         22    1    3    3    0    0  0.21597037353E+00 -0.41500074002E+02 -0.20666104093E+02  0.46361521155E+02  0.00000000000E+00 0. -1.
         22    1    3    3    0    0  0.84547550477E+02 -0.24948944767E+02  0.11102820004E+03  0.14176741283E+03  0.00000000000E+00 0. -1.
</event>
<event>
 7    1  0.6089676E-006  0.7280102E+02  0.7818608E-02  0.1363742E+00
          2   -1    0    0  502    0  0.00000000000E+00  0.00000000000E+00  0.80664786953E+03  0.80664786953E+03  0.00000000000E+00 0. -1.
          1   -1    0    0  501    0 -0.00000000000E+00 -0.00000000000E+00 -0.25485571690E+03  0.25485571690E+03  0.00000000000E+00 0. -1.
         25    2    1    2    0    0  0.69339201952E+02  0.71119080060E+02  0.46863102375E+02  0.16639434828E+03  0.12500032119E+03 0.  0.
          2    1    1    2  501    0  0.31255354040E+01 -0.65205275134E+02 -0.18767253522E+03  0.19870198125E+03  0.00000000000E+00 0. -1.
          1    1    1    2  502    0 -0.72464737356E+02 -0.59138049260E+01  0.69260158548E+03  0.69640725689E+03  0.00000000000E+00 0. -1.
         22    1    3    3    0    0  0.96911713392E+02  0.20398661030E+02  0.44613176172E+02  0.10862007665E+03  0.00000000000E+00 0. -1.
         22    1    3    3    0    0 -0.27572511440E+02  0.50720419030E+02  0.22499262026E+01  0.57774271623E+02  0.00000000000E+00 0. -1.
</event>
<event>
 7    1  0.6089676E-006  0.2205828E+03  0.7818608E-02  0.1308448E+00
          2   -1    0    0  502    0  0.00000000000E+00  0.00000000000E+00  0.11574077498E+04  0.11574077498E+04  0.00000000000E+00 0. -1.
          1   -1    0    0  501    0 -0.00000000000E+00 -0.00000000000E+00 -0.39301679364E+03  0.39301679364E+03  0.00000000000E+00 0. -1.
         25    2    1    2    0    0 -0.63353339802E+02 -0.20666562096E+03  0.37621740939E+03  0.45153948867E+03  0.12499618453E+03 0.  0.
          2    1    1    2  501    0 -0.34401489965E+02  0.58222585863E+01 -0.33766042797E+03  0.33945828289E+03  0.00000000000E+00 0. -1.
          1    1    1    2  502    0  0.97754829768E+02  0.20084336237E+03  0.72583397476E+03  0.75942677189E+03  0.00000000000E+00 0. -1.
         22    1    3    3    0    0 -0.35063329191E+02 -0.21572230813E+03  0.31372451588E+03  0.38234620849E+03  0.00000000000E+00 0.  1.
         22    1    3    3    0    0 -0.28290010611E+02  0.90566871715E+01  0.62492893511E+02  0.69193280181E+02  0.00000000000E+00 0.  1.
</event>
<event>
 7    1  0.6089676E-006  0.1169142E+03  0.7818608E-02  0.1320360E+00
          2   -1    0    0  502    0  0.00000000000E+00  0.00000000000E+00  0.10391674924E+04  0.10391674924E+04  0.00000000000E+00 0. -1.
          1   -1    0    0  501    0 -0.00000000000E+00 -0.00000000000E+00 -0.78548244817E+03  0.78548244817E+03  0.00000000000E+00 0. -1.
         25    2    1    2    0    0  0.84221858895E+02  0.95228146785E+02  0.50082174661E+03  0.53160971323E+03  0.12499897548E+03 0.  0.
          2    1    1    2  501    0 -0.56251273150E+02  0.18217532963E+02 -0.76240291671E+03  0.76469228559E+03  0.00000000000E+00 0. -1.
          1    1    1    2  502    0 -0.27970585745E+02 -0.11344567975E+03  0.51526621434E+03  0.52834794176E+03  0.00000000000E+00 0. -1.
         22    1    3    3    0    0  0.24720033971E+02  0.10976134915E+03  0.37757795972E+03  0.39398445339E+03  0.00000000000E+00 0.  1.
         22    1    3    3    0    0  0.59501824924E+02 -0.14533202361E+02  0.12324378688E+03  0.13762525984E+03  0.00000000000E+00 0.  1.
</event>
<event>
 7    1  0.6089676E-006  0.7848778E+02  0.7818608E-02  0.1403567E+00
          2   -1    0    0  502    0  0.00000000000E+00  0.00000000000E+00  0.20951500357E+03  0.20951500357E+03  0.00000000000E+00 0. -1.
          1   -1    0    0  501    0 -0.00000000000E+00 -0.00000000000E+00 -0.22532525280E+03  0.22532525280E+03  0.00000000000E+00 0. -1.
         25    2    1    2    0    0 -0.69602284494E+02 -0.18750817793E+02  0.95174415660E+01  0.14461088408E+03  0.12500261968E+03 0.  0.
          2    1    1    2  501    0  0.76989452261E+02 -0.24455036303E+02 -0.14323195967E+03  0.16444092809E+03  0.00000000000E+00 0. -1.
          1    1    1    2  502    0 -0.73871677674E+01  0.43205854096E+02  0.11790426887E+03  0.12578844420E+03  0.00000000000E+00 0. -1.
         22    1    3    3    0    0 -0.47531527401E+02  0.43272279352E+02 -0.26549239274E+02  0.69545656683E+02  0.00000000000E+00 0. -1.
         22    1    3    3    0    0 -0.22070757092E+02 -0.62023097145E+02  0.36066680840E+02  0.75065227402E+02  0.00000000000E+00 0. -1.
</event>
<event>
 7    1  0.6089676E-006  0.2022788E+03  0.7818608E-02  0.1238310E+00
          2   -1    0    0  502    0  0.00000000000E+00  0.00000000000E+00  0.62238924827E+03  0.62238924827E+03  0.00000000000E+00 0. -1.
          1   -1    0    0  501    0 -0.00000000000E+00 -0.00000000000E+00 -0.16229361476E+04  0.16229361476E+04  0.00000000000E+00 0. -1.
         25    2    1    2    0    0 -0.10945557689E+03 -0.92974641459E+02 -0.60994375458E+01  0.19045666852E+03  0.12494691744E+03 0.  0.
          2    1    1    2  501    0 -0.69745531491E+02 -0.26837874351E+02 -0.15017803300E+04  0.15036385437E+04  0.00000000000E+00 0. -1.
          1    1    1    2  502    0  0.17920110838E+03  0.11981251581E+03  0.50733286819E+03  0.55123018362E+03  0.00000000000E+00 0. -1.
         22    1    3    3    0    0 -0.55518315125E+02 -0.50744818792E+02 -0.65537620833E+02  0.99762215759E+02  0.00000000000E+00 0. -1.
         22    1    3    3    0    0 -0.53937261768E+02 -0.42229822667E+02  0.59438183288E+02  0.90694452763E+02  0.00000000000E+00 0. -1.
</event>
<event>
 7    1  0.6089676E-006  0.7246449E+02  0.7818608E-02  0.1360387E+00
          2   -1    0    0  502    0  0.00000000000E+00  0.00000000000E+00  0.46254640171E+03  0.46254640171E+03  0.00000000000E+00 0. -1.
          1   -1    0    0  501    0 -0.00000000000E+00 -0.00000000000E+00 -0.62121581697E+03  0.62121581697E+03  0.00000000000E+00 0. -1.
         25    2    1    2    0    0 -0.28287373118E+02 -0.46007113554E+02 -0.19220641253E+03  0.23555144765E+03  0.12499739797E+03 0.  0.
          2    1    1    2  501    0 -0.44706926301E+02  0.50509027645E+02 -0.40147101510E+03  0.40709808044E+03  0.00000000000E+00 0. -1.
          1    1    1    2  502    0  0.72994299418E+02 -0.45019140902E+01  0.43500801236E+03  0.44111269059E+03  0.00000000000E+00 0. -1.
         22    1    3    3    0    0 -0.33513799577E+02  0.36734376925E+02 -0.47435982328E+02  0.68722351747E+02  0.00000000000E+00 0. -1.
         22    1    3    3    0    0  0.52264264589E+01 -0.82741490480E+02 -0.14477043020E+03  0.16682909591E+03  0.00000000000E+00 0. -1.
</event>
<event>
 7    1  0.6089676E-006  0.9074081E+02  0.7818608E-02  0.1356363E+00
          2   -1    0    0  502    0  0.00000000000E+00  0.00000000000E+00  0.69732695309E+02  0.69732695309E+02  0.00000000000E+00 0. -1.
          1   -1    0    0  501    0 -0.00000000000E+00 -0.00000000000E+00 -0.10786604384E+04  0.10786604384E+04  0.00000000000E+00 0. -1.
         25    2    1    2    0    0 -0.10741510241E+03  0.39309769642E+01 -0.15737209134E+03  0.22789913625E+03  0.12497433482E+03 0.  0.
          2    1    1    2  501    0  0.79137244378E+02  0.44084724106E+02 -0.85945252262E+03  0.86421340245E+03  0.00000000000E+00 0. -1.
          1    1    1    2  502    0  0.28277858036E+02 -0.48015701070E+02  0.78968708687E+01  0.56280595003E+02  0.00000000000E+00 0. -1.
         22    1    3    3    0    0 -0.40204924845E+02 -0.58837256924E+02 -0.53114506074E+02  0.88878622512E+02  0.00000000000E+00 0.  1.
         22    1    3    3    0    0 -0.67210177570E+02  0.62768233888E+02 -0.10425758526E+03  0.13902051373E+03  0.00000000000E+00 0.  1.
</event>
<event>
 7    1  0.6089676E-006  0.6571984E+02  0.7818608E-02  0.1526109E+00
          2   -1    0    0  502    0  0.00000000000E+00  0.00000000000E+00  0.92069097846E+03  0.92069097846E+03  0.00000000000E+00 0. -1.
          1   -1    0    0  501    0 -0.00000000000E+00 -0.00000000000E+00 -0.53444777545E+03  0.53444777545E+03  0.00000000000E+00 0. -1.
         25    2    1    2    0    0 -0.45133880720E+02 -0.94856349217E+01 -0.19279110257E+03  0.23435051213E+03  0.12499883537E+03 0.  0.
          2    1    1    2  501    0 -0.20626392793E+02  0.63774589202E+01 -0.31930792252E+03  0.32003698137E+03  0.00000000000E+00 0. -1.
          1    1    1    2  502    0  0.65760273513E+02  0.31081760015E+01  0.89834222810E+03  0.90075126041E+03  0.00000000000E+00 0. -1.
         22    1    3    3    0    0 -0.11198770946E+01 -0.22534496766E+02 -0.18667938475E+03  0.18803789608E+03  0.00000000000E+00 0. -1.
         22    1    3    3    0    0 -0.44014003625E+02  0.13048861844E+02 -0.61117178187E+01  0.46312616049E+02  0.00000000000E+00 0. -1.
</event>
<event>
 7    1  0.6089676E-006  0.1235722E+03  0.7818608E-02  0.1281620E+00
          2   -1    0    0  502    0  0.00000000000E+00  0.00000000000E+00  0.16188406041E+04  0.16188406041E+04  0.00000000000E+00 0. -1.
          1   -1    0    0  501    0 -0.00000000000E+00 -0.00000000000E+00 -0.82511542533E+03  0.82511542533E+03  0.00000000000E+00 0. -1.
         25    2    1    2    0    0 -0.18058049825E+02  0.14849829097E+03  0.14265867710E+03  0.24156763712E+03  0.12500235824E+03 0.  0.
          2    1    1    2  501    0  0.78039257985E+02 -0.95694217061E+02 -0.76961659023E+03  0.77945955952E+03  0.00000000000E+00 0. -1.
          1    1    1    2  502    0 -0.59981208160E+02 -0.52804073913E+02  0.14206830919E+04  0.14229288328E+04  0.00000000000E+00 0. -1.
         22    1    3    3    0    0 -0.43610880940E+02  0.34570517833E+02  0.10508727251E+03  0.11891326453E+03  0.00000000000E+00 0. -1.
         22    1    3    3    0    0  0.25552831115E+02  0.11392777314E+03  0.37571404593E+02  0.12265437258E+03  0.00000000000E+00 0. -1.
</event>
<event>
 7    1  0.6089676E-006  0.7445334E+02  0.7818608E-02  0.1460746E+00
          2   -1    0    0  502    0  0.00000000000E+00  0.00000000000E+00  0.56880387362E+02  0.56880387362E+02  0.00000000000E+00 0. -1.
          1   -1    0    0  501    0 -0.00000000000E+00 -0.00000000000E+00 -0.10713277056E+04  0.10713277056E+04  0.00000000000E+00 0. -1.
         25    2    1    2    0    0  0.32219816774E+02  0.38465268436E+02 -0.33357083032E+03  0.35973806420E+03  0.12499713006E+03 0.  0.
          2    1    1    2  501    0  0.28777773535E+02  0.84414072778E+01 -0.69029671887E+03  0.69094788349E+03  0.00000000000E+00 0. -1.
          1    1    1    2  502    0 -0.60997590308E+02 -0.46906675714E+02  0.94202309985E+01  0.77522145236E+02  0.00000000000E+00 0. -1.
         22    1    3    3    0    0  0.83649926978E+01  0.68558903785E+02 -0.30266233495E+03  0.31044288587E+03  0.00000000000E+00 0.  1.
         22    1    3    3    0    0  0.23854824076E+02 -0.30093635349E+02 -0.30908495376E+02  0.49295178330E+02  0.00000000000E+00 0.  1.
</event>
<event>
 7    1  0.6089676E-006  0.7869389E+02  0.7818608E-02  0.1387625E+00
          2   -1    0    0  502    0  0.00000000000E+00  0.00000000000E+00  0.14940564269E+04  0.14940564269E+04  0.00000000000E+00 0. -1.
          1   -1    0    0  501    0 -0.00000000000E+00 -0.00000000000E+00 -0.11941358813E+03  0.11941358813E+03  0.00000000000E+00 0. -1.
         25    2    1    2    0    0  0.15378720679E+02  0.97519005636E+02  0.23386682855E+02  0.16099139070E+03  0.12499931773E+03 0.  0.
          2    1    1    2  501    0 -0.43395140429E+02 -0.24105222807E+02 -0.37054858489E+02  0.61945641631E+02  0.00000000000E+00 0. -1.
          1    1    1    2  502    0  0.28016419750E+02 -0.73413782829E+02  0.13883110144E+04  0.13905329827E+04  0.00000000000E+00 0. -1.
         22    1    3    3    0    0  0.24642426741E+02  0.65978671672E+01 -0.41635472907E+02  0.48829229474E+02  0.00000000000E+00 0. -1.
         22    1    3    3    0    0 -0.92637060617E+01  0.90921138469E+02  0.65022155762E+02  0.11216216122E+03  0.00000000000E+00 0. -1.
</event>
<event>
 7    1  0.6089676E-006  0.4948685E+02  0.7818608E-02  0.1507650E+00
          2   -1    0    0  502    0  0.00000000000E+00  0.00000000000E+00  0.15013592829E+04  0.15013592829E+04  0.00000000000E+00 0. -1.
          1   -1    0    0  501    0 -0.00000000000E+00 -0.00000000000E+00 -0.24142734054E+03  0.24142734054E+03  0.00000000000E+00 0. -1.
         25    2    1    2    0    0 -0.18100709006E+02 -0.28235481557E+02 -0.61559482196E+02  0.14331615053E+03  0.12500028428E+03 0.  0.
          2    1    1    2  501    0  0.24838882894E+02 -0.20889955744E+02 -0.13666766418E+03  0.14046854020E+03  0.00000000000E+00 0. -1.
          1    1    1    2  502    0 -0.67381738883E+01  0.49125437301E+02  0.14581590887E+04  0.14590019327E+04  0.00000000000E+00 0. -1.
         22    1    3    3    0    0 -0.44323434621E+01  0.34002661328E+02 -0.71050042357E+02  0.78891920783E+02  0.00000000000E+00 0. -1.
         22    1    3    3    0    0 -0.13668365543E+02 -0.62238142885E+02  0.94905601611E+01  0.64424229747E+02  0.00000000000E+00 0. -1.
</event>
<event>
 7    1  0.6089676E-006  0.1343516E+03  0.7818608E-02  0.1364024E+00
          2   -1    0    0  502    0  0.00000000000E+00  0.00000000000E+00  0.11710208430E+04  0.11710208430E+04  0.00000000000E+00 0. -1.
          1   -1    0    0  501    0 -0.00000000000E+00 -0.00000000000E+00 -0.26943382179E+04  0.26943382179E+04  0.00000000000E+00 0. -1.
         25    2    1    2    0    0 -0.31266454011E+02  0.97664650687E+02  0.33379286936E+03  0.37088779904E+03  0.12499641875E+03 0.  0.
          2    1    1    2  501    0  0.56966338333E+02 -0.12184948162E+03 -0.26737190368E+04  0.26771002872E+04  0.00000000000E+00 0. -1.
          1    1    1    2  502    0 -0.25699884322E+02  0.24184830932E+02  0.81660879258E+03  0.81737097466E+03  0.00000000000E+00 0. -1.
         22    1    3    3    0    0 -0.29783701392E+02  0.12350550219E+03  0.21872957711E+03  0.25294921594E+03  0.00000000000E+00 0. -1.
         22    1    3    3    0    0 -0.14827526191E+01 -0.25840851501E+02  0.11506329225E+03  0.11793858311E+03  0.00000000000E+00 0. -1.
</event>
<event>
 7    1  0.6089676E-006  0.2830407E+03  0.7818608E-02  0.1232099E+00
          2   -1    0    0  502    0  0.00000000000E+00  0.00000000000E+00  0.34196519817E+03  0.34196519817E+03  0.00000000000E+00 0. -1.
          1   -1    0    0  501    0 -0.00000000000E+00 -0.00000000000E+00 -0.33044281879E+03  0.33044281879E+03  0.00000000000E+00 0. -1.
         25    2    1    2    0    0  0.59115149997E+02 -0.28703973590E+03  0.71228802644E+02  0.32647274026E+03  0.12499798743E+03 0.  0.
          2    1    1    2  501    0 -0.10792426585E+03  0.25777001879E+03 -0.70033610175E+02  0.28809327709E+03  0.00000000000E+00 0. -1.
          1    1    1    2  502    0  0.48809115855E+02  0.29269717102E+02  0.10327186905E+02  0.57841999612E+02  0.00000000000E+00 0. -1.
         22    1    3    3    0    0  0.74077632781E+02 -0.27834488602E+03  0.89194621156E+02  0.30152786222E+03  0.00000000000E+00 0. -1.
         22    1    3    3    0    0 -0.14962482784E+02 -0.86948498733E+01 -0.17965818512E+02  0.24944878035E+02  0.00000000000E+00 0. -1.
</event>
<event>
 7    1  0.6089676E-006  0.2245112E+03  0.7818608E-02  0.1291369E+00
          2   -1    0    0  502    0  0.00000000000E+00  0.00000000000E+00  0.90466017377E+03  0.90466017377E+03  0.00000000000E+00 0. -1.
          1   -1    0    0  501    0 -0.00000000000E+00 -0.00000000000E+00 -0.44601357504E+03  0.44601357504E+03  0.00000000000E+00 0. -1.
         25    2    1    2    0    0 -0.44277183917E+02 -0.19828876769E+03  0.20972770541E+03  0.31763190762E+03  0.12500165565E+03 0.  0.
          2    1    1    2  501    0  0.21386233088E+02 -0.33952006435E+02 -0.36969901658E+03  0.37187023620E+03  0.00000000000E+00 0. -1.
          1    1    1    2  502    0  0.22890950829E+02  0.23224077412E+03  0.61861790991E+03  0.66117160499E+03  0.00000000000E+00 0. -1.
         22    1    3    3    0    0  0.15265418042E+02 -0.16909846503E+03  0.17032851361E+03  0.24049766405E+03  0.00000000000E+00 0.  1.
         22    1    3    3    0    0 -0.59542601959E+02 -0.29190302657E+02  0.39399191798E+02  0.77134243572E+02  0.00000000000E+00 0.  1.
</event>
<event>
 7    1  0.6089676E-006  0.6873469E+02  0.7818608E-02  0.1454339E+00
          2   -1    0    0  502    0  0.00000000000E+00  0.00000000000E+00  0.29704566916E+03  0.29704566916E+03  0.00000000000E+00 0. -1.
          1   -1    0    0  501    0 -0.00000000000E+00 -0.00000000000E+00 -0.81118155469E+03  0.81118155469E+03  0.00000000000E+00 0. -1.
         25    2    1    2    0    0 -0.24695081040E+02  0.88814690421E+02 -0.29174680294E+02  0.15802426286E+03  0.12499043731E+03 0.  0.
          2    1    1    2  501    0  0.37258825894E+02 -0.57179898358E+02 -0.71470258502E+03  0.71795372129E+03  0.00000000000E+00 0. -1.
          1    1    1    2  502    0 -0.12563744855E+02 -0.31634792063E+02  0.22974137979E+03  0.23224923970E+03  0.00000000000E+00 0. -1.
         22    1    3    3    0    0  0.11156735460E+02 -0.14449093782E+02 -0.44072242158E+02  0.47703370804E+02  0.00000000000E+00 0.  1.
         22    1    3    3    0    0 -0.35851816500E+02  0.10326378420E+03  0.14897561864E+02  0.11032089205E+03  0.00000000000E+00 0.  1.
</event>
<event>
 7    1  0.6089676E-006  0.7050830E+02  0.7818608E-02  0.1393036E+00
          2   -1    0    0  502    0  0.00000000000E+00  0.00000000000E+00  0.13739076923E+04  0.13739076923E+04  0.00000000000E+00 0. -1.
          1   -1    0    0  501    0 -0.00000000000E+00 -0.00000000000E+00 -0.27396462260E+02  0.27396462260E+02  0.00000000000E+00 0. -1.
         25    2    1    2    0    0 -0.55947055019E+02  0.75888764155E+02  0.33642695753E+03  0.37107483304E+03  0.12499702587E+03 0.  0.
          2    1    1    2  501    0  0.61918569172E+02 -0.23178537702E+02  0.10829866461E+03  0.12688480829E+03  0.00000000000E+00 0. -1.
          1    1    1    2  502    0 -0.59715141528E+01 -0.52710226453E+02  0.90178560788E+03  0.90334451320E+03  0.00000000000E+00 0. -1.
         22    1    3    3    0    0 -0.89275668085E+02  0.51842147923E+02  0.16376482404E+03  0.19358892222E+03  0.00000000000E+00 0.  1.
         22    1    3    3    0    0  0.33328613066E+02  0.24046616232E+02  0.17266213348E+03  0.17748591082E+03  0.00000000000E+00 0.  1.
</event>
<event>
 7    1  0.6089676E-006  0.3061098E+02  0.7818608E-02  0.1645657E+00
          2   -1    0    0  502    0  0.00000000000E+00  0.00000000000E+00  0.13842541529E+04  0.13842541529E+04  0.00000000000E+00 0. -1.
          1   -1    0    0  501    0 -0.00000000000E+00 -0.00000000000E+00 -0.13201181452E+03  0.13201181452E+03  0.00000000000E+00 0. -1.
         25    2    1    2    0    0 -0.27068015667E+02 -0.31046199949E+02 -0.81072533733E+02  0.15457967673E+03  0.12500230690E+03 0.  0.
          2    1    1    2  501    0  0.50854850982E+01  0.27558105548E+02 -0.16180294662E+00  0.28023874112E+02  0.00000000000E+00 0. -1.
          1    1    1    2  502    0  0.21982530569E+02  0.34880944016E+01  0.13334766751E+04  0.13336624166E+04  0.00000000000E+00 0. -1.
         22    1    3    3    0    0  0.71939331364E+01 -0.23772957825E+02  0.29516677344E+02  0.38576423359E+02  0.00000000000E+00 0.  1.
         22    1    3    3    0    0 -0.34261948804E+02 -0.72732421247E+01 -0.11058921108E+03  0.11600325338E+03  0.00000000000E+00 0.  1.
</event>
<event>
 7    1  0.6089676E-006  0.6491075E+02  0.7818608E-02  0.1415678E+00
          2   -1    0    0  502    0  0.00000000000E+00  0.00000000000E+00  0.30125360477E+03  0.30125360477E+03  0.00000000000E+00 0. -1.
          1   -1    0    0  501    0 -0.00000000000E+00 -0.00000000000E+00 -0.77987285413E+02  0.77987285413E+02  0.00000000000E+00 0. -1.
         25    2    1    2    0    0  0.76584351547E+01 -0.80836083731E+02  0.10343619280E+03  0.18142936653E+03  0.12499777997E+03 0.  0.
          2    1    1    2  501    0  0.33054533067E+02  0.54999281826E+02 -0.46323864009E+01  0.64334921788E+02  0.00000000000E+00 0. -1.
          1    1    1    2  502    0 -0.40712968222E+02  0.25836801905E+02  0.12446251296E+03  0.13347660187E+03  0.00000000000E+00 0. -1.
         22    1    3    3    0    0 -0.42654258656E+02  0.10343726013E+02  0.40671596445E+02  0.59837757367E+02  0.00000000000E+00 0. -1.
         22    1    3    3    0    0  0.50312693810E+02 -0.91179809744E+02  0.62764596357E+02  0.12159160916E+03  0.00000000000E+00 0. -1.
</event>
<event>
 7    1  0.6089676E-006  0.1206224E+03  0.7818608E-02  0.1346795E+00
          2   -1    0    0  502    0  0.00000000000E+00  0.00000000000E+00  0.20626507980E+04  0.20626507980E+04  0.00000000000E+00 0. -1.
          1   -1    0    0  501    0 -0.00000000000E+00 -0.00000000000E+00 -0.18355967570E+03  0.18355967570E+03  0.00000000000E+00 0. -1.
         25    2    1    2    0    0  0.41295357453E+02  0.68673410814E+02  0.43795171476E+03  0.46243635714E+03  0.12499734415E+03 0.  0.
          2    1    1    2  501    0 -0.79419134846E+02 -0.93465505382E+02 -0.14899830601E+03  0.19298625565E+03  0.00000000000E+00 0. -1.
          1    1    1    2  502    0  0.38123777392E+02  0.24792094568E+02  0.15901377135E+04  0.15907878609E+04  0.00000000000E+00 0. -1.
         22    1    3    3    0    0  0.83458853451E+02  0.52532421970E+02  0.24140021472E+03  0.26076636908E+03  0.00000000000E+00 0.  1.
         22    1    3    3    0    0 -0.42163495998E+02  0.16140988844E+02  0.19655150004E+03  0.20166998806E+03  0.00000000000E+00 0.  1.
</event>
<event>
 7    1  0.6089676E-006  0.7110499E+02  0.7818608E-02  0.1393919E+00
          2   -1    0    0  502    0  0.00000000000E+00  0.00000000000E+00  0.38081532779E+03  0.38081532779E+03  0.00000000000E+00 0. -1.
          1   -1    0    0  501    0 -0.00000000000E+00 -0.00000000000E+00 -0.98368579138E+02  0.98368579138E+02  0.00000000000E+00 0. -1.
         25    2    1    2    0    0 -0.75978979870E+02  0.45265725020E+02  0.12515953022E+03  0.19777061633E+03  0.12500606960E+03 0.  0.
          2    1    1    2  501    0  0.27674656817E+02 -0.65137358451E+02 -0.37256328973E+02  0.79979973397E+02  0.00000000000E+00 0. -1.
          1    1    1    2  502    0  0.48304323053E+02  0.19871633432E+02  0.19454354741E+03  0.20143331720E+03  0.00000000000E+00 0. -1.
         22    1    3    3    0    0  0.78149186200E+01 -0.23438934160E+02  0.73857272223E+02  0.77880377810E+02  0.00000000000E+00 0. -1.
         22    1    3    3    0    0 -0.83793898490E+02  0.68704659180E+02  0.51302257995E+02  0.11989023852E+03  0.00000000000E+00 0. -1.
</event>
<event>
 7    1  0.6089676E-006  0.2639646E+02  0.7818608E-02  0.1682277E+00
          2   -1    0    0  502    0  0.00000000000E+00  0.00000000000E+00  0.71835755227E+03  0.71835755227E+03  0.00000000000E+00 0. -1.
          1   -1    0    0  501    0 -0.00000000000E+00 -0.00000000000E+00 -0.96504827856E+03  0.96504827856E+03  0.00000000000E+00 0. -1.
         25    2    1    2    0    0  0.19475934024E+02 -0.15975855356E+02 -0.89452469544E+02  0.15576183442E+03  0.12500185916E+03 0.  0.
          2    1    1    2  501    0 -0.26151616262E+02 -0.40023635826E+01 -0.84207144571E+03  0.84248694092E+03  0.00000000000E+00 0. -1.
          1    1    1    2  502    0  0.66756822388E+01  0.19978218939E+02  0.68483318897E+03  0.68515705548E+03  0.00000000000E+00 0. -1.
         22    1    3    3    0    0  0.64906983170E+02  0.21646994672E+02 -0.51202340372E+02  0.85458694713E+02  0.00000000000E+00 0. -1.
         22    1    3    3    0    0 -0.45431049146E+02 -0.37622850028E+02 -0.38250129172E+02  0.70303139705E+02  0.00000000000E+00 0. -1.
</event>
<event>
 7    1  0.6089676E-006  0.5832996E+02  0.7818608E-02  0.1442701E+00
          2   -1    0    0  502    0  0.00000000000E+00  0.00000000000E+00  0.94544824163E+03  0.94544824163E+03  0.00000000000E+00 0. -1.
          1   -1    0    0  501    0 -0.00000000000E+00 -0.00000000000E+00 -0.42648092645E+03  0.42648092645E+03  0.00000000000E+00 0. -1.
         25    2    1    2    0    0 -0.53872091411E+02 -0.42540817693E+02 -0.10415317077E+03  0.17658893633E+03  0.12499538411E+03 0.  0.
          2    1    1    2  501    0  0.58645840154E+02 -0.90666801293E+00 -0.28257130518E+03  0.28859435047E+03  0.00000000000E+00 0. -1.
          1    1    1    2  502    0 -0.47737487432E+01  0.43447485706E+02  0.90569179113E+03  0.90674588128E+03  0.00000000000E+00 0. -1.
         22    1    3    3    0    0 -0.11333073707E+02 -0.80205824688E+01  0.29248467269E+02  0.32376552324E+02  0.00000000000E+00 0. -1.
         22    1    3    3    0    0 -0.42539017704E+02 -0.34520235224E+02 -0.13340163804E+03  0.14421238400E+03  0.00000000000E+00 0. -1.
</event>
<event>
 7    1  0.6089676E-006  0.7995409E+02  0.7818608E-02  0.1355747E+00
          2   -1    0    0  502    0  0.00000000000E+00  0.00000000000E+00  0.13425013609E+04  0.13425013609E+04  0.00000000000E+00 0. -1.
          1   -1    0    0  501    0 -0.00000000000E+00 -0.00000000000E+00 -0.69829808050E+03  0.69829808050E+03  0.00000000000E+00 0. -1.
         25    2    1    2    0    0 -0.64515374118E+02  0.25082505985E+02  0.36953138425E+03  0.39619409378E+03  0.12499980160E+03 0.  0.
          2    1    1    2  501    0  0.70478345197E+02  0.38209090380E+02 -0.68156189945E+03  0.68626070448E+03  0.00000000000E+00 0. -1.
          1    1    1    2  502    0 -0.59629710784E+01 -0.63291596365E+02  0.95623379558E+03  0.95834464312E+03  0.00000000000E+00 0. -1.
         22    1    3    3    0    0  0.13910538874E+02 -0.16934961877E+02  0.22779142839E+03  0.22884324520E+03  0.00000000000E+00 0.  1.
         22    1    3    3    0    0 -0.78425912992E+02  0.42017467863E+02  0.14173995585E+03  0.16735084858E+03  0.00000000000E+00 0.  1.
</event>
<event>
 7    1  0.6089676E-006  0.6342211E+02  0.7818608E-02  0.1426294E+00
          2   -1    0    0  502    0  0.00000000000E+00  0.00000000000E+00  0.80513215100E+03  0.80513215100E+03  0.00000000000E+00 0. -1.
          1   -1    0    0  501    0 -0.00000000000E+00 -0.00000000000E+00 -0.16278640630E+03  0.16278640630E+03  0.00000000000E+00 0. -1.
         25    2    1    2    0    0  0.49053489213E+02  0.16710969519E+02  0.30428037896E+03  0.33301161140E+03  0.12499873199E+03 0.  0.
          2    1    1    2  501    0 -0.16693145698E+02  0.42313221030E+02 -0.14253415855E+03  0.14961636321E+03  0.00000000000E+00 0. -1.
          1    1    1    2  502    0 -0.32360343515E+02 -0.59024190548E+02  0.48059952429E+03  0.48529058269E+03  0.00000000000E+00 0. -1.
         22    1    3    3    0    0 -0.14264203102E+02  0.57146459517E+02  0.11131722315E+03  0.12593930878E+03  0.00000000000E+00 0. -1.
         22    1    3    3    0    0  0.63317692315E+02 -0.40435489998E+02  0.19296315581E+03  0.20707230262E+03  0.00000000000E+00 0. -1.
</event>
<event>
 7    1  0.6089676E-006  0.8963749E+02  0.7818608E-02  0.1408925E+00
          2   -1    0    0  502    0  0.00000000000E+00  0.00000000000E+00  0.66063257915E+03  0.66063257915E+03  0.00000000000E+00 0. -1.
          1   -1    0    0  501    0 -0.00000000000E+00 -0.00000000000E+00 -0.39258473588E+03  0.39258473588E+03  0.00000000000E+00 0. -1.
         25    2    1    2    0    0 -0.11303379711E+03  0.15287024450E+02  0.27980822417E+03  0.32699843806E+03  0.12500001511E+03 0.  0.
          2    1    1    2  501    0  0.82059385146E+02 -0.35158177186E+02 -0.36261338751E+03  0.37344117196E+03  0.00000000000E+00 0. -1.
          1    1    1    2  502    0  0.30974411960E+02  0.19871152735E+02  0.35085300661E+03  0.35277770501E+03  0.00000000000E+00 0. -1.
         22    1    3    3    0    0 -0.45517283600E+02  0.42485229759E+02  0.34636195007E+02  0.71249448128E+02  0.00000000000E+00 0.  1.
         22    1    3    3    0    0 -0.67516513505E+02 -0.27198205309E+02  0.24517202916E+03  0.25574898993E+03  0.00000000000E+00 0.  1.
</event>
<event>
 7    1  0.6089676E-006  0.6071816E+02  0.7818608E-02  0.1516798E+00
          2   -1    0    0  502    0  0.00000000000E+00  0.00000000000E+00  0.47361439156E+03  0.47361439156E+03  0.00000000000E+00 0. -1.
          1   -1    0    0  501    0 -0.00000000000E+00 -0.00000000000E+00 -0.75704901534E+03  0.75704901534E+03  0.00000000000E+00 0. -1.
         25    2    1    2    0    0 -0.37886440234E+02  0.10589078006E+02  0.91505194280E+02  0.15983275744E+03  0.12500319534E+03 0.  0.
          2    1    1    2  501    0  0.52759057951E+02 -0.30517536761E+02 -0.72115378892E+03  0.72372482721E+03  0.00000000000E+00 0. -1.
          1    1    1    2  502    0 -0.14872617717E+02  0.19928458756E+02  0.34621397086E+03  0.34710582225E+03  0.00000000000E+00 0. -1.
         22    1    3    3    0    0 -0.19833021836E+02  0.54022066523E+02  0.68081272007E+00  0.57551680536E+02  0.00000000000E+00 0.  1.
         22    1    3    3    0    0 -0.18053418398E+02 -0.43432988517E+02  0.90824381560E+02  0.10228107691E+03  0.00000000000E+00 0.  1.
</event>
<event>
 7    1  0.6089676E-006  0.8812998E+02  0.7818608E-02  0.1439548E+00
          2   -1    0    0  502    0  0.00000000000E+00  0.00000000000E+00  0.59273820619E+03  0.59273820619E+03  0.00000000000E+00 0. -1.
          1   -1    0    0  501    0 -0.00000000000E+00 -0.00000000000E+00 -0.24826196983E+04  0.24826196983E+04  0.00000000000E+00 0. -1.
         25    2    1    2    0    0 -0.83119675907E+02  0.67211000257E+02 -0.22206518917E+04  0.22267343121E+04  0.12499869418E+03 0.  0.
          2    1    1    2  501    0  0.29494805592E+02  0.26970938117E+01 -0.25477290764E+03  0.25648869826E+03  0.00000000000E+00 0. -1.
          1    1    1    2  502    0  0.53624870315E+02 -0.69908094069E+02  0.58554330716E+03  0.59213489417E+03  0.00000000000E+00 0. -1.
         22    1    3    3    0    0 -0.29479502243E+02  0.98194696268E+02 -0.13889595613E+04  0.13927382749E+04  0.00000000000E+00 0. -1.
         22    1    3    3    0    0 -0.53640173664E+02 -0.30983696011E+02 -0.83169233033E+03  0.83399603715E+03  0.00000000000E+00 0. -1.
</event>
<event>
 7    1  0.6089676E-006  0.1157370E+03  0.7818608E-02  0.1351523E+00
          2   -1    0    0  502    0  0.00000000000E+00  0.00000000000E+00  0.83624252759E+03  0.83624252759E+03  0.00000000000E+00 0. -1.
          1   -1    0    0  501    0 -0.00000000000E+00 -0.00000000000E+00 -0.96467176107E+03  0.96467176107E+03  0.00000000000E+00 0. -1.
         25    2    1    2    0    0 -0.98853048601E+02 -0.26219149766E+02  0.29052215118E+03  0.33239718395E+03  0.12500159415E+03 0.  0.
          2    1    1    2  501    0  0.16456404809E-02 -0.45519532049E+02 -0.93606692004E+03  0.93717303983E+03  0.00000000000E+00 0. -1.
          1    1    1    2  502    0  0.98851402961E+02  0.71738681815E+02  0.51711553539E+03  0.53134406488E+03  0.00000000000E+00 0. -1.
         22    1    3    3    0    0 -0.27989634312E+02  0.28402257018E+02  0.14820613981E+02  0.42541255640E+02  0.00000000000E+00 0.  1.
         22    1    3    3    0    0 -0.70863414289E+02 -0.54621406784E+02  0.27570153720E+03  0.28985592831E+03  0.00000000000E+00 0.  1.
</event>
<event>
 7    1  0.6089676E-006  0.3011294E+03  0.7818608E-02  0.1260335E+00
          2   -1    0    0  502    0  0.00000000000E+00  0.00000000000E+00  0.20191067160E+04  0.20191067160E+04  0.00000000000E+00 0. -1.
          1   -1    0    0  501    0 -0.00000000000E+00 -0.00000000000E+00 -0.11122889719E+04  0.11122889719E+04  0.00000000000E+00 0. -1.
         25    2    1    2    0    0  0.22213056762E+03  0.22299798121E+03 -0.69048621040E+03  0.76906793112E+03  0.12499674886E+03 0.  0.
          2    1    1    2  501    0 -0.37507671855E+02  0.14671517860E+02 -0.36997576823E+03  0.37216145416E+03  0.00000000000E+00 0. -1.
          1    1    1    2  502    0 -0.18462289576E+03 -0.23766949906E+03  0.19672797228E+04  0.19901663026E+04  0.00000000000E+00 0. -1.
         22    1    3    3    0    0  0.23430358456E+03  0.21265880044E+03 -0.67985143161E+03  0.74987992653E+03  0.00000000000E+00 0. -1.
         22    1    3    3    0    0 -0.12173016937E+02  0.10339180769E+02 -0.10634778784E+02  0.19188004589E+02  0.00000000000E+00 0. -1.
</event>
<event>
 7    1  0.6089676E-006  0.4770050E+02  0.7818608E-02  0.1565620E+00
          2   -1    0    0  502    0  0.00000000000E+00  0.00000000000E+00  0.67244404648E+03  0.67244404648E+03  0.00000000000E+00 0. -1.
          1   -1    0    0  501    0 -0.00000000000E+00 -0.00000000000E+00 -0.34573616859E+03  0.34573616859E+03  0.00000000000E+00 0. -1.
         25    2    1    2    0    0 -0.11955688477E+02  0.58844622173E+02  0.22059531817E+03  0.26056293352E+03  0.12500047952E+03 0.  0.
          2    1    1    2  501    0  0.25529780033E+02 -0.40221251558E+02 -0.32370027365E+03  0.32718708090E+03  0.00000000000E+00 0. -1.
          1    1    1    2  502    0 -0.13574091555E+02 -0.18623370614E+02  0.42981283338E+03  0.43043020065E+03  0.00000000000E+00 0. -1.
         22    1    3    3    0    0 -0.24103970064E+02  0.22740479941E+02  0.21998289311E+03  0.22246483781E+03  0.00000000000E+00 0. -1.
         22    1    3    3    0    0  0.12148281587E+02  0.36104142232E+02  0.61242505358E+00  0.38098095704E+02  0.00000000000E+00 0. -1.
</event>
<event>
 7    1  0.6089676E-006  0.9295934E+02  0.7818608E-02  0.1335537E+00
          2   -1    0    0  502    0  0.00000000000E+00  0.00000000000E+00  0.62309025451E+02  0.62309025451E+02  0.00000000000E+00 0. -1.
          1   -1    0    0  501    0 -0.00000000000E+00 -0.00000000000E+00 -0.63532675749E+03  0.63532675749E+03  0.00000000000E+00 0. -1.
         25    2    1    2    0    0 -0.45729221425E+02 -0.45741250774E+02 -0.57335668391E+02  0.15197028043E+03  0.12499665416E+03 0.  0.
          2    1    1    2  501    0  0.97987955102E+02  0.70171364973E+01 -0.40972404766E+03  0.42133677122E+03  0.00000000000E+00 0. -1.
          1    1    1    2  502    0 -0.52258733677E+02  0.38724114277E+02 -0.10595801599E+03  0.12432873129E+03  0.00000000000E+00 0. -1.
         22    1    3    3    0    0 -0.42978965649E+02  0.36458447110E+02 -0.36432295650E+02  0.67109775892E+02  0.00000000000E+00 0.  1.
         22    1    3    3    0    0 -0.27502557753E+01 -0.82199697884E+02 -0.20903372741E+02  0.84860504541E+02  0.00000000000E+00 0.  1.
</event>
<event>
 7    1  0.6089676E-006  0.8530184E+02  0.7818608E-02  0.1373254E+00
          2   -1    0    0  502    0  0.00000000000E+00  0.00000000000E+00  0.46551477698E+04  0.46551477698E+04  0.00000000000E+00 0. -1.
          1   -1    0    0  501    0 -0.00000000000E+00 -0.00000000000E+00 -0.39020497821E+02  0.39020497821E+02  0.00000000000E+00 0. -1.
         25    2    1    2    0    0  0.33124133936E+02  0.19737071240E+02  0.10777091638E+04  0.10856190766E+04  0.12499991040E+03 0.  0.
          2    1    1    2  501    0 -0.84443735924E+02 -0.23870666642E+02  0.20320459325E+02  0.90074826283E+02  0.00000000000E+00 0. -1.
          1    1    1    2  502    0  0.51319601988E+02  0.41335954027E+01  0.35180976489E+04  0.35184743647E+04  0.00000000000E+00 0. -1.
         22    1    3    3    0    0  0.48113427070E+02  0.65290235358E+02  0.58789736364E+03  0.59346527015E+03  0.00000000000E+00 0.  1.
         22    1    3    3    0    0 -0.14989293134E+02 -0.45553164118E+02  0.48981180013E+03  0.49215380646E+03  0.00000000000E+00 0.  1.
</event>
<event>
 7    1  0.6089676E-006  0.8038606E+02  0.7818608E-02  0.1387384E+00
          2   -1    0    0  502    0  0.00000000000E+00  0.00000000000E+00  0.81304307219E+03  0.81304307219E+03  0.00000000000E+00 0. -1.
          1   -1    0    0  501    0 -0.00000000000E+00 -0.00000000000E+00 -0.19693720823E+03  0.19693720823E+03  0.00000000000E+00 0. -1.
         25    2    1    2    0    0  0.11981115601E+03  0.38045616360E+02  0.15881842913E+03  0.23801330500E+03  0.12499943158E+03 0.  0.
          2    1    1    2  501    0 -0.44308271437E+02 -0.20186850008E+02 -0.15104912142E+03  0.15870276907E+03  0.00000000000E+00 0. -1.
          1    1    1    2  502    0 -0.75502884576E+02 -0.17858766352E+02  0.60833655625E+03  0.61326420635E+03  0.00000000000E+00 0. -1.
         22    1    3    3    0    0  0.14318660805E+03  0.14224747633E+02  0.12994589508E+03  0.19388317054E+03  0.00000000000E+00 0.  1.
         22    1    3    3    0    0 -0.23375452038E+02  0.23820868727E+02  0.28872534056E+02  0.44130134463E+02  0.00000000000E+00 0.  1.
</event>
<event>
 7    1  0.6089676E-006  0.6971163E+02  0.7818608E-02  0.1378879E+00
          2   -1    0    0  502    0  0.00000000000E+00  0.00000000000E+00  0.60747107349E+02  0.60747107349E+02  0.00000000000E+00 0. -1.
          1   -1    0    0  501    0 -0.00000000000E+00 -0.00000000000E+00 -0.99506306793E+03  0.99506306793E+03  0.00000000000E+00 0. -1.
         25    2    1    2    0    0  0.97668481652E+02  0.42219557377E+02 -0.13597725965E+03  0.21315835094E+03  0.12500017641E+03 0.  0.
          2    1    1    2  501    0 -0.59705359273E+02  0.73726151293E+01 -0.77286354118E+03  0.77520135362E+03  0.00000000000E+00 0. -1.
          1    1    1    2  502    0 -0.37963122379E+02 -0.49592172507E+02 -0.25475159756E+02  0.67450470712E+02  0.00000000000E+00 0. -1.
         22    1    3    3    0    0  0.92814735307E+02  0.79483228233E+02 -0.12305391890E+03  0.17341979592E+03  0.00000000000E+00 0. -1.
         22    1    3    3    0    0  0.48537463445E+01 -0.37263670855E+02 -0.12923340751E+02  0.39738555024E+02  0.00000000000E+00 0. -1.
</event>
<event>
 7    1  0.6089676E-006  0.6387411E+02  0.7818608E-02  0.1474257E+00
          2   -1    0    0  502    0  0.00000000000E+00  0.00000000000E+00  0.10189825227E+04  0.10189825227E+04  0.00000000000E+00 0. -1.
          1   -1    0    0  501    0 -0.00000000000E+00 -0.00000000000E+00 -0.43040612862E+03  0.43040612862E+03  0.00000000000E+00 0. -1.
         25    2    1    2    0    0  0.15133245343E+02 -0.89428153373E+02  0.53028494558E+03  0.55231543883E+03  0.12499524285E+03 0.  0.
          2    1    1    2  501    0 -0.11258626426E+01  0.31702064189E+02 -0.41693936098E+03  0.41814437599E+03  0.00000000000E+00 0. -1.
          1    1    1    2  502    0 -0.14007382700E+02  0.57726089184E+02  0.47523080944E+03  0.47892883645E+03  0.00000000000E+00 0. -1.
         22    1    3    3    0    0 -0.32156984539E+02 -0.94162736463E+02  0.42966308553E+03  0.44103407993E+03  0.00000000000E+00 0.  1.
         22    1    3    3    0    0  0.47290229882E+02  0.47345830903E+01  0.10062186005E+03  0.11128135890E+03  0.00000000000E+00 0.  1.
</event>
<event>
 7    1  0.6089676E-006  0.1565572E+03  0.7818608E-02  0.1345344E+00
          2   -1    0    0  502    0  0.00000000000E+00  0.00000000000E+00  0.29197488403E+03  0.29197488403E+03  0.00000000000E+00 0. -1.
          1   -1    0    0  501    0 -0.00000000000E+00 -0.00000000000E+00 -0.16150641438E+04  0.16150641438E+04  0.00000000000E+00 0. -1.
         25    2    1    2    0    0  0.29234146382E+02 -0.11976685116E+03 -0.77306301796E+03  0.79274724750E+03  0.12499213864E+03 0.  0.
          2    1    1    2  501    0 -0.22529118267E+01 -0.35405259248E+02 -0.80975920673E+03  0.81053598370E+03  0.00000000000E+00 0. -1.
          1    1    1    2  502    0 -0.26981234555E+02  0.15517211041E+03  0.25973296497E+03  0.30375579659E+03  0.00000000000E+00 0. -1.
         22    1    3    3    0    0 -0.10784099035E+00 -0.43851047535E+02 -0.56223980480E+02  0.71302608512E+02  0.00000000000E+00 0.  1.
         22    1    3    3    0    0  0.29341987372E+02 -0.75915803629E+02 -0.71683903748E+03  0.72144463899E+03  0.00000000000E+00 0.  1.
</event>
<event>
 7    1  0.6089676E-006  0.1298652E+03  0.7818608E-02  0.1236662E+00
          2   -1    0    0  502    0  0.00000000000E+00  0.00000000000E+00  0.24005624789E+03  0.24005624789E+03  0.00000000000E+00 0. -1.
          1   -1    0    0  501    0 -0.00000000000E+00 -0.00000000000E+00 -0.15792076150E+04  0.15792076150E+04  0.00000000000E+00 0. -1.
         25    2    1    2    0    0  0.11518587422E+03 -0.44561993536E+02  0.33561738259E+02  0.17889848230E+03  0.12499887923E+03 0.  0.
          2    1    1    2  501    0 -0.30986077154E+02  0.12776534866E+03 -0.14768587778E+04  0.14826988807E+04  0.00000000000E+00 0. -1.
          1    1    1    2  502    0 -0.84199797063E+02 -0.83203355126E+02  0.10414567237E+03  0.15766649994E+03  0.00000000000E+00 0. -1.
         22    1    3    3    0    0  0.44165053894E+01 -0.18146346435E+02  0.59282161114E+02  0.62154404793E+02  0.00000000000E+00 0.  1.
         22    1    3    3    0    0  0.11076936883E+03 -0.26415647102E+02 -0.25720422855E+02  0.11674407751E+03  0.00000000000E+00 0.  1.
</event>
<event>
 7    1  0.6089676E-006  0.3866963E+02  0.7818608E-02  0.1523620E+00
          2   -1    0    0  502    0  0.00000000000E+00  0.00000000000E+00  0.13013902923E+04  0.13013902923E+04  0.00000000000E+00 0. -1.
          1   -1    0    0  501    0 -0.00000000000E+00 -0.00000000000E+00 -0.19086040955E+03  0.19086040955E+03  0.00000000000E+00 0. -1.
         25    2    1    2    0    0 -0.64849166606E+02 -0.37860192263E+02  0.55389981886E+03  0.57277307595E+03  0.12500071453E+03 0.  0.
          2    1    1    2  501    0  0.30278996765E+02  0.23842819107E+02 -0.17889902703E+03  0.18300316812E+03  0.00000000000E+00 0. -1.
          1    1    1    2  502    0  0.34570169841E+02  0.14017373156E+02  0.73552909097E+03  0.73647445784E+03  0.00000000000E+00 0. -1.
         22    1    3    3    0    0 -0.10093886957E+03 -0.28466220980E+02  0.45854110868E+03  0.47038168488E+03  0.00000000000E+00 0. -1.
         22    1    3    3    0    0  0.36089702967E+02 -0.93939712828E+01  0.95358710181E+02  0.10239139106E+03  0.00000000000E+00 0. -1.
</event>
<event>
 7    1  0.6089676E-006  0.2435649E+03  0.7818608E-02  0.1252421E+00
          2   -1    0    0  502    0  0.00000000000E+00  0.00000000000E+00  0.79753409018E+03  0.79753409018E+03  0.00000000000E+00 0. -1.
          1   -1    0    0  501    0 -0.00000000000E+00 -0.00000000000E+00 -0.62395695834E+03  0.62395695834E+03  0.00000000000E+00 0. -1.
         25    2    1    2    0    0  0.26407746964E+02 -0.22671928087E+03  0.10298598974E+03  0.27987628894E+03  0.12500248642E+03 0.  0.
          2    1    1    2  501    0 -0.49428448718E+02 -0.21357970768E+02 -0.50842692431E+03  0.51127025321E+03  0.00000000000E+00 0. -1.
          1    1    1    2  502    0  0.23020701754E+02  0.24807725164E+03  0.57901806640E+03  0.63034450637E+03  0.00000000000E+00 0. -1.
         22    1    3    3    0    0 -0.30949417785E+02 -0.50405265189E+02  0.69850840595E+02  0.91529761017E+02  0.00000000000E+00 0. -1.
         22    1    3    3    0    0  0.57357164749E+02 -0.17631401568E+03  0.33135149149E+02  0.18834652793E+03  0.00000000000E+00 0. -1.
</event>
<event>
 7    1  0.6089676E-006  0.5557712E+02  0.7818608E-02  0.1526938E+00
          2   -1    0    0  502    0  0.00000000000E+00  0.00000000000E+00  0.84337658420E+03  0.84337658420E+03  0.00000000000E+00 0. -1.
          1   -1    0    0  501    0 -0.00000000000E+00 -0.00000000000E+00 -0.26648683939E+02  0.26648683939E+02  0.00000000000E+00 0. -1.
         25    2    1    2    0    0 -0.71816190724E+02 -0.79159233944E+01  0.28167680802E+03  0.31652551593E+03  0.12500540373E+03 0.  0.
          2    1    1    2  501    0  0.21656479717E+02 -0.13253292255E+02  0.12828531788E+02  0.28446864452E+02  0.00000000000E+00 0. -1.
          1    1    1    2  502    0  0.50159711008E+02  0.21169215650E+02  0.52222256045E+03  0.52505288776E+03  0.00000000000E+00 0. -1.
         22    1    3    3    0    0 -0.82404892234E+02 -0.38680856789E+02  0.26451443332E+03  0.27974034457E+03  0.00000000000E+00 0. -1.
         22    1    3    3    0    0  0.10588701510E+02  0.30764933394E+02  0.17162374702E+02  0.36785171358E+02  0.00000000000E+00 0. -1.
</event>
<event>
 7    1  0.6089676E-006  0.4207369E+02  0.7818608E-02  0.1558923E+00
          2   -1    0    0  502    0  0.00000000000E+00  0.00000000000E+00  0.86106424087E+03  0.86106424087E+03  0.00000000000E+00 0. -1.
          1   -1    0    0  501    0 -0.00000000000E+00 -0.00000000000E+00 -0.31576624632E+03  0.31576624632E+03  0.00000000000E+00 0. -1.
         25    2    1    2    0    0 -0.12734929707E+01 -0.40504847922E+02 -0.44804828210E+02  0.13883179758E+03  0.12499812358E+03 0.  0.
          2    1    1    2  501    0  0.27340312741E+02  0.32538888544E+02 -0.22170074743E+03  0.22573766495E+03  0.00000000000E+00 0. -1.
          1    1    1    2  502    0 -0.26066819770E+02  0.79659593777E+01  0.81180357019E+03  0.81226102466E+03  0.00000000000E+00 0. -1.
         22    1    3    3    0    0  0.46965678562E+02  0.55029887998E+01 -0.53730746457E+02  0.71575491359E+02  0.00000000000E+00 0. -1.
         22    1    3    3    0    0 -0.48239171532E+02 -0.46007836721E+02  0.89259182474E+01  0.67256306221E+02  0.00000000000E+00 0. -1.
</event>
<event>
 7    1  0.6089676E-006  0.3113283E+02  0.7818608E-02  0.1600360E+00
          2   -1    0    0  502    0  0.00000000000E+00  0.00000000000E+00  0.73073285758E+02  0.73073285758E+02  0.00000000000E+00 0. -1.
          1   -1    0    0  501    0 -0.00000000000E+00 -0.00000000000E+00 -0.71716991267E+03  0.71716991267E+03  0.00000000000E+00 0. -1.
         25    2    1    2    0    0  0.18429788508E+02 -0.70104996953E+01 -0.23740974429E+03  0.26902994515E+03  0.12499968196E+03 0.  0.
          2    1    1    2  501    0 -0.24046112390E+02 -0.20946562023E+02 -0.45981321881E+03  0.46091774773E+03  0.00000000000E+00 0. -1.
          1    1    1    2  502    0  0.56163238814E+01  0.27957061718E+02  0.53126336184E+02  0.60295505555E+02  0.00000000000E+00 0. -1.
         22    1    3    3    0    0  0.50711210574E+02 -0.15841454833E+02 -0.22822187416E+03  0.23432413963E+03  0.00000000000E+00 0. -1.
         22    1    3    3    0    0 -0.32281422066E+02  0.88309551373E+01 -0.91878701387E+01  0.34705805522E+02  0.00000000000E+00 0. -1.
</event>
<event>
 7    1  0.6089676E-006  0.4800515E+02  0.7818608E-02  0.1551667E+00
          2   -1    0    0  502    0  0.00000000000E+00  0.00000000000E+00  0.24797683457E+02  0.24797683457E+02  0.00000000000E+00 0. -1.
          1   -1    0    0  501    0 -0.00000000000E+00 -0.00000000000E+00 -0.10831788568E+04  0.10831788568E+04  0.00000000000E+00 0. -1.
         25    2    1    2    0    0 -0.25721951935E+02 -0.38251622681E+01 -0.17946509398E+03  0.22024786522E+03  0.12500060599E+03 0.  0.
          2    1    1    2  501    0  0.44202884690E+02  0.20691789004E+02 -0.84029451655E+03  0.84171071021E+03  0.00000000000E+00 0. -1.
          1    1    1    2  502    0 -0.18480932755E+02 -0.16866626736E+02 -0.38621562863E+02  0.46017964872E+02  0.00000000000E+00 0. -1.
         22    1    3    3    0    0 -0.40091513141E+02 -0.56925820709E+02 -0.76030891526E+02  0.10309498026E+03  0.00000000000E+00 0. -1.
         22    1    3    3    0    0  0.14369561206E+02  0.53100658441E+02 -0.10343420245E+03  0.11715288495E+03  0.00000000000E+00 0. -1.
</event>
<event>
 7    1  0.6089676E-006  0.8388135E+02  0.7818608E-02  0.1320682E+00
          2   -1    0    0  502    0  0.00000000000E+00  0.00000000000E+00  0.23114091009E+04  0.23114091009E+04  0.00000000000E+00 0. -1.
          1   -1    0    0  501    0 -0.00000000000E+00 -0.00000000000E+00 -0.10008642729E+04  0.10008642729E+04  0.00000000000E+00 0. -1.
         25    2    1    2    0    0 -0.16065801049E+03  0.25208254118E+01  0.60606903928E+02  0.21240304073E+03  0.12499801603E+03 0.  0.
          2    1    1    2  501    0  0.80400405091E+02 -0.20170254985E+02 -0.92233065070E+03  0.92604799743E+03  0.00000000000E+00 0. -1.
          1    1    1    2  502    0  0.80257605401E+02  0.17649429573E+02  0.21722685748E+04  0.21738223356E+04  0.00000000000E+00 0. -1.
         22    1    3    3    0    0 -0.49299537534E+02  0.13269522920E+02  0.83819802917E+02  0.98144200036E+02  0.00000000000E+00 0.  1.
         22    1    3    3    0    0 -0.11135847296E+03 -0.10748697508E+02 -0.23212898988E+02  0.11425884070E+03  0.00000000000E+00 0.  1.
</event>
<event>
 7    1  0.6089676E-006  0.8224701E+02  0.7818608E-02  0.1361729E+00
          2   -1    0    0  502    0  0.00000000000E+00  0.00000000000E+00  0.99797378417E+03  0.99797378417E+03  0.00000000000E+00 0. -1.
          1   -1    0    0  501    0 -0.00000000000E+00 -0.00000000000E+00 -0.84308595915E+03  0.84308595915E+03  0.00000000000E+00 0. -1.
         25    2    1    2    0    0 -0.10249184870E+02 -0.26074123582E+02 -0.35615183134E+02  0.13296573736E+03  0.12500616118E+03 0.  0.
          2    1    1    2  501    0  0.52969194837E+02  0.66425754387E+02 -0.75550277945E+03  0.76026480006E+03  0.00000000000E+00 0. -1.
          1    1    1    2  502    0 -0.42720009967E+02 -0.40351630805E+02  0.94600578760E+03  0.94782920589E+03  0.00000000000E+00 0. -1.
         22    1    3    3    0    0  0.47761734033E+02  0.16414225388E+02 -0.34295138537E+02  0.61047248588E+02  0.00000000000E+00 0.  1.
         22    1    3    3    0    0 -0.58010918903E+02 -0.42488348970E+02 -0.13200445965E+01  0.71918488777E+02  0.00000000000E+00 0.  1.
</event>
<event>
 7    1  0.6089676E-006  0.8168529E+02  0.7818608E-02  0.1327777E+00
          2   -1    0    0  502    0  0.00000000000E+00  0.00000000000E+00  0.15523093991E+04  0.15523093991E+04  0.00000000000E+00 0. -1.
          1   -1    0    0  501    0 -0.00000000000E+00 -0.00000000000E+00 -0.98630880477E+02  0.98630880477E+02  0.00000000000E+00 0. -1.
         25    2    1    2    0    0 -0.31818589469E+02 -0.11295602309E+02  0.29651912623E+03  0.32355680524E+03  0.12500160290E+03 0.  0.
          2    1    1    2  501    0  0.17908692282E+02 -0.77184914157E+02 -0.64669559816E+02  0.10227601967E+03  0.00000000000E+00 0. -1.
          1    1    1    2  502    0  0.13909897187E+02  0.88480516466E+02  0.12218289522E+04  0.12251074547E+04  0.00000000000E+00 0. -1.
         22    1    3    3    0    0  0.22711537060E+02 -0.43314493463E+02  0.21442319626E+03  0.21993013972E+03  0.00000000000E+00 0. -1.
         22    1    3    3    0    0 -0.54530126528E+02  0.32018891154E+02  0.82095929970E+02  0.10362666552E+03  0.00000000000E+00 0. -1.
</event>
<event>
 7    1  0.6089676E-006  0.2462699E+03  0.7818608E-02  0.1308392E+00
          2   -1    0    0  502    0  0.00000000000E+00  0.00000000000E+00  0.18296046157E+04  0.18296046157E+04  0.00000000000E+00 0. -1.
          1   -1    0    0  501    0 -0.00000000000E+00 -0.00000000000E+00 -0.10292550546E+04  0.10292550546E+04  0.00000000000E+00 0. -1.
         25    2    1    2    0    0  0.21922248180E+03 -0.14864075275E+03  0.57048996908E+03  0.64127696105E+03  0.12499906422E+03 0.  0.
          2    1    1    2  501    0 -0.18911267829E+03  0.15706910533E+03 -0.97845433221E+03  0.10088643066E+04  0.00000000000E+00 0. -1.
          1    1    1    2  502    0 -0.30109803510E+02 -0.84283525755E+01  0.12083139243E+04  0.12087184027E+04  0.00000000000E+00 0. -1.
         22    1    3    3    0    0  0.11305910661E+03 -0.13253455669E+02  0.16162530288E+03  0.19768852826E+03  0.00000000000E+00 0. -1.
         22    1    3    3    0    0  0.10616337519E+03 -0.13538729708E+03  0.40886466620E+03  0.44358843279E+03  0.00000000000E+00 0. -1.
</event>
<event>
 7    1  0.6089676E-006  0.1339151E+03  0.7818608E-02  0.1325712E+00
          2   -1    0    0  502    0  0.00000000000E+00  0.00000000000E+00  0.16523473761E+04  0.16523473761E+04  0.00000000000E+00 0. -1.
          1   -1    0    0  501    0 -0.00000000000E+00 -0.00000000000E+00 -0.39416969166E+03  0.39416969166E+03  0.00000000000E+00 0. -1.
         25    2    1    2    0    0 -0.46946678547E+02 -0.11002255029E+03  0.81493214926E+03  0.83309619421E+03  0.12500363478E+03 0.  0.
          2    1    1    2  501    0  0.94059741536E+02  0.95768238745E+02 -0.37262551408E+03  0.39606636347E+03  0.00000000000E+00 0. -1.
          1    1    1    2  502    0 -0.47113062989E+02  0.14254311546E+02  0.81587104923E+03  0.81735451003E+03  0.00000000000E+00 0. -1.
         22    1    3    3    0    0 -0.60365548521E+02 -0.11310055343E+03  0.45003315104E+03  0.46793757241E+03  0.00000000000E+00 0.  1.
         22    1    3    3    0    0  0.13418869974E+02  0.30780031407E+01  0.36489899822E+03  0.36515862180E+03  0.00000000000E+00 0.  1.
</event>
<event>
 7    1  0.6089676E-006  0.1996161E+03  0.7818608E-02  0.1370317E+00
          2   -1    0    0  502    0  0.00000000000E+00  0.00000000000E+00  0.19310104054E+04  0.19310104054E+04  0.00000000000E+00 0. -1.
          1   -1    0    0  501    0 -0.00000000000E+00 -0.00000000000E+00 -0.54824331376E+02  0.54824331376E+02  0.00000000000E+00 0. -1.
         25    2    1    2    0    0  0.79564896251E+02  0.19650659978E+03  0.45310936153E+03  0.51563500952E+03  0.12500381219E+03 0.  0.
          2    1    1    2  501    0  0.92194081065E+01 -0.20569803071E+02 -0.92602045132E+01  0.24369359282E+02  0.00000000000E+00 0. -1.
          1    1    1    2  502    0 -0.88784304357E+02 -0.17593679671E+03  0.14323369170E+04  0.14458303680E+04  0.00000000000E+00 0. -1.
         22    1    3    3    0    0  0.36935527437E+02  0.18721868045E+03  0.29280448966E+03  0.34949897949E+03  0.00000000000E+00 0.  1.
         22    1    3    3    0    0  0.42629368813E+02  0.92879193383E+01  0.16030487187E+03  0.16613603004E+03  0.00000000000E+00 0.  1.
</event>
<event>
 7    1  0.6089676E-006  0.5940891E+02  0.7818608E-02  0.1476578E+00
          2   -1    0    0  502    0  0.00000000000E+00  0.00000000000E+00  0.76646201918E+03  0.76646201918E+03  0.00000000000E+00 0. -1.
          1   -1    0    0  501    0 -0.00000000000E+00 -0.00000000000E+00 -0.53809797793E+03  0.53809797793E+03  0.00000000000E+00 0. -1.
         25    2    1    2    0    0  0.72228866784E+02 -0.31844681077E+02  0.44785508289E+03  0.47162601656E+03  0.12500332522E+03 0.  0.
          2    1    1    2  501    0 -0.32614869646E+02 -0.78582852479E+01 -0.52310679494E+03  0.52418145836E+03  0.00000000000E+00 0. -1.
          1    1    1    2  502    0 -0.39613997138E+02  0.39702966325E+02  0.30361575330E+03  0.30875252219E+03  0.00000000000E+00 0. -1.
         22    1    3    3    0    0  0.51425235789E+02 -0.77589650252E+01  0.48844070704E+02  0.71347737576E+02  0.00000000000E+00 0. -1.
         22    1    3    3    0    0  0.20803630995E+02 -0.24085716052E+02  0.39901101219E+03  0.40027827898E+03  0.00000000000E+00 0. -1.
</event>
<event>
 7    1  0.6089676E-006  0.4277379E+02  0.7818608E-02  0.1588663E+00
          2   -1    0    0  502    0  0.00000000000E+00  0.00000000000E+00  0.13042474377E+03  0.13042474377E+03  0.00000000000E+00 0. -1.
          1   -1    0    0  501    0 -0.00000000000E+00 -0.00000000000E+00 -0.34399596566E+03  0.34399596566E+03  0.00000000000E+00 0. -1.
         25    2    1    2    0    0 -0.39405466405E+02  0.51143163482E+02 -0.17191715741E+03  0.22214529370E+03  0.12499843419E+03 0.  0.
          2    1    1    2  501    0  0.13040838409E+02 -0.18064128426E+02 -0.14181193240E+03  0.14355138583E+03  0.00000000000E+00 0. -1.
          1    1    1    2  502    0  0.26364627997E+02 -0.33079035057E+02  0.10015786792E+03  0.10872402989E+03  0.00000000000E+00 0. -1.
         22    1    3    3    0    0 -0.19934972585E+02  0.13403543692E+02 -0.17767407361E+03  0.17929064267E+03  0.00000000000E+00 0.  1.
         22    1    3    3    0    0 -0.19470493820E+02  0.37739619791E+02  0.57569162002E+01  0.42854651039E+02  0.00000000000E+00 0.  1.
</event>
<event>
 7    1  0.6089676E-006  0.7271447E+02  0.7818608E-02  0.1407627E+00
          2   -1    0    0  502    0  0.00000000000E+00  0.00000000000E+00  0.11262622708E+04  0.11262622708E+04  0.00000000000E+00 0. -1.
          1   -1    0    0  501    0 -0.00000000000E+00 -0.00000000000E+00 -0.24201597022E+03  0.24201597022E+03  0.00000000000E+00 0. -1.
         25    2    1    2    0    0 -0.48226782757E+02 -0.25892412865E+01 -0.65360568860E+02  0.14909192922E+03  0.12499549053E+03 0.  0.
          2    1    1    2  501    0  0.68895986344E+02  0.43491535843E+02 -0.12194296429E+03  0.14665693698E+03  0.00000000000E+00 0. -1.
          1    1    1    2  502    0 -0.20669203587E+02 -0.40902294556E+02  0.10715498338E+04  0.10725293748E+04  0.00000000000E+00 0. -1.
         22    1    3    3    0    0 -0.49488868975E+02  0.20942256266E+02 -0.96252838271E+02  0.11023763026E+03  0.00000000000E+00 0. -1.
         22    1    3    3    0    0  0.12620862181E+01 -0.23531497552E+02  0.30892269411E+02  0.38854298965E+02  0.00000000000E+00 0. -1.
</event>
<event>
 7    1  0.6089676E-006  0.1765431E+03  0.7818608E-02  0.1385962E+00
          2   -1    0    0  502    0  0.00000000000E+00  0.00000000000E+00  0.29651121342E+03  0.29651121342E+03  0.00000000000E+00 0. -1.
          1   -1    0    0  501    0 -0.00000000000E+00 -0.00000000000E+00 -0.36811812689E+03  0.36811812689E+03  0.00000000000E+00 0. -1.
         25    2    1    2    0    0 -0.15655129990E+03  0.29936239024E+02 -0.90911195890E+02  0.22202595797E+03  0.12500477017E+03 0.  0.
          2    1    1    2  501    0 -0.18966682877E+02  0.11966834868E+02 -0.17557937512E+03  0.17700581110E+03  0.00000000000E+00 0. -1.
          1    1    1    2  502    0  0.17551798278E+03 -0.41903073892E+02  0.19488365754E+03  0.26559757125E+03  0.00000000000E+00 0. -1.
         22    1    3    3    0    0 -0.17540221141E+03  0.38002943290E+02 -0.69719032597E+02  0.19253805591E+03  0.00000000000E+00 0.  1.
         22    1    3    3    0    0  0.18850911513E+02 -0.80667042658E+01 -0.21192163293E+02  0.29487902055E+02  0.00000000000E+00 0.  1.
</event>
<event>
 7    1  0.6089676E-006  0.1513942E+03  0.7818608E-02  0.1279446E+00
          2   -1    0    0  502    0  0.00000000000E+00  0.00000000000E+00  0.44944171994E+03  0.44944171994E+03  0.00000000000E+00 0. -1.
          1   -1    0    0  501    0 -0.00000000000E+00 -0.00000000000E+00 -0.29186483082E+04  0.29186483082E+04  0.00000000000E+00 0. -1.
         25    2    1    2    0    0  0.57561953548E+02 -0.66431414157E+02  0.35960059732E+02  0.15698650456E+03  0.12500050174E+03 0.  0.
          2    1    1    2  501    0 -0.11419568004E+03  0.10145597721E+03 -0.28529329504E+04  0.28570194938E+04  0.00000000000E+00 0. -1.
          1    1    1    2  502    0  0.56633726488E+02 -0.35024563058E+02  0.34776630243E+03  0.35408402972E+03  0.00000000000E+00 0. -1.
         22    1    3    3    0    0  0.47917066317E+02 -0.10363218524E+03  0.30434020905E+02  0.11816050394E+03  0.00000000000E+00 0. -1.
         22    1    3    3    0    0  0.96448872315E+01  0.37200771086E+02  0.55260388276E+01  0.38826000621E+02  0.00000000000E+00 0. -1.
</event>
<event>
 7    1  0.6089676E-006  0.6852752E+02  0.7818608E-02  0.1413366E+00
          2   -1    0    0  502    0  0.00000000000E+00  0.00000000000E+00  0.16863118573E+04  0.16863118573E+04  0.00000000000E+00 0. -1.
          1   -1    0    0  501    0 -0.00000000000E+00 -0.00000000000E+00 -0.54826403399E+02  0.54826403399E+02  0.00000000000E+00 0. -1.
         25    2    1    2    0    0  0.73564429072E+02 -0.59332627238E+02  0.43597169128E+03  0.46327493368E+03  0.12498104934E+03 0.  0.
          2    1    1    2  501    0 -0.27131465795E+02  0.61829948598E+02 -0.12742455120E+02  0.68712656347E+02  0.00000000000E+00 0. -1.
          1    1    1    2  502    0 -0.46432963277E+02 -0.24973213602E+01  0.12082562178E+04  0.12091506707E+04  0.00000000000E+00 0. -1.
         22    1    3    3    0    0  0.55225667225E+01  0.37729139685E+02  0.10258580033E+03  0.10944328738E+03  0.00000000000E+00 0.  1.
         22    1    3    3    0    0  0.68041862350E+02 -0.97061766923E+02  0.33338589095E+03  0.35383164629E+03  0.00000000000E+00 0.  1.
</event>
<event>
 7    1  0.6089676E-006  0.2309848E+03  0.7818608E-02  0.1191932E+00
          2   -1    0    0  502    0  0.00000000000E+00  0.00000000000E+00  0.25754221434E+04  0.25754221434E+04  0.00000000000E+00 0. -1.
          1   -1    0    0  501    0 -0.00000000000E+00 -0.00000000000E+00 -0.16586268848E+04  0.16586268848E+04  0.00000000000E+00 0. -1.
         25    2    1    2    0    0  0.33970273270E+02  0.31469519809E+03 -0.38298582442E+02  0.34245897925E+03  0.12499729550E+03 0.  0.
          2    1    1    2  501    0  0.41289637110E+02 -0.98648409057E+02 -0.14608896792E+04  0.14647986201E+04  0.00000000000E+00 0. -1.
          1    1    1    2  502    0 -0.75259910380E+02 -0.21604678904E+03  0.24159835202E+04  0.24267914288E+04  0.00000000000E+00 0. -1.
         22    1    3    3    0    0  0.27680215189E+02  0.35836155097E+01  0.47751934708E+01  0.28316763334E+02  0.00000000000E+00 0. -1.
         22    1    3    3    0    0  0.62900580807E+01  0.31111158259E+03 -0.43073775913E+02  0.31414221592E+03  0.00000000000E+00 0. -1.
</event>
<event>
 7    1  0.6089676E-006  0.3258224E+02  0.7818608E-02  0.1603014E+00
          2   -1    0    0  502    0  0.00000000000E+00  0.00000000000E+00  0.37090581420E+03  0.37090581420E+03  0.00000000000E+00 0. -1.
          1   -1    0    0  501    0 -0.00000000000E+00 -0.00000000000E+00 -0.10724904615E+03  0.10724904615E+03  0.00000000000E+00 0. -1.
         25    2    1    2    0    0  0.34006113732E+01  0.46100076098E+02  0.14772544605E+03  0.19896795380E+03  0.12501463136E+03 0.  0.
          2    1    1    2  501    0  0.16408737042E+02 -0.28024883330E+02 -0.77435416323E+02  0.83969544706E+02  0.00000000000E+00 0. -1.
          1    1    1    2  502    0 -0.19809348415E+02 -0.18075192769E+02  0.19336673832E+03  0.19521736185E+03  0.00000000000E+00 0. -1.
         22    1    3    3    0    0 -0.45960167267E+02  0.57990429578E+02  0.12037065239E+03  0.14129515510E+03  0.00000000000E+00 0. -1.
         22    1    3    3    0    0  0.49360778640E+02 -0.11890353480E+02  0.27354793659E+02  0.57672798700E+02  0.00000000000E+00 0. -1.
</event>
<event>
 7    1  0.6089676E-006  0.8418776E+02  0.7818608E-02  0.1335877E+00
          2   -1    0    0  502    0  0.00000000000E+00  0.00000000000E+00  0.15451701653E+03  0.15451701653E+03  0.00000000000E+00 0. -1.
          1   -1    0    0  501    0 -0.00000000000E+00 -0.00000000000E+00 -0.12191991671E+04  0.12191991671E+04  0.00000000000E+00 0. -1.
         25    2    1    2    0    0  0.10646507720E+03  0.49136629880E+02 -0.10811667114E+03  0.20263977963E+03  0.12499777859E+03 0.  0.
          2    1    1    2  501    0 -0.39325391537E+02 -0.74031627973E+02 -0.10500097912E+04  0.10533507155E+04  0.00000000000E+00 0. -1.
          1    1    1    2  502    0 -0.67139685659E+02  0.24894998093E+02  0.93444311762E+02  0.11772568845E+03  0.00000000000E+00 0. -1.
         22    1    3    3    0    0  0.55350960225E+02  0.39979534012E+02  0.14214576690E+02  0.69743430716E+02  0.00000000000E+00 0.  1.
         22    1    3    3    0    0  0.51114116971E+02  0.91570958681E+01 -0.12233124783E+03  0.13289634891E+03  0.00000000000E+00 0.  1.
</event>
<event>
 7    1  0.6089676E-006  0.5152010E+02  0.7818608E-02  0.1456327E+00
          2   -1    0    0  502    0  0.00000000000E+00  0.00000000000E+00  0.70996852680E+03  0.70996852680E+03  0.00000000000E+00 0. -1.
          1   -1    0    0  501    0 -0.00000000000E+00 -0.00000000000E+00 -0.23594291092E+03  0.23594291092E+03  0.00000000000E+00 0. -1.
         25    2    1    2    0    0  0.16405093824E+02  0.34157169685E+02  0.25764101129E+03  0.28885798062E+03  0.12499681165E+03 0.  0.
          2    1    1    2  501    0 -0.42565765713E+02  0.13831087196E+02 -0.21632463793E+03  0.22090607135E+03  0.00000000000E+00 0. -1.
          1    1    1    2  502    0  0.26160671889E+02 -0.47988256881E+02  0.43270924251E+03  0.43614738576E+03  0.00000000000E+00 0. -1.
         22    1    3    3    0    0 -0.16875327534E+02  0.38955709350E+02  0.25102383168E+03  0.25458846800E+03  0.00000000000E+00 0. -1.
         22    1    3    3    0    0  0.33280421358E+02 -0.47985396652E+01  0.66171796113E+01  0.34269512613E+02  0.00000000000E+00 0. -1.
</event>
<event>
 7    1  0.6089676E-006  0.1642898E+03  0.7818608E-02  0.1327325E+00
          2   -1    0    0  502    0  0.00000000000E+00  0.00000000000E+00  0.22607676314E+03  0.22607676314E+03  0.00000000000E+00 0. -1.
          1   -1    0    0  501    0 -0.00000000000E+00 -0.00000000000E+00 -0.13181740703E+04  0.13181740703E+04  0.00000000000E+00 0. -1.
         25    2    1    2    0    0  0.11839245484E+03  0.15889009290E+03 -0.30388910861E+03  0.38371390636E+03  0.12499974648E+03 0.  0.
          2    1    1    2  501    0 -0.97711254023E+02 -0.12517419305E+03 -0.96571150534E+03  0.97868012103E+03  0.00000000000E+00 0. -1.
          1    1    1    2  502    0 -0.20681200820E+02 -0.33715899849E+02  0.17750330680E+03  0.18185680602E+03  0.00000000000E+00 0. -1.
         22    1    3    3    0    0  0.12365958853E+03  0.11199526864E+03 -0.28992524608E+03  0.33450154312E+03  0.00000000000E+00 0.  1.
         22    1    3    3    0    0 -0.52671336862E+01  0.46894824257E+02 -0.13963862530E+02  0.49212363245E+02  0.00000000000E+00 0.  1.
</event>
<event>
 7    1  0.6089676E-006  0.7848657E+02  0.7818608E-02  0.1347056E+00
          2   -1    0    0  502    0  0.00000000000E+00  0.00000000000E+00  0.97136921769E+03  0.97136921769E+03  0.00000000000E+00 0. -1.
          1   -1    0    0  501    0 -0.00000000000E+00 -0.00000000000E+00 -0.45195224232E+02  0.45195224232E+02  0.00000000000E+00 0. -1.
         25    2    1    2    0    0  0.19969976569E+02  0.48275904010E+02  0.21575217031E+03  0.25475877789E+03  0.12499469208E+03 0.  0.
          2    1    1    2  501    0  0.57453378660E+02 -0.61150921807E+02  0.51980634792E+02  0.98703152689E+02  0.00000000000E+00 0. -1.
          1    1    1    2  502    0 -0.77423355230E+02  0.12875017796E+02  0.65844118836E+03  0.66310251134E+03  0.00000000000E+00 0. -1.
         22    1    3    3    0    0  0.62231976654E+02 -0.10198194805E+02  0.92731094178E+02  0.11214222186E+03  0.00000000000E+00 0.  1.
         22    1    3    3    0    0 -0.42262000085E+02  0.58474098815E+02  0.12302107613E+03  0.14261655604E+03  0.00000000000E+00 0.  1.
</event>
<event>
 7    1  0.6089676E-006  0.5000485E+02  0.7818608E-02  0.1457049E+00
          2   -1    0    0  502    0  0.00000000000E+00  0.00000000000E+00  0.81714808908E+03  0.81714808908E+03  0.00000000000E+00 0. -1.
          1   -1    0    0  501    0 -0.00000000000E+00 -0.00000000000E+00 -0.21416418091E+03  0.21416418091E+03  0.00000000000E+00 0. -1.
         25    2    1    2    0    0  0.17675803182E+02  0.60979257863E+01  0.18455130416E+03  0.22368203130E+03  0.12499939416E+03 0.  0.
          2    1    1    2  501    0 -0.56660779753E+01 -0.50368052728E+02 -0.19042095417E+03  0.19705122420E+03  0.00000000000E+00 0. -1.
          1    1    1    2  502    0 -0.12009725207E+02  0.44270126942E+02  0.60885355817E+03  0.61057901449E+03  0.00000000000E+00 0. -1.
         22    1    3    3    0    0  0.59363747640E+02 -0.33658024865E+02  0.89690039975E+02  0.11269969140E+03  0.00000000000E+00 0.  1.
         22    1    3    3    0    0 -0.41687944458E+02  0.39755950651E+02  0.94861264186E+02  0.11098233989E+03  0.00000000000E+00 0.  1.
</event>
<event>
 7    1  0.6089676E-006  0.1887321E+03  0.7818608E-02  0.1312592E+00
          2   -1    0    0  502    0  0.00000000000E+00  0.00000000000E+00  0.24166838062E+03  0.24166838062E+03  0.00000000000E+00 0. -1.
          1   -1    0    0  501    0 -0.00000000000E+00 -0.00000000000E+00 -0.12883916608E+04  0.12883916608E+04  0.00000000000E+00 0. -1.
         25    2    1    2    0    0 -0.21197782132E+03 -0.45453325579E+02 -0.47523900402E+03  0.53710065049E+03  0.12499758506E+03 0.  0.
          2    1    1    2  501    0  0.17281441431E+03  0.48414130666E+02 -0.76997830434E+03  0.79061706217E+03  0.00000000000E+00 0. -1.
          1    1    1    2  502    0  0.39163407012E+02 -0.29608050872E+01  0.19849402814E+03  0.20234232880E+03  0.00000000000E+00 0. -1.
         22    1    3    3    0    0 -0.17902194307E+03 -0.71854946481E+02 -0.44544503068E+03  0.48542070906E+03  0.00000000000E+00 0.  1.
         22    1    3    3    0    0 -0.32955878255E+02  0.26401620903E+02 -0.29793973346E+02  0.51679941424E+02  0.00000000000E+00 0.  1.
</event>
<event>
 7    1  0.6089676E-006  0.8907514E+02  0.7818608E-02  0.1409957E+00
          2   -1    0    0  502    0  0.00000000000E+00  0.00000000000E+00  0.13582906231E+04  0.13582906231E+04  0.00000000000E+00 0. -1.
          1   -1    0    0  501    0 -0.00000000000E+00 -0.00000000000E+00 -0.53899350702E+02  0.53899350702E+02  0.00000000000E+00 0. -1.
         25    2    1    2    0    0 -0.24321503351E+02  0.71208956406E+02  0.22614303864E+03  0.26912449326E+03  0.12500027180E+03 0.  0.
          2    1    1    2  501    0 -0.36533550114E+02 -0.38491578723E+01 -0.19486170630E+02  0.41583977035E+02  0.00000000000E+00 0. -1.
          1    1    1    2  502    0  0.60855053465E+02 -0.67359798534E+02  0.10977344044E+04  0.11014815035E+04  0.00000000000E+00 0. -1.
         22    1    3    3    0    0 -0.46611405422E+02  0.49079485921E+02  0.22782791324E+03  0.23766989104E+03  0.00000000000E+00 0.  1.
         22    1    3    3    0    0  0.22289902071E+02  0.22129470485E+02 -0.16848746057E+01  0.31454602219E+02  0.00000000000E+00 0.  1.
</event>
<event>
 7    1  0.6089676E-006  0.7963739E+02  0.7818608E-02  0.1401364E+00
          2   -1    0    0  502    0  0.00000000000E+00  0.00000000000E+00  0.32055422362E+04  0.32055422362E+04  0.00000000000E+00 0. -1.
          1   -1    0    0  501    0 -0.00000000000E+00 -0.00000000000E+00 -0.96823372641E+02  0.96823372641E+02  0.00000000000E+00 0. -1.
         25    2    1    2    0    0  0.62690077894E+02 -0.10162694967E+03  0.48637415294E+03  0.51618061472E+03  0.12499811040E+03 0.  0.
          2    1    1    2  501    0 -0.51062617459E+02  0.59235409365E+02 -0.63033990877E+02  0.10044654613E+03  0.00000000000E+00 0. -1.
          1    1    1    2  502    0 -0.11627460435E+02  0.42391540302E+02  0.26853787015E+04  0.26857384480E+04  0.00000000000E+00 0. -1.
         22    1    3    3    0    0  0.44263200038E+02 -0.11427126640E+03  0.24662876626E+03  0.27539589966E+03  0.00000000000E+00 0. -1.
         22    1    3    3    0    0  0.18426877856E+02  0.12644316738E+02  0.23974538668E+03  0.24078471506E+03  0.00000000000E+00 0. -1.
</event>
<event>
 7    1  0.6089676E-006  0.3689302E+02  0.7818608E-02  0.1572903E+00
          2   -1    0    0  502    0  0.00000000000E+00  0.00000000000E+00  0.81363368810E+03  0.81363368810E+03  0.00000000000E+00 0. -1.
          1   -1    0    0  501    0 -0.00000000000E+00 -0.00000000000E+00 -0.30027319884E+02  0.30027319884E+02  0.00000000000E+00 0. -1.
         25    2    1    2    0    0  0.68806691991E+01 -0.23896896292E+02  0.45895730301E+03  0.47631104265E+03  0.12494798159E+03 0.  0.
          2    1    1    2  501    0  0.27951789085E+02  0.53965972338E+01 -0.10159383179E+02  0.30226459292E+02  0.00000000000E+00 0. -1.
          1    1    1    2  502    0 -0.34832458284E+02  0.18500299058E+02  0.33480844838E+03  0.33712350603E+03  0.00000000000E+00 0. -1.
         22    1    3    3    0    0  0.18622410023E+02 -0.13685238580E+02  0.70863351696E+01  0.24172216617E+02  0.00000000000E+00 0.  1.
         22    1    3    3    0    0 -0.11741740823E+02 -0.10211657712E+02  0.45187096784E+03  0.45213882604E+03  0.00000000000E+00 0.  1.
</event>
<event>
 7    1  0.6089676E-006  0.4464031E+02  0.7818608E-02  0.1508579E+00
          2   -1    0    0  502    0  0.00000000000E+00  0.00000000000E+00  0.50924517015E+03  0.50924517015E+03  0.00000000000E+00 0. -1.
          1   -1    0    0  501    0 -0.00000000000E+00 -0.00000000000E+00 -0.27440156939E+03  0.27440156939E+03  0.00000000000E+00 0. -1.
         25    2    1    2    0    0 -0.39392941116E+02  0.36928489801E+02 -0.29864802194E+02  0.13940079255E+03  0.12500062954E+03 0.  0.
          2    1    1    2  501    0  0.44772935464E+02 -0.15828932310E+01 -0.18640743670E+03  0.19171555429E+03  0.00000000000E+00 0. -1.
          1    1    1    2  502    0 -0.53799943486E+01 -0.35345596570E+02  0.45111583965E+03  0.45253039270E+03  0.00000000000E+00 0. -1.
         22    1    3    3    0    0 -0.36397515272E+02 -0.41764277988E+02 -0.24180662498E+02  0.60446161770E+02  0.00000000000E+00 0.  1.
         22    1    3    3    0    0 -0.29954258437E+01  0.78692767789E+02 -0.56841396962E+01  0.78954630785E+02  0.00000000000E+00 0.  1.
</event>
<event>
 7    1  0.6089676E-006  0.4475405E+02  0.7818608E-02  0.1538986E+00
          2   -1    0    0  502    0  0.00000000000E+00  0.00000000000E+00  0.32461827688E+03  0.32461827688E+03  0.00000000000E+00 0. -1.
          1   -1    0    0  501    0 -0.00000000000E+00 -0.00000000000E+00 -0.22291365960E+03  0.22291365960E+03  0.00000000000E+00 0. -1.
         25    2    1    2    0    0  0.48854255516E+02 -0.20794580803E+02 -0.41396643609E+02  0.14198034835E+03  0.12500233734E+03 0.  0.
          2    1    1    2  501    0 -0.44021470402E+02 -0.79320622377E+01 -0.12660617170E+03  0.13427557552E+03  0.00000000000E+00 0. -1.
          1    1    1    2  502    0 -0.48327851134E+01  0.28726643040E+02  0.26970743259E+03  0.27127601262E+03  0.00000000000E+00 0. -1.
         22    1    3    3    0    0  0.83105520967E+02  0.58937447183E+01 -0.19817876197E+01  0.83337814491E+02  0.00000000000E+00 0. -1.
         22    1    3    3    0    0 -0.34251265451E+02 -0.26688325521E+02 -0.39414855989E+02  0.58642533854E+02  0.00000000000E+00 0. -1.
</event>
<event>
 7    1  0.6089676E-006  0.1314937E+03  0.7818608E-02  0.1425473E+00
          2   -1    0    0  502    0  0.00000000000E+00  0.00000000000E+00  0.43710201151E+03  0.43710201151E+03  0.00000000000E+00 0. -1.
          1   -1    0    0  501    0 -0.00000000000E+00 -0.00000000000E+00 -0.12789765404E+03  0.12789765404E+03  0.00000000000E+00 0. -1.
         25    2    1    2    0    0 -0.12261307153E+03 -0.66991559174E+02  0.15967644561E+03  0.24625838166E+03  0.12499915577E+03 0.  0.
          2    1    1    2  501    0  0.19694356380E+02 -0.99766898904E+01 -0.65009509374E+02  0.68655941647E+02  0.00000000000E+00 0. -1.
          1    1    1    2  502    0  0.10291871516E+03  0.76968249064E+02  0.21453742124E+03  0.25008534224E+03  0.00000000000E+00 0. -1.
         22    1    3    3    0    0 -0.13800654492E+02 -0.76921341286E+02  0.63514129421E+02  0.10070449566E+03  0.00000000000E+00 0.  1.
         22    1    3    3    0    0 -0.10881241704E+03  0.99297821126E+01  0.96162316190E+02  0.14555388600E+03  0.00000000000E+00 0.  1.
</event>
<event>
 7    1  0.6089676E-006  0.5176054E+02  0.7818608E-02  0.1474673E+00
          2   -1    0    0  502    0  0.00000000000E+00  0.00000000000E+00  0.13145234459E+04  0.13145234459E+04  0.00000000000E+00 0. -1.
          1   -1    0    0  501    0 -0.00000000000E+00 -0.00000000000E+00 -0.37654167634E+03  0.37654167634E+03  0.00000000000E+00 0. -1.
         25    2    1    2    0    0  0.12962548553E+01  0.12892046154E+02  0.37044182854E+03  0.39117765148E+03  0.12499968623E+03 0.  0.
          2    1    1    2  501    0 -0.86410101032E+01 -0.51224924589E+02 -0.36392055136E+03  0.36760961311E+03  0.00000000000E+00 0. -1.
          1    1    1    2  502    0  0.73447552480E+01  0.38332878435E+02  0.93146049241E+03  0.93227785768E+03  0.00000000000E+00 0. -1.
         22    1    3    3    0    0  0.56276598488E+02  0.33870367084E+02  0.22144909039E+03  0.23098475478E+03  0.00000000000E+00 0.  1.
         22    1    3    3    0    0 -0.54980343633E+02 -0.20978320930E+02  0.14899273815E+03  0.16019289671E+03  0.00000000000E+00 0.  1.
</event>
<event>
 7    1  0.6089676E-006  0.1353034E+03  0.7818608E-02  0.1366467E+00
          2   -1    0    0  502    0  0.00000000000E+00  0.00000000000E+00  0.56827089307E+03  0.56827089307E+03  0.00000000000E+00 0. -1.
          1   -1    0    0  501    0 -0.00000000000E+00 -0.00000000000E+00 -0.33306398237E+03  0.33306398237E+03  0.00000000000E+00 0. -1.
         25    2    1    2    0    0 -0.34813381973E+02 -0.14917221753E+03  0.21591547792E+03  0.29275936974E+03  0.12499693163E+03 0.  0.
          2    1    1    2  501    0  0.38464884845E+01  0.13434136491E+03 -0.27827763327E+03  0.30903210024E+03  0.00000000000E+00 0. -1.
          1    1    1    2  502    0  0.30966893488E+02  0.14830852627E+02  0.29756906605E+03  0.29954340546E+03  0.00000000000E+00 0. -1.
         22    1    3    3    0    0  0.23402213568E+02  0.11806608358E+02  0.34535647865E+02  0.43356321041E+02  0.00000000000E+00 0.  1.
         22    1    3    3    0    0 -0.58215595540E+02 -0.16097882589E+03  0.18137983006E+03  0.24940304870E+03  0.00000000000E+00 0.  1.
</event>
<event>
 7    1  0.6089676E-006  0.1030016E+03  0.7818608E-02  0.1276319E+00
          2   -1    0    0  502    0  0.00000000000E+00  0.00000000000E+00  0.81170836819E+03  0.81170836819E+03  0.00000000000E+00 0. -1.
          1   -1    0    0  501    0 -0.00000000000E+00 -0.00000000000E+00 -0.89516690672E+03  0.89516690672E+03  0.00000000000E+00 0. -1.
         25    2    1    2    0    0 -0.47638429809E+02 -0.37310346071E+02  0.28083786201E+03  0.31329682215E+03  0.12499404832E+03 0.  0.
          2    1    1    2  501    0  0.31971152538E+02 -0.95638500170E+02 -0.86726073200E+03  0.87310369062E+03  0.00000000000E+00 0. -1.
          1    1    1    2  502    0  0.15667277272E+02  0.13294884624E+03  0.50296433146E+03  0.52047476213E+03  0.00000000000E+00 0. -1.
         22    1    3    3    0    0  0.40902754204E+02 -0.35933853295E+01  0.57143441622E+02  0.70365621152E+02  0.00000000000E+00 0.  1.
         22    1    3    3    0    0 -0.88541184013E+02 -0.33716960741E+02  0.22369442038E+03  0.24293120100E+03  0.00000000000E+00 0.  1.
</event>
<event>
 7    1  0.6089676E-006  0.1055553E+03  0.7818608E-02  0.1309851E+00
          2   -1    0    0  502    0  0.00000000000E+00  0.00000000000E+00  0.18021266211E+04  0.18021266211E+04  0.00000000000E+00 0. -1.
          1   -1    0    0  501    0 -0.00000000000E+00 -0.00000000000E+00 -0.57693332172E+03  0.57693332172E+03  0.00000000000E+00 0. -1.
         25    2    1    2    0    0 -0.16226510404E+03 -0.46218014377E+02 -0.12200436469E+03  0.24285905008E+03  0.12501753622E+03 0.  0.
          2    1    1    2  501    0  0.71653774390E+02 -0.69373003447E+01 -0.38961713628E+03  0.39621194127E+03  0.00000000000E+00 0. -1.
          1    1    1    2  502    0  0.90611329652E+02  0.53155314721E+02  0.17368148003E+04  0.17399889514E+04  0.00000000000E+00 0. -1.
         22    1    3    3    0    0 -0.15957463501E+02  0.27173942484E+02 -0.60099834814E+02  0.67860547715E+02  0.00000000000E+00 0. -1.
         22    1    3    3    0    0 -0.14630764054E+03 -0.73391956861E+02 -0.61904529874E+02  0.17499850237E+03  0.00000000000E+00 0. -1.
</event>
<event>
 7    1  0.6089676E-006  0.1064340E+03  0.7818608E-02  0.1363801E+00
          2   -1    0    0  502    0  0.00000000000E+00  0.00000000000E+00  0.94036956954E+02  0.94036956954E+02  0.00000000000E+00 0. -1.
          1   -1    0    0  501    0 -0.00000000000E+00 -0.00000000000E+00 -0.12373407068E+04  0.12373407068E+04  0.00000000000E+00 0. -1.
         25    2    1    2    0    0 -0.10202010868E+03 -0.93246627571E+02 -0.24226866012E+03  0.30564986770E+03  0.12499880726E+03 0.  0.
          2    1    1    2  501    0  0.43566475259E+02  0.96840531886E+01 -0.92077565691E+03  0.92185662064E+03  0.00000000000E+00 0. -1.
          1    1    1    2  502    0  0.58453633423E+02  0.83562574382E+02  0.19740567157E+02  0.10387117545E+03  0.00000000000E+00 0. -1.
         22    1    3    3    0    0  0.21563666829E+02  0.83640573770E+01 -0.52946120375E+02  0.57777511591E+02  0.00000000000E+00 0. -1.
         22    1    3    3    0    0 -0.12358377551E+03 -0.10161068495E+03 -0.18932253975E+03  0.24787235611E+03  0.00000000000E+00 0. -1.
</event>
<event>
 7    1  0.6089676E-006  0.7735148E+02  0.7818608E-02  0.1403586E+00
          2   -1    0    0  502    0  0.00000000000E+00  0.00000000000E+00  0.42848753007E+03  0.42848753007E+03  0.00000000000E+00 0. -1.
          1   -1    0    0  501    0 -0.00000000000E+00 -0.00000000000E+00 -0.61781198969E+03  0.61781198969E+03  0.00000000000E+00 0. -1.
         25    2    1    2    0    0  0.10935556278E+03  0.52514975045E+02  0.20606818870E+03  0.26982983879E+03  0.12501032673E+03 0.  0.
          2    1    1    2  501    0 -0.69960904288E+02 -0.31883752148E+02 -0.58076799828E+03  0.58583493375E+03  0.00000000000E+00 0. -1.
          1    1    1    2  502    0 -0.39394658489E+02 -0.20631222897E+02  0.18537534996E+03  0.19063474722E+03  0.00000000000E+00 0. -1.
         22    1    3    3    0    0  0.12223951412E+03  0.99739016177E+01  0.11333179194E+03  0.16699123506E+03  0.00000000000E+00 0.  1.
         22    1    3    3    0    0 -0.12883951339E+02  0.42541073428E+02  0.92736396767E+02  0.10283860372E+03  0.00000000000E+00 0.  1.
</event>
<event>
 7    1  0.6089676E-006  0.4771643E+02  0.7818608E-02  0.1527553E+00
          2   -1    0    0  502    0  0.00000000000E+00  0.00000000000E+00  0.19795710822E+04  0.19795710822E+04  0.00000000000E+00 0. -1.
          1   -1    0    0  501    0 -0.00000000000E+00 -0.00000000000E+00 -0.86446077498E+02  0.86446077498E+02  0.00000000000E+00 0. -1.
         25    2    1    2    0    0  0.25059688965E+02 -0.70469926092E+02  0.43396644794E+03  0.45776156841E+03  0.12499910833E+03 0.  0.
          2    1    1    2  501    0 -0.23435916576E+02  0.41062253192E+02 -0.66895813205E+02  0.81917035147E+02  0.00000000000E+00 0. -1.
          1    1    1    2  502    0 -0.16237723893E+01  0.29407672901E+02  0.15260543700E+04  0.15263385561E+04  0.00000000000E+00 0. -1.
         22    1    3    3    0    0  0.84053681957E+01 -0.72070519857E+02  0.10092811465E+03  0.12430323558E+03  0.00000000000E+00 0.  1.
         22    1    3    3    0    0  0.16654320769E+02  0.16005937644E+01  0.33303833328E+03  0.33345833283E+03  0.00000000000E+00 0.  1.
</event>
<event>
 7    1  0.6089676E-006  0.1629124E+03  0.7818608E-02  0.1212330E+00
          2   -1    0    0  502    0  0.00000000000E+00  0.00000000000E+00  0.96446756469E+03  0.96446756469E+03  0.00000000000E+00 0. -1.
          1   -1    0    0  501    0 -0.00000000000E+00 -0.00000000000E+00 -0.48165177895E+03  0.48165177895E+03  0.00000000000E+00 0. -1.
         25    2    1    2    0    0 -0.74981275472E+02  0.10570786712E+03  0.32007599966E+02  0.18288172580E+03  0.12499957732E+03 0.  0.
          2    1    1    2  501    0 -0.26598072483E+02 -0.17254218965E+03 -0.38284079054E+03  0.42076755528E+03  0.00000000000E+00 0. -1.
          1    1    1    2  502    0  0.10157934796E+03  0.66834322527E+02  0.83364897632E+03  0.84247006256E+03  0.00000000000E+00 0. -1.
         22    1    3    3    0    0 -0.41526192803E+01  0.10776172836E+03  0.82924005984E+01  0.10816005849E+03  0.00000000000E+00 0.  1.
         22    1    3    3    0    0 -0.70828656192E+02 -0.20538612306E+01  0.23715199367E+02  0.74721667306E+02  0.00000000000E+00 0.  1.
</event>
<event>
 7    1  0.6089676E-006  0.3083850E+02  0.7818608E-02  0.1614540E+00
          2   -1    0    0  502    0  0.00000000000E+00  0.00000000000E+00  0.24382269724E+03  0.24382269724E+03  0.00000000000E+00 0. -1.
          1   -1    0    0  501    0 -0.00000000000E+00 -0.00000000000E+00 -0.88411939205E+03  0.88411939205E+03  0.00000000000E+00 0. -1.
         25    2    1    2    0    0 -0.35138061494E+01 -0.39442752625E+02 -0.62561694207E+03  0.63920955666E+03  0.12499688614E+03 0.  0.
          2    1    1    2  501    0 -0.19020694325E+02  0.18387124301E+02 -0.25000205710E+03  0.25139789520E+03  0.00000000000E+00 0. -1.
          1    1    1    2  502    0  0.22534500474E+02  0.21055628324E+02  0.23532230437E+03  0.23733463744E+03  0.00000000000E+00 0. -1.
         22    1    3    3    0    0  0.20013370574E+01 -0.52380133834E+02 -0.95776673280E+02  0.10918266765E+03  0.00000000000E+00 0.  1.
         22    1    3    3    0    0 -0.55151432068E+01  0.12937381209E+02 -0.52984026879E+03  0.53002688901E+03  0.00000000000E+00 0.  1.
</event>
<event>
 7    1  0.6089676E-006  0.7310796E+02  0.7818608E-02  0.1478012E+00
          2   -1    0    0  502    0  0.00000000000E+00  0.00000000000E+00  0.20811393755E+04  0.20811393755E+04  0.00000000000E+00 0. -1.
          1   -1    0    0  501    0 -0.00000000000E+00 -0.00000000000E+00 -0.12903138790E+04  0.12903138790E+04  0.00000000000E+00 0. -1.
         25    2    1    2    0    0  0.89023760137E+01 -0.65355815460E+02  0.10833557212E+04  0.10925362282E+04  0.12500062611E+03 0.  0.
          2    1    1    2  501    0  0.17487479924E+02  0.70997232237E+02 -0.12845004008E+04  0.12865798454E+04  0.00000000000E+00 0. -1.
          1    1    1    2  502    0 -0.26389855937E+02 -0.56414167767E+01  0.99197017614E+03  0.99233718081E+03  0.00000000000E+00 0. -1.
         22    1    3    3    0    0  0.59089930748E+00 -0.93649741427E+02  0.51703248536E+03  0.52544572902E+03  0.00000000000E+00 0.  1.
         22    1    3    3    0    0  0.83114767062E+01  0.28293925967E+02  0.56632323580E+03  0.56709049922E+03  0.00000000000E+00 0.  1.
</event>
<event>
 7    1  0.6089676E-006  0.1245338E+03  0.7818608E-02  0.1291184E+00
          2   -1    0    0  502    0  0.00000000000E+00  0.00000000000E+00  0.12571131318E+04  0.12571131318E+04  0.00000000000E+00 0. -1.
          1   -1    0    0  501    0 -0.00000000000E+00 -0.00000000000E+00 -0.56968267005E+03  0.56968267005E+03  0.00000000000E+00 0. -1.
         25    2    1    2    0    0 -0.14130228466E+03 -0.79796282362E+02 -0.30768646710E+03  0.36963355037E+03  0.12499686873E+03 0.  0.
          2    1    1    2  501    0  0.69206114809E+02 -0.21486738678E+02 -0.22209492106E+03  0.23361789363E+03  0.00000000000E+00 0. -1.
          1    1    1    2  502    0  0.72096169849E+02  0.10128302104E+03  0.12172118499E+04  0.12235443578E+04  0.00000000000E+00 0. -1.
         22    1    3    3    0    0 -0.13121802889E+03 -0.23801861867E+02 -0.27071741708E+03  0.30178240446E+03  0.00000000000E+00 0.  1.
         22    1    3    3    0    0 -0.10084255765E+02 -0.55994420495E+02 -0.36969050021E+02  0.67851145903E+02  0.00000000000E+00 0.  1.
</event>
<event>
 7    1  0.6089676E-006  0.1315033E+03  0.7818608E-02  0.1310554E+00
          2   -1    0    0  502    0  0.00000000000E+00  0.00000000000E+00  0.34606325206E+04  0.34606325206E+04  0.00000000000E+00 0. -1.
          1   -1    0    0  501    0 -0.00000000000E+00 -0.00000000000E+00 -0.71457110532E+02  0.71457110532E+02  0.00000000000E+00 0. -1.
         25    2    1    2    0    0 -0.11199808159E+03  0.21631478069E+02  0.16697598887E+04  0.16783094139E+04  0.12495163693E+03 0.  0.
          2    1    1    2  501    0  0.10666390652E+03 -0.78799653342E+02 -0.79001244663E+00  0.13261673514E+03  0.00000000000E+00 0. -1.
          1    1    1    2  502    0  0.53341750741E+01  0.57168175274E+02  0.17202055338E+04  0.17211634821E+04  0.00000000000E+00 0. -1.
         22    1    3    3    0    0  0.73387648510E+01  0.45730516260E+02  0.55165287903E+03  0.55359374683E+03  0.00000000000E+00 0.  1.
         22    1    3    3    0    0 -0.11933684644E+03 -0.24099038191E+02  0.11181070097E+04  0.11247156671E+04  0.00000000000E+00 0.  1.
</event>
<event>
 7    1  0.6089676E-006  0.6432351E+02  0.7818608E-02  0.1491797E+00
          2   -1    0    0  502    0  0.00000000000E+00  0.00000000000E+00  0.24176918785E+04  0.24176918785E+04  0.00000000000E+00 0. -1.
          1   -1    0    0  501    0 -0.00000000000E+00 -0.00000000000E+00 -0.18769357674E+04  0.18769357674E+04  0.00000000000E+00 0. -1.
         25    2    1    2    0    0  0.22144923709E+02  0.37392276889E+02  0.32090094647E+03  0.34711725171E+03  0.12499755587E+03 0.  0.
          2    1    1    2  501    0  0.27382794093E+02  0.50477141900E+01 -0.18632131561E+04  0.18634211982E+04  0.00000000000E+00 0. -1.
          1    1    1    2  502    0 -0.49527717802E+02 -0.42439991079E+02  0.20830683208E+04  0.20840891959E+04  0.00000000000E+00 0. -1.
         22    1    3    3    0    0 -0.15744839112E+02  0.13351169403E+00  0.27900268001E+03  0.27944661966E+03  0.00000000000E+00 0.  1.
         22    1    3    3    0    0  0.37889762821E+02  0.37258765195E+02  0.41898266460E+02  0.67670632056E+02  0.00000000000E+00 0.  1.
</event>
<event>
 7    1  0.6089676E-006  0.1045223E+03  0.7818608E-02  0.1459881E+00
          2   -1    0    0  502    0  0.00000000000E+00  0.00000000000E+00  0.22171549772E+03  0.22171549772E+03  0.00000000000E+00 0. -1.
          1   -1    0    0  501    0 -0.00000000000E+00 -0.00000000000E+00 -0.65300153209E+03  0.65300153209E+03  0.00000000000E+00 0. -1.
         25    2    1    2    0    0 -0.57319840313E+01  0.88261194820E+02 -0.26369079468E+03  0.30492689934E+03  0.12499873835E+03 0.  0.
          2    1    1    2  501    0 -0.15471265218E+02  0.14925600718E+02 -0.35454908785E+03  0.35520021016E+03  0.00000000000E+00 0. -1.
          1    1    1    2  502    0  0.21203249249E+02 -0.10318679554E+03  0.18695384816E+03  0.21458992030E+03  0.00000000000E+00 0. -1.
         22    1    3    3    0    0  0.17419647339E+02  0.21724410009E+02 -0.22058583682E+03  0.22233646914E+03  0.00000000000E+00 0.  1.
         22    1    3    3    0    0 -0.23151631370E+02  0.66536784811E+02 -0.43104957860E+02  0.82590430197E+02  0.00000000000E+00 0.  1.
</event>
<event>
 7    1  0.6089676E-006  0.4413031E+02  0.7818608E-02  0.1540765E+00
          2   -1    0    0  502    0  0.00000000000E+00  0.00000000000E+00  0.98263729468E+03  0.98263729468E+03  0.00000000000E+00 0. -1.
          1   -1    0    0  501    0 -0.00000000000E+00 -0.00000000000E+00 -0.66792708263E+03  0.66792708263E+03  0.00000000000E+00 0. -1.
         25    2    1    2    0    0  0.14278732429E+02  0.25521606891E+02 -0.32721276244E+02  0.13243978013E+03  0.12495750807E+03 0.  0.
          2    1    1    2  501    0 -0.23103717649E+02  0.17859789622E+02 -0.58445654699E+03  0.58518561942E+03  0.00000000000E+00 0. -1.
          1    1    1    2  502    0  0.88249852200E+01 -0.43381396513E+02  0.93188803528E+03  0.93293897776E+03  0.00000000000E+00 0. -1.
         22    1    3    3    0    0  0.23494311218E+02 -0.48400278605E+02 -0.15327830474E+02  0.55942041576E+02  0.00000000000E+00 0. -1.
         22    1    3    3    0    0 -0.92155787888E+01  0.73921885496E+02 -0.17393445770E+02  0.76497738551E+02  0.00000000000E+00 0. -1.
</event>
<event>
 7    1  0.6089676E-006  0.8710584E+02  0.7818608E-02  0.1453515E+00
          2   -1    0    0  502    0  0.00000000000E+00  0.00000000000E+00  0.68940946255E+03  0.68940946255E+03  0.00000000000E+00 0. -1.
          1   -1    0    0  501    0 -0.00000000000E+00 -0.00000000000E+00 -0.43089818496E+03  0.43089818496E+03  0.00000000000E+00 0. -1.
         25    2    1    2    0    0  0.56840548001E+02  0.48276595544E+02  0.11983254666E+03  0.18853728598E+03  0.12499996557E+03 0.  0.
          2    1    1    2  501    0  0.24178398696E+02 -0.12066523099E+02 -0.39239948279E+03  0.39332880652E+03  0.00000000000E+00 0. -1.
          1    1    1    2  502    0 -0.81018946697E+02 -0.36210072444E+02  0.53107821372E+03  0.53844155501E+03  0.00000000000E+00 0. -1.
         22    1    3    3    0    0  0.45049069748E-01  0.24072871977E+02 -0.22775215269E+02  0.33139336523E+02  0.00000000000E+00 0.  1.
         22    1    3    3    0    0  0.56795498931E+02  0.24203723567E+02  0.14260776193E+03  0.15539794946E+03  0.00000000000E+00 0.  1.
</event>
<event>
 7    1  0.6089676E-006  0.3073969E+02  0.7818608E-02  0.1628502E+00
          2   -1    0    0  502    0  0.00000000000E+00  0.00000000000E+00  0.19666232888E+03  0.19666232888E+03  0.00000000000E+00 0. -1.
          1   -1    0    0  501    0 -0.00000000000E+00 -0.00000000000E+00 -0.96619495532E+03  0.96619495532E+03  0.00000000000E+00 0. -1.
         25    2    1    2    0    0  0.23048033470E+02  0.12710336874E+02 -0.52446017095E+01  0.12784629497E+03  0.12499761910E+03 0.  0.
          2    1    1    2  501    0 -0.16814275085E+02  0.17761064224E+02 -0.89769411561E+03  0.89802722701E+03  0.00000000000E+00 0. -1.
          1    1    1    2  502    0 -0.62337583849E+01 -0.30471401098E+02  0.13340609088E+03  0.13698376222E+03  0.00000000000E+00 0. -1.
         22    1    3    3    0    0  0.58840220336E+01  0.68550308720E+02 -0.85661148598E+01  0.69333576748E+02  0.00000000000E+00 0. -1.
         22    1    3    3    0    0  0.17164011436E+02 -0.55839971846E+02  0.33215131503E+01  0.58512718224E+02  0.00000000000E+00 0. -1.
</event>
<event>
 7    1  0.7895036E-006  0.7459860E+02  0.7818608E-02  0.1352642E+00
          2   -1    0    0  502    0  0.00000000000E+00  0.00000000000E+00  0.15426484247E+04  0.15426484247E+04  0.00000000000E+00 0. -1.
          1   -1    0    0  501    0 -0.00000000000E+00 -0.00000000000E+00 -0.13383957230E+04  0.13383957230E+04  0.00000000000E+00 0. -1.
         25    2    1    2    0    0  0.11548738668E+03 -0.70125626077E+02 -0.15283325167E+03  0.23924465744E+03  0.12500025353E+03 0.  0.
          2    1    1    2  501    0 -0.42589766915E+02  0.55493561300E+02 -0.11403626360E+04  0.11425061773E+04  0.00000000000E+00 0. -1.
          1    1    1    2  502    0 -0.72897619769E+02  0.14632064777E+02  0.14974485894E+04  0.14992933129E+04  0.00000000000E+00 0. -1.
         22    1    3    3    0    0  0.10630562321E+03 -0.10410672240E+03 -0.12621453462E+03  0.19511331047E+03  0.00000000000E+00 0. -1.
         22    1    3    3    0    0  0.91817634762E+01  0.33981096324E+02 -0.26618717049E+02  0.44131346969E+02  0.00000000000E+00 0. -1.
</event>
<event>
 7    1  0.6089676E-006  0.2579102E+02  0.7818608E-02  0.1674019E+00
          2   -1    0    0  502    0  0.00000000000E+00  0.00000000000E+00  0.27382937344E+03  0.27382937344E+03  0.00000000000E+00 0. -1.
          1   -1    0    0  501    0 -0.00000000000E+00 -0.00000000000E+00 -0.13171037667E+03  0.13171037667E+03  0.00000000000E+00 0. -1.
         25    2    1    2    0    0 -0.42734453169E+02 -0.11405665305E+02 -0.77268796155E+02  0.15346672964E+03  0.12500099022E+03 0.  0.
          2    1    1    2  501    0  0.22189305468E+02 -0.40259275437E+01 -0.74762099101E+01  0.23758516039E+02  0.00000000000E+00 0. -1.
          1    1    1    2  502    0  0.20545147701E+02  0.15431592849E+02  0.22686400283E+03  0.22831450443E+03  0.00000000000E+00 0. -1.
         22    1    3    3    0    0 -0.18391382334E+02 -0.66016298323E+02 -0.60383626810E+02  0.91337708397E+02  0.00000000000E+00 0.  1.
         22    1    3    3    0    0 -0.24343070835E+02  0.54610633018E+02 -0.16885169344E+02  0.62129021239E+02  0.00000000000E+00 0.  1.
</event>
<event>
 7    1  0.6089676E-006  0.9517883E+02  0.7818608E-02  0.1454394E+00
          2   -1    0    0  502    0  0.00000000000E+00  0.00000000000E+00  0.19325067097E+03  0.19325067097E+03  0.00000000000E+00 0. -1.
          1   -1    0    0  501    0 -0.00000000000E+00 -0.00000000000E+00 -0.31978815827E+03  0.31978815827E+03  0.00000000000E+00 0. -1.
         25    2    1    2    0    0 -0.18468817397E+02 -0.75708526272E+02 -0.74347276961E+01  0.14748948101E+03  0.12499997466E+03 0.  0.
          2    1    1    2  501    0  0.71138223956E+01  0.97498840370E+02 -0.23108019927E+03  0.25090772973E+03  0.00000000000E+00 0. -1.
          1    1    1    2  502    0  0.11354995002E+02 -0.21790314098E+02  0.11197743967E+03  0.11464161851E+03  0.00000000000E+00 0. -1.
         22    1    3    3    0    0  0.14175500061E+02  0.20204535731E+02 -0.34687318183E+02  0.42572034351E+02  0.00000000000E+00 0. -1.
         22    1    3    3    0    0 -0.32644317458E+02 -0.95913062003E+02  0.27252590487E+02  0.10491744666E+03  0.00000000000E+00 0. -1.
</event>
<event>
 7    1  0.6089676E-006  0.8679020E+02  0.7818608E-02  0.1398025E+00
          2   -1    0    0  502    0  0.00000000000E+00  0.00000000000E+00  0.57423989185E+02  0.57423989185E+02  0.00000000000E+00 0. -1.
          1   -1    0    0  501    0 -0.00000000000E+00 -0.00000000000E+00 -0.16500725610E+04  0.16500725610E+04  0.00000000000E+00 0. -1.
         25    2    1    2    0    0  0.11743896512E+02  0.12180793120E+03 -0.38383385503E+03  0.42181583412E+03  0.12500031377E+03 0.  0.
          2    1    1    2  501    0 -0.21216687494E+02 -0.81490114830E+02 -0.12342229963E+04  0.12370922323E+04  0.00000000000E+00 0. -1.
          1    1    1    2  502    0  0.94727909821E+01 -0.40317816368E+02  0.25408279513E+02  0.48588483754E+02  0.00000000000E+00 0. -1.
         22    1    3    3    0    0  0.24499090786E+02  0.53578740110E+02 -0.32654274761E+03  0.33181478698E+03  0.00000000000E+00 0.  1.
         22    1    3    3    0    0 -0.12755194273E+02  0.68229191088E+02 -0.57291107414E+02  0.90001047140E+02  0.00000000000E+00 0.  1.
</event>
<event>
 7    1  0.6089676E-006  0.1177161E+03  0.7818608E-02  0.1342631E+00
          2   -1    0    0  502    0  0.00000000000E+00  0.00000000000E+00  0.45696521018E+04  0.45696521018E+04  0.00000000000E+00 0. -1.
          1   -1    0    0  501    0 -0.00000000000E+00 -0.00000000000E+00 -0.17312450010E+03  0.17312450010E+03  0.00000000000E+00 0. -1.
         25    2    1    2    0    0  0.12769398011E+03  0.80757741764E+02  0.15632942319E+04  0.15755443348E+04  0.12499411988E+03 0.  0.
          2    1    1    2  501    0 -0.48285924821E+02 -0.10813536830E+01 -0.16242950473E+03  0.16945808883E+03  0.00000000000E+00 0. -1.
          1    1    1    2  502    0 -0.79408055292E+02 -0.79676388081E+02  0.29956628746E+04  0.29977741783E+04  0.00000000000E+00 0. -1.
         22    1    3    3    0    0  0.31366464561E+02  0.19117470523E+02  0.82114115602E+02  0.89955882294E+02  0.00000000000E+00 0.  1.
         22    1    3    3    0    0  0.96327515553E+02  0.61640271241E+02  0.14811801163E+04  0.14855884525E+04  0.00000000000E+00 0.  1.
</event>
<event>
 7    1  0.9484931E-006  0.7894509E+02  0.7818608E-02  0.1370977E+00
          2   -1    0    0  502    0  0.00000000000E+00  0.00000000000E+00  0.14436212416E+04  0.14436212416E+04  0.00000000000E+00 0. -1.
          1   -1    0    0  501    0 -0.00000000000E+00 -0.00000000000E+00 -0.10059468198E+04  0.10059468198E+04  0.00000000000E+00 0. -1.
         25    2    1    2    0    0  0.94155991065E+02  0.77644261992E+02 -0.35562785894E+03  0.39621993103E+03  0.12500031045E+03 0.  0.
          2    1    1    2  501    0 -0.70047517976E+02 -0.26339920227E+02 -0.62723331756E+03  0.63168194594E+03  0.00000000000E+00 0. -1.
          1    1    1    2  502    0 -0.24108473089E+02 -0.51304341764E+02  0.14205355982E+04  0.14216661844E+04  0.00000000000E+00 0. -1.
         22    1    3    3    0    0  0.55882272523E+02  0.10771141558E+03 -0.29122535945E+03  0.31549451250E+03  0.00000000000E+00 0.  1.
         22    1    3    3    0    0  0.38273718542E+02 -0.30067153589E+02 -0.64402499491E+02  0.80725418529E+02  0.00000000000E+00 0.  1.
</event>
<event>
 7    1  0.6089676E-006  0.1512485E+03  0.7818608E-02  0.1368882E+00
          2   -1    0    0  502    0  0.00000000000E+00  0.00000000000E+00  0.22573901806E+03  0.22573901806E+03  0.00000000000E+00 0. -1.
          1   -1    0    0  501    0 -0.00000000000E+00 -0.00000000000E+00 -0.86689385760E+03  0.86689385760E+03  0.00000000000E+00 0. -1.
         25    2    1    2    0    0  0.86340531893E+02 -0.12210952886E+03  0.34851801174E+02  0.19799282519E+03  0.12498434420E+03 0.  0.
          2    1    1    2  501    0  0.25154402686E+02  0.16540729203E+02 -0.73094373715E+03  0.73156345355E+03  0.00000000000E+00 0. -1.
          1    1    1    2  502    0 -0.11149493458E+03  0.10556879966E+03  0.54937096435E+02  0.16307659692E+03  0.00000000000E+00 0. -1.
         22    1    3    3    0    0  0.67607979172E+02 -0.13506636800E+02  0.52138153930E+02  0.86438736575E+02  0.00000000000E+00 0. -1.
         22    1    3    3    0    0  0.18732552721E+02 -0.10860289206E+03 -0.17286352757E+02  0.11155408861E+03  0.00000000000E+00 0. -1.
</event>
<event>
 7    1  0.6089676E-006  0.1602862E+03  0.7818608E-02  0.1242983E+00
          2   -1    0    0  502    0  0.00000000000E+00  0.00000000000E+00  0.45899377781E+03  0.45899377781E+03  0.00000000000E+00 0. -1.
          1   -1    0    0  501    0 -0.00000000000E+00 -0.00000000000E+00 -0.27940028377E+03  0.27940028377E+03  0.00000000000E+00 0. -1.
         25    2    1    2    0    0 -0.44986238233E+02  0.78359609418E+02  0.22945545601E+03  0.27647346540E+03  0.12499512295E+03 0.  0.
          2    1    1    2  501    0  0.27871653637E+02 -0.16665900878E+03 -0.21525433657E+03  0.27365394880E+03  0.00000000000E+00 0. -1.
          1    1    1    2  502    0  0.17114584596E+02  0.88299399358E+02  0.16539237461E+03  0.18826664737E+03  0.00000000000E+00 0. -1.
         22    1    3    3    0    0 -0.57892828832E+02  0.59703065125E+02  0.53109912922E+02  0.98674710368E+02  0.00000000000E+00 0. -1.
         22    1    3    3    0    0  0.12906590599E+02  0.18656544293E+02  0.17634554308E+03  0.17779875503E+03  0.00000000000E+00 0. -1.
</event>
<event>
 7    1  0.6089676E-006  0.6610253E+02  0.7818608E-02  0.1389581E+00
          2   -1    0    0  502    0  0.00000000000E+00  0.00000000000E+00  0.21984661711E+03  0.21984661711E+03  0.00000000000E+00 0. -1.
          1   -1    0    0  501    0 -0.00000000000E+00 -0.00000000000E+00 -0.19376060742E+04  0.19376060742E+04  0.00000000000E+00 0. -1.
         25    2    1    2    0    0  0.29709983885E+01 -0.19417604042E+02  0.53485355903E+02  0.13737579699E+03  0.12500222448E+03 0.  0.
          2    1    1    2  501    0 -0.64495425269E+02 -0.14487375641E+02 -0.18851192376E+04  0.18862778385E+04  0.00000000000E+00 0. -1.
          1    1    1    2  502    0  0.61524426880E+02  0.33904979684E+02  0.11387442464E+03  0.13379905582E+03  0.00000000000E+00 0. -1.
         22    1    3    3    0    0  0.42114351872E+02  0.37825567051E+02  0.17515257406E+02  0.59255180350E+02  0.00000000000E+00 0.  1.
         22    1    3    3    0    0 -0.39143353483E+02 -0.57243171094E+02  0.35970098497E+02  0.78120616643E+02  0.00000000000E+00 0.  1.
</event>
<event>
 7    1  0.6089676E-006  0.5418644E+02  0.7818608E-02  0.1428245E+00
          2   -1    0    0  502    0  0.00000000000E+00  0.00000000000E+00  0.66824752800E+03  0.66824752800E+03  0.00000000000E+00 0. -1.
          1   -1    0    0  501    0 -0.00000000000E+00 -0.00000000000E+00 -0.18691047442E+04  0.18691047442E+04  0.00000000000E+00 0. -1.
         25    2    1    2    0    0 -0.38035432200E+02  0.97663348506E+02  0.96692400316E+02  0.18962803123E+03  0.12499818480E+03 0.  0.
          2    1    1    2  501    0  0.14694595063E+02 -0.50355285813E+02 -0.18209333369E+04  0.18216887230E+04  0.00000000000E+00 0. -1.
          1    1    1    2  502    0  0.23340837137E+02 -0.47308062692E+02  0.52338372037E+03  0.52603551803E+03  0.00000000000E+00 0. -1.
         22    1    3    3    0    0 -0.33282043466E+02  0.12660710708E+03  0.64031095092E+02  0.14572932141E+03  0.00000000000E+00 0. -1.
         22    1    3    3    0    0 -0.47533887343E+01 -0.28943758571E+02  0.32661305223E+02  0.43898709817E+02  0.00000000000E+00 0. -1.
</event>
<event>
 7    1  0.6089676E-006  0.6039934E+02  0.7818608E-02  0.1459247E+00
          2   -1    0    0  502    0  0.00000000000E+00  0.00000000000E+00  0.78072720481E+03  0.78072720481E+03  0.00000000000E+00 0. -1.
          1   -1    0    0  501    0 -0.00000000000E+00 -0.00000000000E+00 -0.10224564907E+03  0.10224564907E+03  0.00000000000E+00 0. -1.
         25    2    1    2    0    0 -0.10584402611E+00 -0.27902724563E+02  0.54663070640E+03  0.56143410112E+03  0.12499818992E+03 0.  0.
          2    1    1    2  501    0  0.25232792749E+02  0.55568393834E+02 -0.83245393946E+02  0.10321984226E+03  0.00000000000E+00 0. -1.
          1    1    1    2  502    0 -0.25126948723E+02 -0.27665669271E+02  0.21509624329E+03  0.21831891051E+03  0.00000000000E+00 0. -1.
         22    1    3    3    0    0  0.58071988775E+02 -0.37346613008E+02  0.28432047633E+03  0.29258376346E+03  0.00000000000E+00 0.  1.
         22    1    3    3    0    0 -0.58177832801E+02  0.94438884447E+01  0.26231023007E+03  0.26885033766E+03  0.00000000000E+00 0.  1.
</event>
<event>
 7    1  0.6089676E-006  0.8507306E+02  0.7818608E-02  0.1481053E+00
          2   -1    0    0  502    0  0.00000000000E+00  0.00000000000E+00  0.85762899574E+03  0.85762899574E+03  0.00000000000E+00 0. -1.
          1   -1    0    0  501    0 -0.00000000000E+00 -0.00000000000E+00 -0.13233854389E+03  0.13233854389E+03  0.00000000000E+00 0. -1.
         25    2    1    2    0    0 -0.61938785973E+02 -0.15446041810E+02  0.16759635306E+02  0.14134833557E+03  0.12499389257E+03 0.  0.
          2    1    1    2  501    0 -0.19672471150E+02 -0.11321278313E+02 -0.65766394487E+02  0.69572955288E+02  0.00000000000E+00 0. -1.
          1    1    1    2  502    0  0.81611257123E+02  0.26767320122E+02  0.77429721103E+03  0.77904624877E+03  0.00000000000E+00 0. -1.
         22    1    3    3    0    0  0.23032866485E+02 -0.14753986818E+02  0.44263867461E+02  0.52033479878E+02  0.00000000000E+00 0. -1.
         22    1    3    3    0    0 -0.84971652458E+02 -0.69205499187E+00 -0.27504232155E+02  0.89314855696E+02  0.00000000000E+00 0. -1.
</event>
<event>
 7    1  0.6089676E-006  0.7911425E+02  0.7818608E-02  0.1380863E+00
          2   -1    0    0  502    0  0.00000000000E+00  0.00000000000E+00  0.34731803213E+03  0.34731803213E+03  0.00000000000E+00 0. -1.
          1   -1    0    0  501    0 -0.00000000000E+00 -0.00000000000E+00 -0.16499202759E+04  0.16499202759E+04  0.00000000000E+00 0. -1.
         25    2    1    2    0    0 -0.41516060962E+02  0.54980657757E+02  0.12712650460E+03  0.19113103751E+03  0.12499387699E+03 0.  0.
          2    1    1    2  501    0 -0.41152007540E+02 -0.32046449254E+02 -0.16076956861E+04  0.16085415387E+04  0.00000000000E+00 0. -1.
          1    1    1    2  502    0  0.82668068503E+02 -0.22934208502E+02  0.17796693772E+03  0.19756573182E+03  0.00000000000E+00 0. -1.
         22    1    3    3    0    0 -0.88118250954E+01  0.62165058487E+02  0.14141430205E+03  0.15472604042E+03  0.00000000000E+00 0. -1.
         22    1    3    3    0    0 -0.32704235867E+02 -0.71844007301E+01 -0.14287797455E+02  0.36404997097E+02  0.00000000000E+00 0. -1.
</event>
<event>
 7    1  0.6089676E-006  0.6671976E+02  0.7818608E-02  0.1410464E+00
          2   -1    0    0  502    0  0.00000000000E+00  0.00000000000E+00  0.15343992413E+04  0.15343992413E+04  0.00000000000E+00 0. -1.
          1   -1    0    0  501    0 -0.00000000000E+00 -0.00000000000E+00 -0.28543968141E+03  0.28543968141E+03  0.00000000000E+00 0. -1.
         25    2    1    2    0    0 -0.60347742649E+02 -0.21074700880E+02  0.58909259668E+03  0.60559141312E+03  0.12499951649E+03 0.  0.
          2    1    1    2  501    0  0.60816468797E+02 -0.27773932901E+02 -0.27250996013E+03  0.28059171868E+03  0.00000000000E+00 0. -1.
          1    1    1    2  502    0 -0.46872614846E+00  0.48848633782E+02  0.93237692330E+03  0.93365579087E+03  0.00000000000E+00 0. -1.
         22    1    3    3    0    0 -0.77870432415E+02 -0.46379073337E+02  0.26562097760E+03  0.28065873660E+03  0.00000000000E+00 0.  1.
         22    1    3    3    0    0  0.17522689766E+02  0.25304372457E+02  0.32347161908E+03  0.32493267652E+03  0.00000000000E+00 0.  1.
</event>
<event>
 7    1  0.6089676E-006  0.6521942E+02  0.7818608E-02  0.1478330E+00
          2   -1    0    0  502    0  0.00000000000E+00  0.00000000000E+00  0.31416604258E+04  0.31416604258E+04  0.00000000000E+00 0. -1.
          1   -1    0    0  501    0 -0.00000000000E+00 -0.00000000000E+00 -0.53769708977E+03  0.53769708977E+03  0.00000000000E+00 0. -1.
         25    2    1    2    0    0  0.17808961524E+02 -0.30842353598E+02  0.31380412944E+02  0.13370454973E+03  0.12499506557E+03 0.  0.
          2    1    1    2  501    0  0.91960030788E+01 -0.28747107844E+02 -0.48571675600E+03  0.48665360344E+03  0.00000000000E+00 0. -1.
          1    1    1    2  502    0 -0.27004964603E+02  0.59589461442E+02  0.30582996791E+04  0.30589993624E+04  0.00000000000E+00 0. -1.
         22    1    3    3    0    0 -0.17124873291E+02 -0.54463277001E+02 -0.25803957299E+02  0.62652645907E+02  0.00000000000E+00 0. -1.
         22    1    3    3    0    0  0.34933834815E+02  0.23620923403E+02  0.57184370243E+02  0.71051903827E+02  0.00000000000E+00 0. -1.
</event>
<event>
 7    1  0.6089676E-006  0.7159049E+02  0.7818608E-02  0.1408080E+00
          2   -1    0    0  502    0  0.00000000000E+00  0.00000000000E+00  0.22709136496E+04  0.22709136496E+04  0.00000000000E+00 0. -1.
          1   -1    0    0  501    0 -0.00000000000E+00 -0.00000000000E+00 -0.37104912564E+02  0.37104912564E+02  0.00000000000E+00 0. -1.
         25    2    1    2    0    0 -0.12951542959E+02 -0.99919865645E+02  0.12529908515E+04  0.12632351741E+04  0.12500123729E+03 0.  0.
          2    1    1    2  501    0 -0.20587550084E+02  0.67880611482E+02  0.85927993244E+01  0.71452507540E+02  0.00000000000E+00 0. -1.
          1    1    1    2  502    0  0.33539093043E+02  0.32039254163E+02  0.97222508622E+03  0.97333088046E+03  0.00000000000E+00 0. -1.
         22    1    3    3    0    0  0.28777276092E+02 -0.10984503981E+03  0.10226290115E+04  0.10289140681E+04  0.00000000000E+00 0. -1.
         22    1    3    3    0    0 -0.41728819051E+02  0.99251741693E+01  0.23036184000E+03  0.23432110607E+03  0.00000000000E+00 0. -1.
</event>
<event>
 7    1  0.6089676E-006  0.6309081E+02  0.7818608E-02  0.1413563E+00
          2   -1    0    0  502    0  0.00000000000E+00  0.00000000000E+00  0.60009864640E+03  0.60009864640E+03  0.00000000000E+00 0. -1.
          1   -1    0    0  501    0 -0.00000000000E+00 -0.00000000000E+00 -0.75011090399E+03  0.75011090399E+03  0.00000000000E+00 0. -1.
         25    2    1    2    0    0 -0.99171537245E+02  0.17477336099E+01 -0.24951804268E+03  0.29617755949E+03  0.12499537892E+03 0.  0.
          2    1    1    2  501    0  0.54921358124E+02 -0.25937171229E+02 -0.47422012788E+03  0.47809394696E+03  0.00000000000E+00 0. -1.
          1    1    1    2  502    0  0.44250179120E+02  0.24189437619E+02  0.57372591297E+03  0.57593804394E+03  0.00000000000E+00 0. -1.
         22    1    3    3    0    0 -0.77655532103E+02  0.59568576031E+02 -0.15379961506E+03  0.18229952965E+03  0.00000000000E+00 0. -1.
         22    1    3    3    0    0 -0.21516005142E+02 -0.57820842421E+02 -0.95718427612E+02  0.11387802984E+03  0.00000000000E+00 0. -1.
</event>
<event>
 7    1  0.6089676E-006  0.9457966E+02  0.7818608E-02  0.1468585E+00
          2   -1    0    0  502    0  0.00000000000E+00  0.00000000000E+00  0.18508538655E+04  0.18508538655E+04  0.00000000000E+00 0. -1.
          1   -1    0    0  501    0 -0.00000000000E+00 -0.00000000000E+00 -0.53496001771E+03  0.53496001771E+03  0.00000000000E+00 0. -1.
         25    2    1    2    0    0  0.10419971701E+03 -0.35891404403E+02  0.22503892171E+03  0.28002766374E+03  0.12500880864E+03 0.  0.
          2    1    1    2  501    0 -0.83425975725E+02  0.44026676744E+02 -0.50300323888E+03  0.51177192187E+03  0.00000000000E+00 0. -1.
          1    1    1    2  502    0 -0.20773741281E+02 -0.81352723410E+01  0.15938581649E+04  0.15940142976E+04  0.00000000000E+00 0. -1.
         22    1    3    3    0    0  0.59597642573E+02  0.38308842168E+02  0.56744205602E+02  0.90770872299E+02  0.00000000000E+00 0. -1.
         22    1    3    3    0    0  0.44602074433E+02 -0.74200246571E+02  0.16829471611E+03  0.18925679144E+03  0.00000000000E+00 0. -1.
</event>
<event>
 7    1  0.6089676E-006  0.5855634E+02  0.7818608E-02  0.1415298E+00
          2   -1    0    0  502    0  0.00000000000E+00  0.00000000000E+00  0.11894334343E+04  0.11894334343E+04  0.00000000000E+00 0. -1.
          1   -1    0    0  501    0 -0.00000000000E+00 -0.00000000000E+00 -0.16341390076E+03  0.16341390076E+03  0.00000000000E+00 0. -1.
         25    2    1    2    0    0  0.28891733133E+02 -0.13509652026E+02  0.77167426918E+03  0.78238301882E+03  0.12499906987E+03 0.  0.
          2    1    1    2  501    0 -0.32735933914E+00  0.58875366289E+02 -0.15074886107E+03  0.16183829903E+03  0.00000000000E+00 0. -1.
          1    1    1    2  502    0 -0.28564373793E+02 -0.45365714263E+02  0.40509412547E+03  0.40862601725E+03  0.00000000000E+00 0. -1.
         22    1    3    3    0    0  0.21734168263E+01 -0.59786304857E+02  0.58965527882E+03  0.59268243928E+03  0.00000000000E+00 0.  1.
         22    1    3    3    0    0  0.26718316306E+02  0.46276652830E+02  0.18201899037E+03  0.18970057954E+03  0.00000000000E+00 0.  1.
</event>
<event>
 7    1  0.6089676E-006  0.4278879E+03  0.7818608E-02  0.1163811E+00
          2   -1    0    0  502    0  0.00000000000E+00  0.00000000000E+00  0.18341707322E+04  0.18341707322E+04  0.00000000000E+00 0. -1.
          1   -1    0    0  501    0 -0.00000000000E+00 -0.00000000000E+00 -0.56219140505E+03  0.56219140505E+03  0.00000000000E+00 0. -1.
         25    2    1    2    0    0  0.46364727590E+03 -0.60485974180E+02 -0.96381838629E+01  0.48409368383E+03  0.12500580232E+03 0.  0.
          2    1    1    2  501    0 -0.39459688267E+03  0.99447989512E+02 -0.18251461151E+03  0.44599123965E+03  0.00000000000E+00 0. -1.
          1    1    1    2  502    0 -0.69050393231E+02 -0.38962015332E+02  0.14641321225E+04  0.14662772138E+04  0.00000000000E+00 0. -1.
         22    1    3    3    0    0  0.46759879519E+03 -0.54664296380E+02 -0.20412383920E+02  0.47122551287E+03  0.00000000000E+00 0.  1.
         22    1    3    3    0    0 -0.39515192871E+01 -0.58216777998E+01  0.10774200057E+02  0.12868170964E+02  0.00000000000E+00 0.  1.
</event>
<event>
 7    1  0.6863403E-006  0.8530648E+02  0.7818608E-02  0.1353661E+00
          2   -1    0    0  502    0  0.00000000000E+00  0.00000000000E+00  0.11341503809E+04  0.11341503809E+04  0.00000000000E+00 0. -1.
          1   -1    0    0  501    0 -0.00000000000E+00 -0.00000000000E+00 -0.73985694906E+03  0.73985694906E+03  0.00000000000E+00 0. -1.
         25    2    1    2    0    0 -0.13555160339E+03 -0.26392743588E+02 -0.25435248857E+03  0.31526351738E+03  0.12500033143E+03 0.  0.
          2    1    1    2  501    0  0.74906084365E+02  0.26420072446E+02 -0.45074077740E+03  0.45768568921E+03  0.00000000000E+00 0. -1.
          1    1    1    2  502    0  0.60645519025E+02 -0.27328858289E-01  0.10993866978E+04  0.11010581234E+04  0.00000000000E+00 0. -1.
         22    1    3    3    0    0 -0.81889451235E+02  0.44983480988E+02 -0.16051729592E+03  0.18572882941E+03  0.00000000000E+00 0. -1.
         22    1    3    3    0    0 -0.53662152154E+02 -0.71376224576E+02 -0.93835192644E+02  0.12953468797E+03  0.00000000000E+00 0. -1.
</event>
<event>
 7    1  0.6089676E-006  0.2094053E+03  0.7818608E-02  0.1308943E+00
          2   -1    0    0  502    0  0.00000000000E+00  0.00000000000E+00  0.67611448721E+03  0.67611448721E+03  0.00000000000E+00 0. -1.
          1   -1    0    0  501    0 -0.00000000000E+00 -0.00000000000E+00 -0.84830827601E+03  0.84830827601E+03  0.00000000000E+00 0. -1.
         25    2    1    2    0    0 -0.20574651012E+03 -0.12705003715E+03  0.20166252080E+03  0.33877577637E+03  0.12501166342E+03 0.  0.
          2    1    1    2  501    0  0.16994078670E+03  0.11952512403E+03 -0.76504311859E+03  0.79275286159E+03  0.00000000000E+00 0. -1.
          1    1    1    2  502    0  0.35805723415E+02  0.75249131217E+01  0.39118680898E+03  0.39289412526E+03  0.00000000000E+00 0. -1.
         22    1    3    3    0    0 -0.14649727397E+03 -0.11858828960E+03  0.20544606475E+03  0.27880588091E+03  0.00000000000E+00 0. -1.
         22    1    3    3    0    0 -0.59249236152E+02 -0.84617475516E+01 -0.37835439463E+01  0.59969895456E+02  0.00000000000E+00 0. -1.
</event>
<event>
 7    1  0.6089676E-006  0.1355167E+03  0.7818608E-02  0.1221372E+00
          2   -1    0    0  502    0  0.00000000000E+00  0.00000000000E+00  0.10029370543E+04  0.10029370543E+04  0.00000000000E+00 0. -1.
          1   -1    0    0  501    0 -0.00000000000E+00 -0.00000000000E+00 -0.18001041011E+04  0.18001041011E+04  0.00000000000E+00 0. -1.
         25    2    1    2    0    0 -0.22264439701E+02  0.89240185295E+02  0.29980661713E+03  0.33759294276E+03  0.12500188552E+03 0.  0.
          2    1    1    2  501    0 -0.13436339150E+03 -0.17642353885E+02 -0.17677399580E+04  0.17729267702E+04  0.00000000000E+00 0. -1.
          1    1    1    2  502    0  0.15662783120E+03 -0.71597831410E+02  0.67076629407E+03  0.69252144244E+03  0.00000000000E+00 0. -1.
         22    1    3    3    0    0 -0.10536911042E+02 -0.29223053665E+02  0.10301804008E+03  0.10759986032E+03  0.00000000000E+00 0.  1.
         22    1    3    3    0    0 -0.11727528659E+02  0.11846323896E+03  0.19678857705E+03  0.22999308244E+03  0.00000000000E+00 0.  1.
</event>
<event>
 7    1  0.6089676E-006  0.1379106E+03  0.7818608E-02  0.1364005E+00
          2   -1    0    0  502    0  0.00000000000E+00  0.00000000000E+00  0.11773597603E+04  0.11773597603E+04  0.00000000000E+00 0. -1.
          1   -1    0    0  501    0 -0.00000000000E+00 -0.00000000000E+00 -0.53405760993E+02  0.53405760993E+02  0.00000000000E+00 0. -1.
         25    2    1    2    0    0 -0.17036620312E+02 -0.12334198761E+03  0.59488924739E+03  0.62050097946E+03  0.12499902607E+03 0.  0.
          2    1    1    2  501    0  0.50326754017E+02  0.13194832536E+03  0.84910831031E+02  0.16478164935E+03  0.00000000000E+00 0. -1.
          1    1    1    2  502    0 -0.33290133706E+02 -0.86063377486E+01  0.44415392093E+03  0.44548289252E+03  0.00000000000E+00 0. -1.
         22    1    3    3    0    0  0.21005734611E+02  0.60969856333E+01  0.18852606058E+02  0.28876199118E+02  0.00000000000E+00 0.  1.
         22    1    3    3    0    0 -0.38042354923E+02 -0.12943897325E+03  0.57603664133E+03  0.59162478035E+03  0.00000000000E+00 0.  1.
</event>
<event>
 7    1  0.6089676E-006  0.1378365E+03  0.7818608E-02  0.1280073E+00
          2   -1    0    0  502    0  0.00000000000E+00  0.00000000000E+00  0.12867843907E+04  0.12867843907E+04  0.00000000000E+00 0. -1.
          1   -1    0    0  501    0 -0.00000000000E+00 -0.00000000000E+00 -0.46289083892E+03  0.46289083892E+03  0.00000000000E+00 0. -1.
         25    2    1    2    0    0  0.86825552390E+02 -0.53668866413E+02  0.88232677909E+02  0.18392768130E+03  0.12500145091E+03 0.  0.
          2    1    1    2  501    0 -0.69141049714E+02  0.12418879006E+03 -0.40167909966E+03  0.42608618780E+03  0.00000000000E+00 0. -1.
          1    1    1    2  502    0 -0.17684502676E+02 -0.70519923647E+02  0.11373399735E+04  0.11396613605E+04  0.00000000000E+00 0. -1.
         22    1    3    3    0    0 -0.18680103781E+02  0.12015649637E+02 -0.11097569858E+02  0.24828978437E+02  0.00000000000E+00 0. -1.
         22    1    3    3    0    0  0.10550565617E+03 -0.65684516049E+02  0.99330247767E+02  0.15909870287E+03  0.00000000000E+00 0. -1.
</event>
<event>
 7    1  0.6089676E-006  0.6445172E+02  0.7818608E-02  0.1497295E+00
          2   -1    0    0  502    0  0.00000000000E+00  0.00000000000E+00  0.60443380016E+02  0.60443380016E+02  0.00000000000E+00 0. -1.
          1   -1    0    0  501    0 -0.00000000000E+00 -0.00000000000E+00 -0.18773003647E+04  0.18773003647E+04  0.00000000000E+00 0. -1.
         25    2    1    2    0    0  0.83848480633E+01 -0.51424585982E+02 -0.45148137177E+03  0.47135473049E+03  0.12500023672E+03 0.  0.
          2    1    1    2  501    0 -0.23964638084E+02 -0.11887201503E+02 -0.13946581558E+04  0.13949146859E+04  0.00000000000E+00 0. -1.
          1    1    1    2  502    0  0.15579790020E+02  0.63311787485E+02  0.29282542877E+02  0.71474328321E+02  0.00000000000E+00 0. -1.
         22    1    3    3    0    0 -0.89977200215E+01 -0.26375050271E+02 -0.43648991769E+03  0.43737861229E+03  0.00000000000E+00 0.  1.
         22    1    3    3    0    0  0.17382568085E+02 -0.25049535712E+02 -0.14991454079E+02  0.33976118201E+02  0.00000000000E+00 0.  1.
</event>
<event>
 7    1  0.6089676E-006  0.1283018E+03  0.7818608E-02  0.1302603E+00
          2   -1    0    0  502    0  0.00000000000E+00  0.00000000000E+00  0.36949980925E+03  0.36949980925E+03  0.00000000000E+00 0. -1.
          1   -1    0    0  501    0 -0.00000000000E+00 -0.00000000000E+00 -0.18369574697E+04  0.18369574697E+04  0.00000000000E+00 0. -1.
         25    2    1    2    0    0 -0.22887123103E+02  0.63072191345E+02  0.14194732074E+03  0.20068927503E+03  0.12500088609E+03 0.  0.
          2    1    1    2  501    0  0.27455780942E+02 -0.12618377156E+03 -0.18001630414E+04  0.18047889460E+04  0.00000000000E+00 0. -1.
          1    1    1    2  502    0 -0.45686578391E+01  0.63111580216E+02  0.19075806019E+03  0.20097905791E+03  0.00000000000E+00 0. -1.
         22    1    3    3    0    0 -0.72174511839E+02  0.18123471768E+02  0.85095158440E+02  0.11304338273E+03  0.00000000000E+00 0.  1.
         22    1    3    3    0    0  0.49287388736E+02  0.44948719576E+02  0.56852162295E+02  0.87645892303E+02  0.00000000000E+00 0.  1.
</event>
<event>
 7    1  0.6089676E-006  0.1273567E+03  0.7818608E-02  0.1299727E+00
          2   -1    0    0  502    0  0.00000000000E+00  0.00000000000E+00  0.21581599070E+04  0.21581599070E+04  0.00000000000E+00 0. -1.
          1   -1    0    0  501    0 -0.00000000000E+00 -0.00000000000E+00 -0.23276388836E+03  0.23276388836E+03  0.00000000000E+00 0. -1.
         25    2    1    2    0    0  0.13269214644E+03  0.24727345239E+02  0.30333389516E+03  0.35476198205E+03  0.12500385845E+03 0.  0.
          2    1    1    2  501    0 -0.33514962040E+02  0.56224550766E+02 -0.19957339672E+03  0.21003331514E+03  0.00000000000E+00 0. -1.
          1    1    1    2  502    0 -0.99177184404E+02 -0.80951896005E+02  0.18216355202E+04  0.18261284982E+04  0.00000000000E+00 0. -1.
         22    1    3    3    0    0  0.59179462794E+02 -0.45043374705E+02  0.78477134903E+02  0.10811926343E+03  0.00000000000E+00 0.  1.
         22    1    3    3    0    0  0.73512683650E+02  0.69770719944E+02  0.22485676026E+03  0.24664271863E+03  0.00000000000E+00 0.  1.
</event>
<event>
 7    1  0.6089676E-006  0.2362116E+03  0.7818608E-02  0.1174413E+00
          2   -1    0    0  502    0  0.00000000000E+00  0.00000000000E+00  0.16436892946E+04  0.16436892946E+04  0.00000000000E+00 0. -1.
          1   -1    0    0  501    0 -0.00000000000E+00 -0.00000000000E+00 -0.21475821892E+03  0.21475821892E+03  0.00000000000E+00 0. -1.
         25    2    1    2    0    0 -0.81694424697E+00 -0.13310119326E+03  0.36462833749E+03  0.40779353743E+03  0.12500059852E+03 0.  0.
          2    1    1    2  501    0  0.13254708783E+02  0.25968838755E+03 -0.10061408416E+03  0.27881344993E+03  0.00000000000E+00 0. -1.
          1    1    1    2  502    0 -0.12437764536E+02 -0.12658719429E+03  0.11649168224E+04  0.11718405262E+04  0.00000000000E+00 0. -1.
         22    1    3    3    0    0 -0.33133320686E+02 -0.14431140876E+03  0.28628207922E+03  0.32230579970E+03  0.00000000000E+00 0. -1.
         22    1    3    3    0    0  0.32316376439E+02  0.11210215508E+02  0.78346258264E+02  0.85487737728E+02  0.00000000000E+00 0. -1.
</event>
<event>
 7    1  0.6089676E-006  0.3545140E+02  0.7818608E-02  0.1629058E+00
          2   -1    0    0  502    0  0.00000000000E+00  0.00000000000E+00  0.66043417295E+03  0.66043417295E+03  0.00000000000E+00 0. -1.
          1   -1    0    0  501    0 -0.00000000000E+00 -0.00000000000E+00 -0.13498590098E+04  0.13498590098E+04  0.00000000000E+00 0. -1.
         25    2    1    2    0    0 -0.42036911695E+02 -0.25015103846E+02 -0.44531378463E+03  0.46510781465E+03  0.12501221981E+03 0.  0.
          2    1    1    2  501    0  0.20862680764E+02 -0.34053547328E+01 -0.89404047796E+03  0.89429034665E+03  0.00000000000E+00 0. -1.
          1    1    1    2  502    0  0.21174230931E+02  0.28420458579E+02  0.64992942573E+03  0.65089502145E+03  0.00000000000E+00 0. -1.
         22    1    3    3    0    0 -0.23579922694E+01 -0.48134319208E+02 -0.59490043511E+02  0.76560682404E+02  0.00000000000E+00 0. -1.
         22    1    3    3    0    0 -0.39678919426E+02  0.23119215362E+02 -0.38582374112E+03  0.38854713225E+03  0.00000000000E+00 0. -1.
</event>
<event>
 7    1  0.6089676E-006  0.7533073E+02  0.7818608E-02  0.1389167E+00
          2   -1    0    0  502    0  0.00000000000E+00  0.00000000000E+00  0.61549779859E+03  0.61549779859E+03  0.00000000000E+00 0. -1.
          1   -1    0    0  501    0 -0.00000000000E+00 -0.00000000000E+00 -0.56166284880E+03  0.56166284880E+03  0.00000000000E+00 0. -1.
         25    2    1    2    0    0  0.94342327464E+01  0.79370311144E+02  0.10128471189E+03  0.17964530821E+03  0.12500077144E+03 0.  0.
          2    1    1    2  501    0 -0.53539269962E+02 -0.53334109391E+02 -0.51835413901E+03  0.52383393750E+03  0.00000000000E+00 0. -1.
          1    1    1    2  502    0  0.44105037216E+02 -0.26036201753E+02  0.47090437690E+03  0.47368140168E+03  0.00000000000E+00 0. -1.
         22    1    3    3    0    0 -0.23624105457E+02  0.48203847327E+02  0.11926030964E+03  0.13078505539E+03  0.00000000000E+00 0.  1.
         22    1    3    3    0    0  0.33058338203E+02  0.31166463817E+02 -0.17975597755E+02  0.48860252827E+02  0.00000000000E+00 0.  1.
</event>
<event>
 7    1  0.6089676E-006  0.1304384E+03  0.7818608E-02  0.1239397E+00
          2   -1    0    0  502    0  0.00000000000E+00  0.00000000000E+00  0.75820026694E+03  0.75820026694E+03  0.00000000000E+00 0. -1.
          1   -1    0    0  501    0 -0.00000000000E+00 -0.00000000000E+00 -0.17814721531E+04  0.17814721531E+04  0.00000000000E+00 0. -1.
         25    2    1    2    0    0  0.23494484751E+02  0.30025169874E+02  0.12220916347E+02  0.13126210968E+03  0.12500755578E+03 0.  0.
          2    1    1    2  501    0  0.11435333538E+03  0.77331749720E+01 -0.17125757037E+04  0.17164067199E+04  0.00000000000E+00 0. -1.
          1    1    1    2  502    0 -0.13784782013E+03 -0.37758344846E+02  0.67708290118E+03  0.69200359044E+03  0.00000000000E+00 0. -1.
         22    1    3    3    0    0  0.67088287324E+00 -0.37460424153E+00  0.65669443715E+02  0.65673938895E+02  0.00000000000E+00 0.  1.
         22    1    3    3    0    0  0.22823601878E+02  0.30399774115E+02 -0.53448527368E+02  0.65588170784E+02  0.00000000000E+00 0.  1.
</event>
<event>
 7    1  0.6089676E-006  0.5935391E+02  0.7818608E-02  0.1547884E+00
          2   -1    0    0  502    0  0.00000000000E+00  0.00000000000E+00  0.32539161011E+03  0.32539161011E+03  0.00000000000E+00 0. -1.
          1   -1    0    0  501    0 -0.00000000000E+00 -0.00000000000E+00 -0.17766070517E+03  0.17766070517E+03  0.00000000000E+00 0. -1.
         25    2    1    2    0    0  0.43941070275E+02  0.24113765129E+01 -0.44097705715E+02  0.13966313256E+03  0.12499820220E+03 0.  0.
          2    1    1    2  501    0  0.13081019297E+02  0.16087238981E+02 -0.81226407789E+02  0.83831030329E+02  0.00000000000E+00 0. -1.
          1    1    1    2  502    0 -0.57022089572E+02 -0.18498615493E+02  0.27305501844E+03  0.27955815239E+03  0.00000000000E+00 0. -1.
         22    1    3    3    0    0  0.73046346566E+02 -0.23552651527E+02  0.50548513740E+01  0.76915847931E+02  0.00000000000E+00 0.  1.
         22    1    3    3    0    0 -0.29105276290E+02  0.25964028040E+02 -0.49152557089E+02  0.62747284629E+02  0.00000000000E+00 0.  1.
</event>
<event>
 7    1  0.6089676E-006  0.4717831E+02  0.7818608E-02  0.1470204E+00
          2   -1    0    0  502    0  0.00000000000E+00  0.00000000000E+00  0.10844166458E+04  0.10844166458E+04  0.00000000000E+00 0. -1.
          1   -1    0    0  501    0 -0.00000000000E+00 -0.00000000000E+00 -0.31144909832E+02  0.31144909832E+02  0.00000000000E+00 0. -1.
         25    2    1    2    0    0 -0.15758488396E+01  0.15684460859E+02  0.23251160757E+03  0.26445103125E+03  0.12499685863E+03 0.  0.
          2    1    1    2  501    0 -0.44161663520E+02  0.20473304247E+01  0.19447004968E+02  0.48297309334E+02  0.00000000000E+00 0. -1.
          1    1    1    2  502    0  0.45737512359E+02 -0.17731791284E+02  0.80131312339E+03  0.80281321500E+03  0.00000000000E+00 0. -1.
         22    1    3    3    0    0  0.79779712361E+01 -0.26694263272E+02  0.21629293362E+03  0.21807995060E+03  0.00000000000E+00 0. -1.
         22    1    3    3    0    0 -0.95538200757E+01  0.42378724131E+02  0.16218673942E+02  0.46371080658E+02  0.00000000000E+00 0. -1.
</event>
<event>
 7    1  0.6089676E-006  0.7525203E+02  0.7818608E-02  0.1480015E+00
          2   -1    0    0  502    0  0.00000000000E+00  0.00000000000E+00  0.23606095792E+03  0.23606095792E+03  0.00000000000E+00 0. -1.
          1   -1    0    0  501    0 -0.00000000000E+00 -0.00000000000E+00 -0.45171291793E+03  0.45171291793E+03  0.00000000000E+00 0. -1.
         25    2    1    2    0    0  0.72724339438E+02  0.34969406419E+02  0.20937445312E+02  0.15025101547E+03  0.12500120840E+03 0.  0.
          2    1    1    2  501    0 -0.53778357972E+02 -0.52553326138E+02 -0.38225564736E+03  0.38958098492E+03  0.00000000000E+00 0. -1.
          1    1    1    2  502    0 -0.18945981466E+02  0.17583919719E+02  0.14566624203E+03  0.14794187546E+03  0.00000000000E+00 0. -1.
         22    1    3    3    0    0 -0.32278211520E+02  0.18716260795E+02  0.23267913682E+02  0.43972459155E+02  0.00000000000E+00 0.  1.
         22    1    3    3    0    0  0.10500255096E+03  0.16253145625E+02 -0.23304683695E+01  0.10627855632E+03  0.00000000000E+00 0.  1.
</event>
<event>
 7    1  0.6089676E-006  0.1877033E+03  0.7818608E-02  0.1224525E+00
          2   -1    0    0  502    0  0.00000000000E+00  0.00000000000E+00  0.13163425502E+04  0.13163425502E+04  0.00000000000E+00 0. -1.
          1   -1    0    0  501    0 -0.00000000000E+00 -0.00000000000E+00 -0.14032803554E+04  0.14032803554E+04  0.00000000000E+00 0. -1.
         25    2    1    2    0    0 -0.70414838338E+02 -0.72441636795E+02  0.41737146892E+02  0.16605055709E+03  0.12499903151E+03 0.  0.
          2    1    1    2  501    0  0.12732171839E+03  0.14577146249E+03 -0.13323445541E+04  0.13463291388E+04  0.00000000000E+00 0. -1.
          1    1    1    2  502    0 -0.56906880051E+02 -0.73329825698E+02  0.12036696020E+04  0.12072432096E+04  0.00000000000E+00 0. -1.
         22    1    3    3    0    0 -0.16699067303E+02 -0.11479866019E+02 -0.43686040967E+02  0.48157204528E+02  0.00000000000E+00 0.  1.
         22    1    3    3    0    0 -0.53715771035E+02 -0.60961770776E+02  0.85423187859E+02  0.11789335256E+03  0.00000000000E+00 0.  1.
</event>
<event>
 7    1  0.6089676E-006  0.9996935E+02  0.7818608E-02  0.1341999E+00
          2   -1    0    0  502    0  0.00000000000E+00  0.00000000000E+00  0.60585647839E+03  0.60585647839E+03  0.00000000000E+00 0. -1.
          1   -1    0    0  501    0 -0.00000000000E+00 -0.00000000000E+00 -0.39567884467E+03  0.39567884467E+03  0.00000000000E+00 0. -1.
         25    2    1    2    0    0  0.75872647788E+02 -0.95810708588E+02 -0.10572396105E+03  0.20430218248E+03  0.12500190104E+03 0.  0.
          2    1    1    2  501    0 -0.57143458997E+02 -0.21276726187E+01 -0.23271037854E+03  0.23963309908E+03  0.00000000000E+00 0. -1.
          1    1    1    2  502    0 -0.18729188790E+02  0.97938381207E+02  0.54861197330E+03  0.55760004150E+03  0.00000000000E+00 0. -1.
         22    1    3    3    0    0  0.55081236644E+02  0.17400190208E+02 -0.21340593815E+02  0.61580274389E+02  0.00000000000E+00 0. -1.
         22    1    3    3    0    0  0.20791411144E+02 -0.11321089880E+03 -0.84383367233E+02  0.14272190809E+03  0.00000000000E+00 0. -1.
</event>
<event>
 7    1  0.6089676E-006  0.1561245E+03  0.7818608E-02  0.1232453E+00
          2   -1    0    0  502    0  0.00000000000E+00  0.00000000000E+00  0.72645621349E+03  0.72645621349E+03  0.00000000000E+00 0. -1.
          1   -1    0    0  501    0 -0.00000000000E+00 -0.00000000000E+00 -0.10396141248E+03  0.10396141248E+03  0.00000000000E+00 0. -1.
         25    2    1    2    0    0 -0.10111927829E+03 -0.14697853852E+03  0.96415638683E+02  0.23822355925E+03  0.12500675811E+03 0.  0.
          2    1    1    2  501    0  0.13606208077E+03  0.50296395878E+02  0.18004315423E+03  0.23121019581E+03  0.00000000000E+00 0. -1.
          1    1    1    2  502    0 -0.34942802481E+02  0.96682142642E+02  0.34603600810E+03  0.36098387091E+03  0.00000000000E+00 0. -1.
         22    1    3    3    0    0  0.27975755051E+02 -0.35931258202E+02  0.34115946857E+02  0.56899877123E+02  0.00000000000E+00 0.  1.
         22    1    3    3    0    0 -0.12909503334E+03 -0.11104728032E+03  0.62299691826E+02  0.18132368213E+03  0.00000000000E+00 0.  1.
</event>
<event>
 7    1  0.6089676E-006  0.3825476E+03  0.7818608E-02  0.1165131E+00
          2   -1    0    0  502    0  0.00000000000E+00  0.00000000000E+00  0.12020103813E+04  0.12020103813E+04  0.00000000000E+00 0. -1.
          1   -1    0    0  501    0 -0.00000000000E+00 -0.00000000000E+00 -0.24821819080E+03  0.24821819080E+03  0.00000000000E+00 0. -1.
         25    2    1    2    0    0 -0.28555683255E+03 -0.28593495319E+03  0.54243498427E+03  0.68786868461E+03  0.12500445208E+03 0.  0.
          2    1    1    2  501    0 -0.23009144410E+02  0.84255333522E+02 -0.99495992510E+02  0.13239272820E+03  0.00000000000E+00 0. -1.
          1    1    1    2  502    0  0.30856597696E+03  0.20167961967E+03  0.51085319877E+03  0.62996715932E+03  0.00000000000E+00 0. -1.
         22    1    3    3    0    0 -0.15828530393E+03 -0.22995190731E+03  0.31131901818E+03  0.41815266135E+03  0.00000000000E+00 0.  1.
         22    1    3    3    0    0 -0.12727152861E+03 -0.55983045886E+02  0.23111596609E+03  0.26971602326E+03  0.00000000000E+00 0.  1.
</event>
<event>
 7    1  0.6089676E-006  0.4357575E+02  0.7818608E-02  0.1575049E+00
          2   -1    0    0  502    0  0.00000000000E+00  0.00000000000E+00  0.92808716015E+03  0.92808716015E+03  0.00000000000E+00 0. -1.
          1   -1    0    0  501    0 -0.00000000000E+00 -0.00000000000E+00 -0.39336694928E+02  0.39336694928E+02  0.00000000000E+00 0. -1.
         25    2    1    2    0    0  0.19199476195E+02 -0.77420313284E+01  0.83024317081E+03  0.83985524865E+03  0.12499822829E+03 0.  0.
          2    1    1    2  501    0 -0.42900389059E+02  0.97089838746E+01 -0.17943199951E+02  0.47504380574E+02  0.00000000000E+00 0. -1.
          1    1    1    2  502    0  0.23700912864E+02 -0.19669525462E+01  0.76450494363E+02  0.80064225852E+02  0.00000000000E+00 0. -1.
         22    1    3    3    0    0  0.34013465808E+02  0.28547756779E+02  0.11111538460E+03  0.11966001407E+03  0.00000000000E+00 0.  1.
         22    1    3    3    0    0 -0.14813989613E+02 -0.36289788108E+02  0.71912778621E+03  0.72019523458E+03  0.00000000000E+00 0.  1.
</event>
<event>
 7    1  0.6089676E-006  0.5547135E+02  0.7818608E-02  0.1458758E+00
          2   -1    0    0  502    0  0.00000000000E+00  0.00000000000E+00  0.10468644180E+04  0.10468644180E+04  0.00000000000E+00 0. -1.
          1   -1    0    0  501    0 -0.00000000000E+00 -0.00000000000E+00 -0.94806481729E+03  0.94806481729E+03  0.00000000000E+00 0. -1.
         25    2    1    2    0    0  0.77605944075E+02  0.29917491532E+02  0.23674121351E+03  0.28033758902E+03  0.12500009116E+03 0.  0.
          2    1    1    2  501    0 -0.39741250366E+02  0.94026922482E+01 -0.92487051277E+03  0.92577170134E+03  0.00000000000E+00 0. -1.
          1    1    1    2  502    0 -0.37864693708E+02 -0.39320183780E+02  0.78692889994E+03  0.78881994488E+03  0.00000000000E+00 0. -1.
         22    1    3    3    0    0 -0.63307512868E+01  0.14162681532E+02 -0.10519512021E+02  0.18743534704E+02  0.00000000000E+00 0.  1.
         22    1    3    3    0    0  0.83936695362E+02  0.15754810000E+02  0.24726072553E+03  0.26159405432E+03  0.00000000000E+00 0.  1.
</event>
<event>
 7    1  0.6089676E-006  0.3344036E+02  0.7818608E-02  0.1566010E+00
          2   -1    0    0  502    0  0.00000000000E+00  0.00000000000E+00  0.16804172617E+04  0.16804172617E+04  0.00000000000E+00 0. -1.
          1   -1    0    0  501    0 -0.00000000000E+00 -0.00000000000E+00 -0.64244598809E+01  0.64244598809E+01  0.00000000000E+00 0. -1.
         25    2    1    2    0    0  0.23465893232E+02  0.28333307398E+02  0.99811449567E+03  0.10065837583E+04  0.12499956651E+03 0.  0.
          2    1    1    2  501    0  0.96109891425E+01 -0.33250393092E+02  0.18285542973E+03  0.18610230502E+03  0.00000000000E+00 0. -1.
          1    1    1    2  502    0 -0.33076882375E+02  0.49170856937E+01  0.49302287640E+03  0.49415565821E+03  0.00000000000E+00 0. -1.
         22    1    3    3    0    0 -0.17174224275E+02  0.10793930859E+00  0.85471732126E+03  0.85488985542E+03  0.00000000000E+00 0.  1.
         22    1    3    3    0    0  0.40640117507E+02  0.28225368090E+02  0.14339717441E+03  0.15169390292E+03  0.00000000000E+00 0.  1.
</event>
<event>
 7    1  0.6089676E-006  0.3912594E+02  0.7818608E-02  0.1536762E+00
          2   -1    0    0  502    0  0.00000000000E+00  0.00000000000E+00  0.20405334621E+04  0.20405334621E+04  0.00000000000E+00 0. -1.
          1   -1    0    0  501    0 -0.00000000000E+00 -0.00000000000E+00 -0.58934653175E+03  0.58934653175E+03  0.00000000000E+00 0. -1.
         25    2    1    2    0    0  0.39716887087E+02 -0.40870902669E+02  0.89882735053E+03  0.90926461450E+03  0.12499468514E+03 0.  0.
          2    1    1    2  501    0 -0.38473529596E+02  0.70859237855E+01 -0.58322104304E+03  0.58453161407E+03  0.00000000000E+00 0. -1.
          1    1    1    2  502    0 -0.12433574902E+01  0.33784978884E+02  0.11355806229E+04  0.11360837653E+04  0.00000000000E+00 0. -1.
         22    1    3    3    0    0  0.56469245536E+02 -0.76746522108E+02  0.70716158503E+03  0.71355189838E+03  0.00000000000E+00 0. -1.
         22    1    3    3    0    0 -0.16752358449E+02  0.35875619439E+02  0.19166576550E+03  0.19571271612E+03  0.00000000000E+00 0. -1.
</event>
<event>
 7    1  0.6089676E-006  0.7854384E+02  0.7818608E-02  0.1395972E+00
          2   -1    0    0  502    0  0.00000000000E+00  0.00000000000E+00  0.31018945165E+03  0.31018945165E+03  0.00000000000E+00 0. -1.
          1   -1    0    0  501    0 -0.00000000000E+00 -0.00000000000E+00 -0.30062299925E+03  0.30062299925E+03  0.00000000000E+00 0. -1.
         25    2    1    2    0    0  0.82126013859E+02  0.48334022921E+02  0.29789705667E+02  0.15998345670E+03  0.12500567959E+03 0.  0.
          2    1    1    2  501    0 -0.42803172216E+01 -0.46319806550E+02 -0.22603813625E+03  0.23077496536E+03  0.00000000000E+00 0. -1.
          1    1    1    2  502    0 -0.77845696637E+02 -0.20142163715E+01  0.20581488299E+03  0.22005402885E+03  0.00000000000E+00 0. -1.
         22    1    3    3    0    0  0.41610256202E+02  0.82857491604E+02  0.47118066732E+02  0.10400427659E+03  0.00000000000E+00 0. -1.
         22    1    3    3    0    0  0.40515757657E+02 -0.34523468682E+02 -0.17328361065E+02  0.55979180108E+02  0.00000000000E+00 0. -1.
</event>
<event>
 7    1  0.6089676E-006  0.1415291E+03  0.7818608E-02  0.1347092E+00
          2   -1    0    0  502    0  0.00000000000E+00  0.00000000000E+00  0.30434823247E+04  0.30434823247E+04  0.00000000000E+00 0. -1.
          1   -1    0    0  501    0 -0.00000000000E+00 -0.00000000000E+00 -0.11667348944E+03  0.11667348944E+03  0.00000000000E+00 0. -1.
         25    2    1    2    0    0 -0.52698799417E+02  0.10451170966E+03  0.19765492878E+03  0.26151725424E+03  0.12499576984E+03 0.  0.
          2    1    1    2  501    0  0.17890183810E+02  0.34271180890E+02 -0.78414511874E+02  0.87426587425E+02  0.00000000000E+00 0. -1.
          1    1    1    2  502    0  0.34808615607E+02 -0.13878289055E+03  0.28075684183E+04  0.28112119725E+04  0.00000000000E+00 0. -1.
         22    1    3    3    0    0 -0.29326153727E+01  0.11886801694E+03  0.12786891391E+03  0.17461003645E+03  0.00000000000E+00 0.  1.
         22    1    3    3    0    0 -0.49766184044E+02 -0.14356307278E+02  0.69786014872E+02  0.86907217794E+02  0.00000000000E+00 0.  1.
</event>
<event>
 7    1  0.6089676E-006  0.9381243E+02  0.7818608E-02  0.1309689E+00
          2   -1    0    0  502    0  0.00000000000E+00  0.00000000000E+00  0.33951700329E+04  0.33951700329E+04  0.00000000000E+00 0. -1.
          1   -1    0    0  501    0 -0.00000000000E+00 -0.00000000000E+00 -0.21521616068E+03  0.21521616068E+03  0.00000000000E+00 0. -1.
         25    2    1    2    0    0  0.31741455054E+02  0.16630232403E+03  0.59356704289E+03  0.62977082204E+03  0.12500188373E+03 0.  0.
          2    1    1    2  501    0 -0.35887058868E+02 -0.85289544416E+02 -0.18562873673E+03  0.20741315118E+03  0.00000000000E+00 0. -1.
          1    1    1    2  502    0  0.41456038144E+01 -0.81012779618E+02  0.27720155660E+04  0.27732022203E+04  0.00000000000E+00 0. -1.
         22    1    3    3    0    0  0.15347355026E+02  0.94622582967E+02  0.13632268329E+03  0.16665187815E+03  0.00000000000E+00 0.  1.
         22    1    3    3    0    0  0.16394100028E+02  0.71679741068E+02  0.45724435960E+03  0.46311894388E+03  0.00000000000E+00 0.  1.
</event>
<event>
 7    1  0.6089676E-006  0.5838478E+02  0.7818608E-02  0.1451866E+00
          2   -1    0    0  502    0  0.00000000000E+00  0.00000000000E+00  0.62209279184E+03  0.62209279184E+03  0.00000000000E+00 0. -1.
          1   -1    0    0  501    0 -0.00000000000E+00 -0.00000000000E+00 -0.88425984962E+03  0.88425984962E+03  0.00000000000E+00 0. -1.
         25    2    1    2    0    0  0.89405654902E+02  0.91724617160E+01 -0.18454832197E+02  0.15505563013E+03  0.12499664964E+03 0.  0.
          2    1    1    2  501    0 -0.56147821456E+02  0.14471419650E+02 -0.79569658720E+03  0.79780640429E+03  0.00000000000E+00 0. -1.
          1    1    1    2  502    0 -0.33257833446E+02 -0.23643881366E+02  0.55198436161E+03  0.55349060704E+03  0.00000000000E+00 0. -1.
         22    1    3    3    0    0 -0.10935172472E+02 -0.17989046936E+02 -0.43325935462E+02  0.48169705110E+02  0.00000000000E+00 0.  1.
         22    1    3    3    0    0  0.10034082737E+03  0.27161508652E+02  0.24871103265E+02  0.10688592502E+03  0.00000000000E+00 0.  1.
</event>
<event>
 7    1  0.6089676E-006  0.1529778E+03  0.7818608E-02  0.1294990E+00
          2   -1    0    0  502    0  0.00000000000E+00  0.00000000000E+00  0.10658767727E+04  0.10658767727E+04  0.00000000000E+00 0. -1.
          1   -1    0    0  501    0 -0.00000000000E+00 -0.00000000000E+00 -0.16974043117E+03  0.16974043117E+03  0.00000000000E+00 0. -1.
         25    2    1    2    0    0 -0.37899217316E+02  0.12172410867E+03  0.39396051021E+03  0.43251721830E+03  0.12495259587E+03 0.  0.
          2    1    1    2  501    0 -0.52768001878E+02  0.21381235502E+02 -0.13355472983E+03  0.14518431428E+03  0.00000000000E+00 0. -1.
          1    1    1    2  502    0  0.90667219194E+02 -0.14310534417E+03  0.63573056110E+03  0.65791567125E+03  0.00000000000E+00 0. -1.
         22    1    3    3    0    0 -0.18877130357E+02  0.10830660827E+03  0.14249393310E+03  0.17997552171E+03  0.00000000000E+00 0.  1.
         22    1    3    3    0    0 -0.19022086958E+02  0.13417500393E+02  0.25146657712E+03  0.25254169659E+03  0.00000000000E+00 0.  1.
</event>
<event>
 7    1  0.6089676E-006  0.9855576E+02  0.7818608E-02  0.1385849E+00
          2   -1    0    0  502    0  0.00000000000E+00  0.00000000000E+00  0.11385139910E+03  0.11385139910E+03  0.00000000000E+00 0. -1.
          1   -1    0    0  501    0 -0.00000000000E+00 -0.00000000000E+00 -0.23579181676E+04  0.23579181676E+04  0.00000000000E+00 0. -1.
         25    2    1    2    0    0  0.51659548094E+02  0.49086106941E+02 -0.49949172554E+03  0.51980406613E+03  0.12500451386E+03 0.  0.
          2    1    1    2  501    0 -0.50934582948E+02 -0.89288465025E+02 -0.18428854832E+04  0.18457501635E+04  0.00000000000E+00 0. -1.
          1    1    1    2  502    0 -0.72496514634E+00  0.40202358084E+02  0.98310440253E+02  0.10621533709E+03  0.00000000000E+00 0. -1.
         22    1    3    3    0    0  0.60049827603E+02 -0.15072417177E+02 -0.36892363623E+03  0.37408262313E+03  0.00000000000E+00 0.  1.
         22    1    3    3    0    0 -0.83902795087E+01  0.64158524118E+02 -0.13056808930E+03  0.14572144301E+03  0.00000000000E+00 0.  1.
</event>
<event>
 7    1  0.6089676E-006  0.8556181E+02  0.7818608E-02  0.1372002E+00
          2   -1    0    0  502    0  0.00000000000E+00  0.00000000000E+00  0.36132437017E+04  0.36132437017E+04  0.00000000000E+00 0. -1.
          1   -1    0    0  501    0 -0.00000000000E+00 -0.00000000000E+00 -0.15407123302E+04  0.15407123302E+04  0.00000000000E+00 0. -1.
         25    2    1    2    0    0  0.11700563891E+03  0.33291861797E+02  0.26563194357E+03  0.31777950867E+03  0.12499927634E+03 0.  0.
          2    1    1    2  501    0 -0.48841933585E+02  0.17438611657E+02 -0.15136509615E+04  0.15145391619E+04  0.00000000000E+00 0. -1.
          1    1    1    2  502    0 -0.68163705328E+02 -0.50730473455E+02  0.33205503894E+04  0.33216373614E+04  0.00000000000E+00 0. -1.
         22    1    3    3    0    0  0.52141628505E+02  0.54723395984E+01  0.11029422360E+02  0.53575592217E+02  0.00000000000E+00 0.  1.
         22    1    3    3    0    0  0.64864010407E+02  0.27819522199E+02  0.25460252121E+03  0.26420391645E+03  0.00000000000E+00 0.  1.
</event>
<event>
 7    1  0.6089676E-006  0.1349978E+03  0.7818608E-02  0.1275478E+00
          2   -1    0    0  502    0  0.00000000000E+00  0.00000000000E+00  0.42309545358E+03  0.42309545358E+03  0.00000000000E+00 0. -1.
          1   -1    0    0  501    0 -0.00000000000E+00 -0.00000000000E+00 -0.12287721195E+04  0.12287721195E+04  0.00000000000E+00 0. -1.
         25    2    1    2    0    0  0.22594362393E+02  0.80577781382E+02  0.33431332787E+03  0.36660170150E+03  0.12501248852E+03 0.  0.
          2    1    1    2  501    0  0.36631047812E+02 -0.13065987138E+03 -0.11868930560E+04  0.11946250298E+04  0.00000000000E+00 0. -1.
          1    1    1    2  502    0 -0.59225410206E+02  0.50082090000E+02  0.46903062159E+02  0.90640841747E+02  0.00000000000E+00 0. -1.
         22    1    3    3    0    0  0.60498651105E+02  0.20033458635E+02  0.23984681474E+03  0.24816913747E+03  0.00000000000E+00 0. -1.
         22    1    3    3    0    0 -0.37904288712E+02  0.60544322748E+02  0.94466513129E+02  0.11843256403E+03  0.00000000000E+00 0. -1.
</event>
<event>
 7    1  0.6089676E-006  0.3837224E+02  0.7818608E-02  0.1582162E+00
          2   -1    0    0  502    0  0.00000000000E+00  0.00000000000E+00  0.29580914187E+03  0.29580914187E+03  0.00000000000E+00 0. -1.
          1   -1    0    0  501    0 -0.00000000000E+00 -0.00000000000E+00 -0.10662566372E+04  0.10662566372E+04  0.00000000000E+00 0. -1.
         25    2    1    2    0    0 -0.19381505227E+02  0.49186386474E+02 -0.18387481142E+03  0.22854198994E+03  0.12500620597E+03 0.  0.
          2    1    1    2  501    0 -0.39194332404E+01 -0.38005059944E+02 -0.85901204640E+03  0.85986129253E+03  0.00000000000E+00 0. -1.
          1    1    1    2  502    0  0.23300938467E+02 -0.11181326530E+02  0.27243936250E+03  0.27366249658E+03  0.00000000000E+00 0. -1.
         22    1    3    3    0    0 -0.25301918454E+02 -0.30729462236E+02 -0.16726568384E+02  0.43177135346E+02  0.00000000000E+00 0. -1.
         22    1    3    3    0    0  0.59204132268E+01  0.79915848710E+02 -0.16714824304E+03  0.18536485459E+03  0.00000000000E+00 0. -1.
</event>
<event>
 7    1  0.6089676E-006  0.7913573E+02  0.7818608E-02  0.1429259E+00
          2   -1    0    0  502    0  0.00000000000E+00  0.00000000000E+00  0.71476183190E+02  0.71476183190E+02  0.00000000000E+00 0. -1.
          1   -1    0    0  501    0 -0.00000000000E+00 -0.00000000000E+00 -0.28239244154E+04  0.28239244154E+04  0.00000000000E+00 0. -1.
         25    2    1    2    0    0 -0.33015108795E+02 -0.99085473558E+02 -0.56048356665E+03  0.58367427398E+03  0.12500360452E+03 0.  0.
          2    1    1    2  501    0  0.44788532918E+01  0.77730156926E+02 -0.22458067161E+04  0.22471559456E+04  0.00000000000E+00 0. -1.
          1    1    1    2  502    0  0.28536255504E+02  0.21355316632E+02  0.53842050635E+02  0.64570378992E+02  0.00000000000E+00 0. -1.
         22    1    3    3    0    0 -0.24749052017E+02 -0.31167114662E+02 -0.46225999419E+03  0.46397004951E+03  0.00000000000E+00 0.  1.
         22    1    3    3    0    0 -0.82660567781E+01 -0.67918358896E+02 -0.98223572459E+02  0.11970422447E+03  0.00000000000E+00 0.  1.
</event>
<event>
 7    1  0.6089676E-006  0.1463540E+03  0.7818608E-02  0.1259441E+00
          2   -1    0    0  502    0  0.00000000000E+00  0.00000000000E+00  0.92728768948E+03  0.92728768948E+03  0.00000000000E+00 0. -1.
          1   -1    0    0  501    0 -0.00000000000E+00 -0.00000000000E+00 -0.39139576465E+04  0.39139576465E+04  0.00000000000E+00 0. -1.
         25    2    1    2    0    0  0.74046595383E+01  0.80927684055E+02 -0.69506513196E+02  0.16450257965E+03  0.12500329717E+03 0.  0.
          2    1    1    2  501    0  0.52844001506E+02 -0.13888267369E+03 -0.37935092979E+04  0.37964185332E+04  0.00000000000E+00 0. -1.
          1    1    1    2  502    0 -0.60248661044E+02  0.57954989638E+02  0.87634585408E+03  0.88032422319E+03  0.00000000000E+00 0. -1.
         22    1    3    3    0    0 -0.60181266647E+01  0.10178695701E+03 -0.12998306378E+02  0.10278987516E+03  0.00000000000E+00 0.  1.
         22    1    3    3    0    0  0.13422786203E+02 -0.20859272955E+02 -0.56508206818E+02  0.61712704490E+02  0.00000000000E+00 0.  1.
</event>
<event>
 7    1  0.6089676E-006  0.3377005E+02  0.7818608E-02  0.1610033E+00
          2   -1    0    0  502    0  0.00000000000E+00  0.00000000000E+00  0.53981060291E+03  0.53981060291E+03  0.00000000000E+00 0. -1.
          1   -1    0    0  501    0 -0.00000000000E+00 -0.00000000000E+00 -0.90767146402E+03  0.90767146402E+03  0.00000000000E+00 0. -1.
         25    2    1    2    0    0  0.94862413472E+01 -0.10919185543E+02  0.27681825238E+03  0.30407740376E+03  0.12500202094E+03 0.  0.
          2    1    1    2  501    0 -0.41080185531E+01 -0.24469739506E+02 -0.89258402430E+03  0.89292882382E+03  0.00000000000E+00 0. -1.
          1    1    1    2  502    0 -0.53782227941E+01  0.35388925049E+02  0.24790491080E+03  0.25047583935E+03  0.00000000000E+00 0. -1.
         22    1    3    3    0    0  0.25220605602E+02  0.48880158470E-01  0.28284940551E+03  0.28397159635E+03  0.00000000000E+00 0.  1.
         22    1    3    3    0    0 -0.15734364255E+02 -0.10968065701E+02 -0.60311531253E+01  0.20105807414E+02  0.00000000000E+00 0.  1.
</event>
<event>
 7    1  0.6089676E-006  0.1009126E+03  0.7818608E-02  0.1345536E+00
          2   -1    0    0  502    0  0.00000000000E+00  0.00000000000E+00  0.15874327887E+04  0.15874327887E+04  0.00000000000E+00 0. -1.
          1   -1    0    0  501    0 -0.00000000000E+00 -0.00000000000E+00 -0.57931618229E+03  0.57931618229E+03  0.00000000000E+00 0. -1.
         25    2    1    2    0    0  0.11784282993E+03  0.87766741335E+02  0.18473292298E+03  0.26709762518E+03  0.12499982036E+03 0.  0.
          2    1    1    2  501    0 -0.27254258435E+02 -0.47713552633E+02 -0.53492314391E+03  0.53773799159E+03  0.00000000000E+00 0. -1.
          1    1    1    2  502    0 -0.90588571495E+02 -0.40053188703E+02  0.13583068274E+04  0.13619133542E+04  0.00000000000E+00 0. -1.
         22    1    3    3    0    0  0.50967928066E+02 -0.18203605215E+01 -0.19876973632E+00  0.51000812868E+02  0.00000000000E+00 0.  1.
         22    1    3    3    0    0  0.66874901864E+02  0.89587101857E+02  0.18493169272E+03  0.21609681231E+03  0.00000000000E+00 0.  1.
</event>
<event>
 7    1  0.6089676E-006  0.6686696E+02  0.7818608E-02  0.1451697E+00
          2   -1    0    0  502    0  0.00000000000E+00  0.00000000000E+00  0.21541364109E+04  0.21541364109E+04  0.00000000000E+00 0. -1.
          1   -1    0    0  501    0 -0.00000000000E+00 -0.00000000000E+00 -0.11665407931E+03  0.11665407931E+03  0.00000000000E+00 0. -1.
         25    2    1    2    0    0 -0.80369331382E+02 -0.22298633458E+02  0.91504397786E+03  0.92730103346E+03  0.12500106707E+03 0.  0.
          2    1    1    2  501    0  0.51206071243E+02  0.42844755821E+02 -0.10015854127E+03  0.12037220702E+03  0.00000000000E+00 0. -1.
          1    1    1    2  502    0  0.29163260139E+02 -0.20546122363E+02  0.12225968950E+04  0.12231172497E+04  0.00000000000E+00 0. -1.
         22    1    3    3    0    0  0.11175883019E+02 -0.17725391116E+02  0.25311695270E+02  0.32859880842E+02  0.00000000000E+00 0. -1.
         22    1    3    3    0    0 -0.91545214400E+02 -0.45732423415E+01  0.88973228259E+03  0.89444115262E+03  0.00000000000E+00 0. -1.
</event>
<event>
 7    1  0.6089676E-006  0.6979552E+02  0.7818608E-02  0.1371536E+00
          2   -1    0    0  502    0  0.00000000000E+00  0.00000000000E+00  0.48143895681E+03  0.48143895681E+03  0.00000000000E+00 0. -1.
          1   -1    0    0  501    0 -0.00000000000E+00 -0.00000000000E+00 -0.11896777398E+03  0.11896777398E+03  0.00000000000E+00 0. -1.
         25    2    1    2    0    0  0.36993033450E+02 -0.15949097237E+02  0.83980156210E+02  0.15588789315E+03  0.12500204145E+03 0.  0.
          2    1    1    2  501    0 -0.45978104648E+02 -0.53265667363E+02 -0.63922268781E+02  0.95064577381E+02  0.00000000000E+00 0. -1.
          1    1    1    2  502    0  0.89850711977E+01  0.69214764600E+02  0.34241329540E+03  0.34945426025E+03  0.00000000000E+00 0. -1.
         22    1    3    3    0    0  0.25255831106E+02 -0.42826539676E+02 -0.15575994232E+02  0.52101642026E+02  0.00000000000E+00 0. -1.
         22    1    3    3    0    0  0.11737202345E+02  0.26877442439E+02  0.99556150442E+02  0.10378625112E+03  0.00000000000E+00 0. -1.
</event>
<event>
 7    1  0.6089676E-006  0.8972072E+02  0.7818608E-02  0.1454833E+00
          2   -1    0    0  502    0  0.00000000000E+00  0.00000000000E+00  0.10831403079E+04  0.10831403079E+04  0.00000000000E+00 0. -1.
          1   -1    0    0  501    0 -0.00000000000E+00 -0.00000000000E+00 -0.91852724721E+03  0.91852724721E+03  0.00000000000E+00 0. -1.
         25    2    1    2    0    0 -0.78559918265E+02  0.38708206455E+02 -0.16993845159E+03  0.22841507636E+03  0.12499753508E+03 0.  0.
          2    1    1    2  501    0  0.89014302880E+02 -0.14921703883E+02 -0.71635818186E+03  0.72202163963E+03  0.00000000000E+00 0. -1.
          1    1    1    2  502    0 -0.10454384615E+02 -0.23786502571E+02  0.10509096942E+04  0.10512308391E+04  0.00000000000E+00 0. -1.
         22    1    3    3    0    0 -0.53279879903E+02 -0.28812236515E+01 -0.17161272044E+03  0.17971636783E+03  0.00000000000E+00 0. -1.
         22    1    3    3    0    0 -0.25280038362E+02  0.41589430106E+02  0.16742688443E+01  0.48698708528E+02  0.00000000000E+00 0. -1.
</event>
<event>
 7    1  0.6089676E-006  0.2110463E+02  0.7818608E-02  0.1729943E+00
          2   -1    0    0  502    0  0.00000000000E+00  0.00000000000E+00  0.18380779787E+03  0.18380779787E+03  0.00000000000E+00 0. -1.
          1   -1    0    0  501    0 -0.00000000000E+00 -0.00000000000E+00 -0.16511549994E+04  0.16511549994E+04  0.00000000000E+00 0. -1.
         25    2    1    2    0    0  0.20906236332E+01 -0.17104946324E+02 -0.20055411035E+03  0.23694755697E+03  0.12500097470E+03 0.  0.
          2    1    1    2  501    0 -0.19748561291E+02  0.54708001387E+01 -0.14316555307E+04  0.14318021839E+04  0.00000000000E+00 0. -1.
          1    1    1    2  502    0  0.17657937658E+02  0.11634146185E+02  0.16486243956E+03  0.16621305634E+03  0.00000000000E+00 0. -1.
         22    1    3    3    0    0 -0.12531147317E+02  0.52734458670E+02 -0.98398514281E+02  0.11233975430E+03  0.00000000000E+00 0.  1.
         22    1    3    3    0    0  0.14621770950E+02 -0.69839404994E+02 -0.10215559607E+03  0.12460780266E+03  0.00000000000E+00 0.  1.
</event>
<event>
 7    1  0.6089676E-006  0.9331717E+02  0.7818608E-02  0.1397637E+00
          2   -1    0    0  502    0  0.00000000000E+00  0.00000000000E+00  0.14071403719E+04  0.14071403719E+04  0.00000000000E+00 0. -1.
          1   -1    0    0  501    0 -0.00000000000E+00 -0.00000000000E+00 -0.79511328551E+02  0.79511328551E+02  0.00000000000E+00 0. -1.
         25    2    1    2    0    0 -0.99043575521E+02  0.69686621974E+02  0.62446416596E+03  0.64826362817E+03  0.12499752762E+03 0.  0.
          2    1    1    2  501    0  0.60406109125E+02 -0.69526689555E+02 -0.35504545081E+02  0.98708820789E+02  0.00000000000E+00 0. -1.
          1    1    1    2  502    0  0.38637466397E+02 -0.15993241849E+00  0.73866942250E+03  0.73967925152E+03  0.00000000000E+00 0. -1.
         22    1    3    3    0    0 -0.11754245453E+03  0.21372980850E+02  0.48546065328E+03  0.49994507580E+03  0.00000000000E+00 0.  1.
         22    1    3    3    0    0  0.18498879006E+02  0.48313641124E+02  0.13900351267E+03  0.14831855237E+03  0.00000000000E+00 0.  1.
</event>
<event>
 7    1  0.6089676E-006  0.9956398E+02  0.7818608E-02  0.1296102E+00
          2   -1    0    0  502    0  0.00000000000E+00  0.00000000000E+00  0.18276265171E+04  0.18276265171E+04  0.00000000000E+00 0. -1.
          1   -1    0    0  501    0 -0.00000000000E+00 -0.00000000000E+00 -0.27509896286E+02  0.27509896286E+02  0.00000000000E+00 0. -1.
         25    2    1    2    0    0 -0.31566119168E+02  0.23591393291E+02  0.56421241516E+03  0.57923564941E+03  0.12500125761E+03 0.  0.
          2    1    1    2  501    0 -0.68470616120E+02 -0.72282502391E+02  0.12674090279E+03  0.16117146728E+03  0.00000000000E+00 0. -1.
          1    1    1    2  502    0  0.10003673529E+03  0.48691109100E+02  0.11091633028E+04  0.11147292967E+04  0.00000000000E+00 0. -1.
         22    1    3    3    0    0 -0.78432010380E+02  0.88498551433E+01  0.40483851091E+03  0.41246105283E+03  0.00000000000E+00 0.  1.
         22    1    3    3    0    0  0.46865891212E+02  0.14741538148E+02  0.15937390426E+03  0.16677459658E+03  0.00000000000E+00 0.  1.
</event>
<event>
 7    1  0.6089676E-006  0.6936797E+02  0.7818608E-02  0.1397232E+00
          2   -1    0    0  502    0  0.00000000000E+00  0.00000000000E+00  0.69073387293E+03  0.69073387293E+03  0.00000000000E+00 0. -1.
          1   -1    0    0  501    0 -0.00000000000E+00 -0.00000000000E+00 -0.29267516951E+03  0.29267516951E+03  0.00000000000E+00 0. -1.
         25    2    1    2    0    0 -0.41810267294E+02  0.11115698666E+02  0.18496150153E+01  0.13228655683E+03  0.12499861933E+03 0.  0.
          2    1    1    2  501    0 -0.17734973151E+02 -0.49036331839E+02 -0.22243409333E+03  0.22846447643E+03  0.00000000000E+00 0. -1.
          1    1    1    2  502    0  0.59545240445E+02  0.37920633173E+02  0.61864318174E+03  0.62265800918E+03  0.00000000000E+00 0. -1.
         22    1    3    3    0    0  0.10021205207E+02  0.45958331068E+02 -0.36022265994E+02  0.59246910431E+02  0.00000000000E+00 0. -1.
         22    1    3    3    0    0 -0.51831472501E+02 -0.34842632402E+02  0.37871881009E+02  0.73039646395E+02  0.00000000000E+00 0. -1.
</event>
<event>
 7    1  0.6089676E-006  0.2141307E+03  0.7818608E-02  0.1193767E+00
          2   -1    0    0  502    0  0.00000000000E+00  0.00000000000E+00  0.82890182539E+03  0.82890182539E+03  0.00000000000E+00 0. -1.
          1   -1    0    0  501    0 -0.00000000000E+00 -0.00000000000E+00 -0.69504445136E+03  0.69504445136E+03  0.00000000000E+00 0. -1.
         25    2    1    2    0    0  0.25498093206E+03 -0.64817420961E+02  0.12075888857E+03  0.31531540683E+03  0.12499809136E+03 0.  0.
          2    1    1    2  501    0 -0.16479592840E+03  0.13299249808E+03 -0.57344215053E+03  0.61129420296E+03  0.00000000000E+00 0. -1.
          1    1    1    2  502    0 -0.90185003658E+02 -0.68175077116E+02  0.58654063599E+03  0.59733666696E+03  0.00000000000E+00 0. -1.
         22    1    3    3    0    0  0.14026843339E+03  0.62398506788E+01  0.10035680483E+02  0.14076535094E+03  0.00000000000E+00 0.  1.
         22    1    3    3    0    0  0.11471249867E+03 -0.71057271640E+02  0.11072320808E+03  0.17455005589E+03  0.00000000000E+00 0.  1.
</event>
<event>
 7    1  0.6089676E-006  0.1077153E+03  0.7818608E-02  0.1281494E+00
          2   -1    0    0  502    0  0.00000000000E+00  0.00000000000E+00  0.44950795193E+03  0.44950795193E+03  0.00000000000E+00 0. -1.
          1   -1    0    0  501    0 -0.00000000000E+00 -0.00000000000E+00 -0.16477592312E+03  0.16477592312E+03  0.00000000000E+00 0. -1.
         25    2    1    2    0    0 -0.35714346296E+02  0.27715744047E+02  0.43440755189E+02  0.13984239104E+03  0.12500047249E+03 0.  0.
          2    1    1    2  501    0  0.11400155766E+03 -0.75630276336E+02 -0.67317278509E+02  0.15247265274E+03  0.00000000000E+00 0. -1.
          1    1    1    2  502    0 -0.78287211359E+02  0.47914532290E+02  0.30860855213E+03  0.32196883128E+03  0.00000000000E+00 0. -1.
         22    1    3    3    0    0 -0.51287582675E+01  0.19873415494E+02  0.85116529128E+02  0.87556155327E+02  0.00000000000E+00 0. -1.
         22    1    3    3    0    0 -0.30585588029E+02  0.78423285529E+01 -0.41675773939E+02  0.52286235718E+02  0.00000000000E+00 0. -1.
</event>
<event>
 7    1  0.6089676E-006  0.5138210E+02  0.7818608E-02  0.1456533E+00
          2   -1    0    0  502    0  0.00000000000E+00  0.00000000000E+00  0.29173496179E+03  0.29173496179E+03  0.00000000000E+00 0. -1.
          1   -1    0    0  501    0 -0.00000000000E+00 -0.00000000000E+00 -0.18123699166E+03  0.18123699166E+03  0.00000000000E+00 0. -1.
         25    2    1    2    0    0 -0.78965956765E+02 -0.50202643842E+02  0.49187186490E+02  0.16370762447E+03  0.12499951687E+03 0.  0.
          2    1    1    2  501    0  0.44392604818E+02  0.21697146190E+02 -0.11615556701E+03  0.12622830611E+03  0.00000000000E+00 0. -1.
          1    1    1    2  502    0  0.34573351947E+02  0.28505497652E+02  0.17746635064E+03  0.18303602288E+03  0.00000000000E+00 0. -1.
         22    1    3    3    0    0 -0.13133586876E+02 -0.73930401427E+02 -0.49237169017E+01  0.75249175062E+02  0.00000000000E+00 0.  1.
         22    1    3    3    0    0 -0.65832369889E+02  0.23727757585E+02  0.54110903391E+02  0.88458449405E+02  0.00000000000E+00 0.  1.
</event>
<event>
 7    1  0.6089676E-006  0.5241459E+02  0.7818608E-02  0.1440442E+00
          2   -1    0    0  502    0  0.00000000000E+00  0.00000000000E+00  0.22127227727E+04  0.22127227727E+04  0.00000000000E+00 0. -1.
          1   -1    0    0  501    0 -0.00000000000E+00 -0.00000000000E+00 -0.25825749389E+03  0.25825749389E+03  0.00000000000E+00 0. -1.
         25    2    1    2    0    0 -0.10156601843E+03  0.57781035488E+01  0.98630950937E+03  0.99939012280E+03  0.12500050678E+03 0.  0.
          2    1    1    2  501    0  0.52133427259E+02 -0.39058503308E+01 -0.24849462634E+03  0.25393449790E+03  0.00000000000E+00 0. -1.
          1    1    1    2  502    0  0.49432591172E+02 -0.18722532180E+01  0.12166503958E+04  0.12176556459E+04  0.00000000000E+00 0. -1.
         22    1    3    3    0    0  0.29609447785E+02  0.10715900429E+00  0.20439357454E+03  0.20652715123E+03  0.00000000000E+00 0. -1.
         22    1    3    3    0    0 -0.13117546622E+03  0.56709445445E+01  0.78191593483E+03  0.79286297157E+03  0.00000000000E+00 0. -1.
</event>
<event>
 7    1  0.6089676E-006  0.1308776E+03  0.7818608E-02  0.1302708E+00
          2   -1    0    0  502    0  0.00000000000E+00  0.00000000000E+00  0.14010177116E+03  0.14010177116E+03  0.00000000000E+00 0. -1.
          1   -1    0    0  501    0 -0.00000000000E+00 -0.00000000000E+00 -0.20026929351E+04  0.20026929351E+04  0.00000000000E+00 0. -1.
         25    2    1    2    0    0 -0.72434581987E+02 -0.16620464768E+03 -0.14207829392E+03  0.26207430201E+03  0.12500377832E+03 0.  0.
          2    1    1    2  501    0  0.19806110102E+02  0.58721231544E+02 -0.17550628329E+04  0.17561566025E+04  0.00000000000E+00 0. -1.
          1    1    1    2  502    0  0.52628471885E+02  0.10748341613E+03  0.34549962810E+02  0.12456380183E+03  0.00000000000E+00 0. -1.
         22    1    3    3    0    0 -0.45301649830E+02 -0.17100334078E+03 -0.15154609848E+03  0.23293905212E+03  0.00000000000E+00 0.  1.
         22    1    3    3    0    0 -0.27132932157E+02  0.47986931059E+01  0.94678045633E+01  0.29135249891E+02  0.00000000000E+00 0.  1.
</event>
<event>
 7    1  0.6089676E-006  0.1128752E+03  0.7818608E-02  0.1338015E+00
          2   -1    0    0  502    0  0.00000000000E+00  0.00000000000E+00  0.35126213240E+03  0.35126213240E+03  0.00000000000E+00 0. -1.
          1   -1    0    0  501    0 -0.00000000000E+00 -0.00000000000E+00 -0.84406012222E+03  0.84406012222E+03  0.00000000000E+00 0. -1.
         25    2    1    2    0    0 -0.84150494269E+02 -0.30731796834E+01 -0.82704312753E+02  0.17191847768E+03  0.12500083801E+03 0.  0.
          2    1    1    2  501    0  0.10479152863E+03  0.51261923922E+02 -0.70971099631E+03  0.71923483480E+03  0.00000000000E+00 0. -1.
          1    1    1    2  502    0 -0.20641034357E+02 -0.48188744238E+02  0.29961731924E+03  0.30416894213E+03  0.00000000000E+00 0. -1.
         22    1    3    3    0    0  0.13990547122E+01 -0.36469130547E+02  0.13504318837E+02  0.38914283549E+02  0.00000000000E+00 0. -1.
         22    1    3    3    0    0 -0.85549548981E+02  0.33395950863E+02 -0.96208631590E+02  0.13300419413E+03  0.00000000000E+00 0. -1.
</event>
<event>
 7    1  0.6089676E-006  0.9180794E+02  0.7818608E-02  0.1415215E+00
          2   -1    0    0  502    0  0.00000000000E+00  0.00000000000E+00  0.24146691738E+02  0.24146691738E+02  0.00000000000E+00 0. -1.
          1   -1    0    0  501    0 -0.00000000000E+00 -0.00000000000E+00 -0.18219042775E+04  0.18219042775E+04  0.00000000000E+00 0. -1.
         25    2    1    2    0    0 -0.67879249441E+02 -0.42742771642E+02 -0.55727449466E+03  0.57672891316E+03  0.12500735916E+03 0.  0.
          2    1    1    2  501    0 -0.26139957912E+02  0.22075797241E+02 -0.10909259602E+04  0.10914623625E+04  0.00000000000E+00 0. -1.
          1    1    1    2  502    0  0.94019207353E+02  0.20666974401E+02 -0.14955713097E+03  0.17785969360E+03  0.00000000000E+00 0. -1.
         22    1    3    3    0    0  0.20210937521E+02  0.12933484210E+02 -0.27129654911E+03  0.27235560315E+03  0.00000000000E+00 0.  1.
         22    1    3    3    0    0 -0.88090186963E+02 -0.55676255852E+02 -0.28597794555E+03  0.30437331001E+03  0.00000000000E+00 0.  1.
</event>
<event>
 7    1  0.7430262E-006  0.4898632E+02  0.7818608E-02  0.1470923E+00
          2   -1    0    0  502    0  0.00000000000E+00  0.00000000000E+00  0.13851340294E+04  0.13851340294E+04  0.00000000000E+00 0. -1.
          1   -1    0    0  501    0 -0.00000000000E+00 -0.00000000000E+00 -0.66779967123E+03  0.66779967123E+03  0.00000000000E+00 0. -1.
         25    2    1    2    0    0 -0.32963096269E+02 -0.35614755022E+01 -0.25925159424E+03  0.28971870323E+03  0.12500515214E+03 0.  0.
          2    1    1    2  501    0  0.25994695679E+02  0.45343247535E+02 -0.39124885688E+03  0.39472446378E+03  0.00000000000E+00 0. -1.
          1    1    1    2  502    0  0.69684005907E+01 -0.41781772033E+02  0.13678348093E+04  0.13684905337E+04  0.00000000000E+00 0. -1.
         22    1    3    3    0    0 -0.74922869256E+00 -0.57577824341E+02 -0.17729424066E+03  0.18641087675E+03  0.00000000000E+00 0.  1.
         22    1    3    3    0    0 -0.32213867577E+02  0.54016348839E+02 -0.81957353584E+02  0.10330782648E+03  0.00000000000E+00 0.  1.
</event>
<event>
 7    1  0.6089676E-006  0.2189131E+03  0.7818608E-02  0.1206775E+00
          2   -1    0    0  502    0  0.00000000000E+00  0.00000000000E+00  0.14117165535E+03  0.14117165535E+03  0.00000000000E+00 0. -1.
          1   -1    0    0  501    0 -0.00000000000E+00 -0.00000000000E+00 -0.17196105595E+04  0.17196105595E+04  0.00000000000E+00 0. -1.
         25    2    1    2    0    0  0.16620357940E+03 -0.52270375778E+02 -0.23885582928E+03  0.32098648126E+03  0.12499756789E+03 0.  0.
          2    1    1    2  501    0  0.80640723522E+02  0.52127217181E+02 -0.12829496854E+04  0.12865380167E+04  0.00000000000E+00 0. -1.
          1    1    1    2  502    0 -0.24684430292E+03  0.14315859749E+00 -0.56633389472E+02  0.25325771693E+03  0.00000000000E+00 0. -1.
         22    1    3    3    0    0  0.77439830520E+02 -0.85645251283E+02 -0.16191796130E+03  0.19887046691E+03  0.00000000000E+00 0. -1.
         22    1    3    3    0    0  0.88763748881E+02  0.33374875504E+02 -0.76937867986E+02  0.12211601435E+03  0.00000000000E+00 0. -1.
</event>
<event>
 7    1  0.6089676E-006  0.4097605E+02  0.7818608E-02  0.1574250E+00
          2   -1    0    0  502    0  0.00000000000E+00  0.00000000000E+00  0.50673869809E+03  0.50673869809E+03  0.00000000000E+00 0. -1.
          1   -1    0    0  501    0 -0.00000000000E+00 -0.00000000000E+00 -0.27375749150E+03  0.27375749150E+03  0.00000000000E+00 0. -1.
         25    2    1    2    0    0  0.13858236810E+02 -0.23509784464E+02 -0.98895469627E+02  0.16170614719E+03  0.12499521364E+03 0.  0.
          2    1    1    2  501    0  0.24163484872E+02  0.78841517183E+01 -0.14143293946E+03  0.14369867854E+03  0.00000000000E+00 0. -1.
          1    1    1    2  502    0 -0.38021721682E+02  0.15625632745E+02  0.47330961568E+03  0.47509136386E+03  0.00000000000E+00 0. -1.
         22    1    3    3    0    0  0.28809927100E+02 -0.38226253549E+02 -0.12166656538E+03  0.13074406866E+03  0.00000000000E+00 0. -1.
         22    1    3    3    0    0 -0.14951690290E+02  0.14716469085E+02  0.22771095750E+02  0.30962078524E+02  0.00000000000E+00 0. -1.
</event>
<event>
 7    1  0.6089676E-006  0.1231221E+03  0.7818608E-02  0.1239262E+00
          2   -1    0    0  502    0  0.00000000000E+00  0.00000000000E+00  0.14563132632E+03  0.14563132632E+03  0.00000000000E+00 0. -1.
          1   -1    0    0  501    0 -0.00000000000E+00 -0.00000000000E+00 -0.95375615943E+03  0.95375615943E+03  0.00000000000E+00 0. -1.
         25    2    1    2    0    0 -0.36391606869E+02 -0.32280719087E+02 -0.74710170291E+03  0.75904729465E+03  0.12500178857E+03 0.  0.
          2    1    1    2  501    0  0.86237210193E+02 -0.85719529464E+02 -0.14342390923E+03  0.18802955058E+03  0.00000000000E+00 0. -1.
          1    1    1    2  502    0 -0.49845603324E+02  0.11800024855E+03  0.82400779038E+02  0.15231064052E+03  0.00000000000E+00 0. -1.
         22    1    3    3    0    0 -0.54343292085E+02 -0.29644949505E+02 -0.15840495028E+03  0.17007099899E+03  0.00000000000E+00 0.  1.
         22    1    3    3    0    0  0.17951685216E+02 -0.26357695810E+01 -0.58869675264E+03  0.58897629566E+03  0.00000000000E+00 0.  1.
</event>
<event>
 7    1  0.6089676E-006  0.5500035E+02  0.7818608E-02  0.1467565E+00
          2   -1    0    0  502    0  0.00000000000E+00  0.00000000000E+00  0.79186951133E+03  0.79186951133E+03  0.00000000000E+00 0. -1.
          1   -1    0    0  501    0 -0.00000000000E+00 -0.00000000000E+00 -0.36959919929E+03  0.36959919929E+03  0.00000000000E+00 0. -1.
         25    2    1    2    0    0  0.35014565752E+02 -0.64017261503E+01 -0.26260358065E+03  0.29300585781E+03  0.12499916089E+03 0.  0.
          2    1    1    2  501    0  0.10728696483E+02  0.37127534996E+02 -0.86700174869E+02  0.94923543473E+02  0.00000000000E+00 0. -1.
          1    1    1    2  502    0 -0.45743262235E+02 -0.30725808845E+02  0.77157406756E+03  0.77353930935E+03  0.00000000000E+00 0. -1.
         22    1    3    3    0    0  0.78993780847E+02 -0.89974898110E+01 -0.12163644825E+03  0.14531482299E+03  0.00000000000E+00 0. -1.
         22    1    3    3    0    0 -0.43979215095E+02  0.25957636608E+01 -0.14096713240E+03  0.14769103482E+03  0.00000000000E+00 0. -1.
</event>
<event>
 7    1  0.6089676E-006  0.3674714E+03  0.7818608E-02  0.1229353E+00
          2   -1    0    0  502    0  0.00000000000E+00  0.00000000000E+00  0.15654826332E+03  0.15654826332E+03  0.00000000000E+00 0. -1.
          1   -1    0    0  501    0 -0.00000000000E+00 -0.00000000000E+00 -0.26472644382E+04  0.26472644382E+04  0.00000000000E+00 0. -1.
         25    2    1    2    0    0 -0.16005392786E+03 -0.35794694546E+03 -0.10582165679E+04  0.11354253646E+04  0.12500071333E+03 0.  0.
          2    1    1    2  501    0  0.16645406443E+03  0.31330798879E+03 -0.15248693306E+04  0.15655974344E+04  0.00000000000E+00 0. -1.
          1    1    1    2  502    0 -0.64001365640E+01  0.44638956670E+02  0.92369723652E+02  0.10278990246E+03  0.00000000000E+00 0. -1.
         22    1    3    3    0    0  0.10578440921E+02 -0.69277791406E+02 -0.11850393877E+03  0.13767534019E+03  0.00000000000E+00 0.  1.
         22    1    3    3    0    0 -0.17063236878E+03 -0.28866915405E+03 -0.93971262915E+03  0.99775002439E+03  0.00000000000E+00 0.  1.
</event>
<event>
 7    1  0.6089676E-006  0.9977685E+02  0.7818608E-02  0.1321142E+00
          2   -1    0    0  502    0  0.00000000000E+00  0.00000000000E+00  0.13593114258E+04  0.13593114258E+04  0.00000000000E+00 0. -1.
          1   -1    0    0  501    0 -0.00000000000E+00 -0.00000000000E+00 -0.14790194556E+03  0.14790194556E+03  0.00000000000E+00 0. -1.
         25    2    1    2    0    0 -0.13468914436E+03  0.91004265041E+02  0.18449750559E+03  0.27583898507E+03  0.12499949701E+03 0.  0.
          2    1    1    2  501    0  0.79275320051E+02 -0.50225527933E+02 -0.79397635594E+02  0.12292747684E+03  0.00000000000E+00 0. -1.
          1    1    1    2  502    0  0.55413824306E+02 -0.40778737108E+02  0.11063096103E+04  0.11084469095E+04  0.00000000000E+00 0. -1.
         22    1    3    3    0    0 -0.13141949057E+03  0.11631505167E+03  0.17695773360E+03  0.24922743274E+03  0.00000000000E+00 0. -1.
         22    1    3    3    0    0 -0.32696537877E+01 -0.25310786632E+02  0.75397719810E+01  0.26611552329E+02  0.00000000000E+00 0. -1.
</event>
<event>
 7    1  0.6089676E-006  0.1485777E+03  0.7818608E-02  0.1319275E+00
          2   -1    0    0  502    0  0.00000000000E+00  0.00000000000E+00  0.65542091983E+03  0.65542091983E+03  0.00000000000E+00 0. -1.
          1   -1    0    0  501    0 -0.00000000000E+00 -0.00000000000E+00 -0.47936350980E+03  0.47936350980E+03  0.00000000000E+00 0. -1.
         25    2    1    2    0    0  0.89620098507E+02 -0.80163038127E+02 -0.12088494535E+02  0.17386504722E+03  0.12500019282E+03 0.  0.
          2    1    1    2  501    0 -0.87931338614E+02  0.12711267269E+03 -0.36990311145E+03  0.40089632542E+03  0.00000000000E+00 0. -1.
          1    1    1    2  502    0 -0.16887598926E+01 -0.46949634561E+02  0.55804901602E+03  0.56002305700E+03  0.00000000000E+00 0. -1.
         22    1    3    3    0    0  0.24097664910E+02 -0.89006749736E+02 -0.41965450193E+02  0.10131139108E+03  0.00000000000E+00 0.  1.
         22    1    3    3    0    0  0.65522433596E+02  0.88437116088E+01  0.29876955658E+02  0.72553656137E+02  0.00000000000E+00 0.  1.
</event>
<event>
 7    1  0.6089676E-006  0.1497761E+03  0.7818608E-02  0.1231341E+00
          2   -1    0    0  502    0  0.00000000000E+00  0.00000000000E+00  0.29256413894E+03  0.29256413894E+03  0.00000000000E+00 0. -1.
          1   -1    0    0  501    0 -0.00000000000E+00 -0.00000000000E+00 -0.17938713332E+04  0.17938713332E+04  0.00000000000E+00 0. -1.
         25    2    1    2    0    0  0.31633230646E+02 -0.78596691719E+02  0.47171922029E+02  0.15820333541E+03  0.12500001551E+03 0.  0.
          2    1    1    2  501    0  0.56360083137E+02  0.14189329636E+03 -0.17192223891E+04  0.17259883515E+04  0.00000000000E+00 0. -1.
          1    1    1    2  502    0 -0.87993313782E+02 -0.63296604642E+02  0.17074327282E+03  0.20224378517E+03  0.00000000000E+00 0. -1.
         22    1    3    3    0    0  0.75795790836E+01 -0.50075528290E+01 -0.40345888338E+02  0.41355970672E+02  0.00000000000E+00 0.  1.
         22    1    3    3    0    0  0.24053651562E+02 -0.73589138890E+02  0.87517810367E+02  0.11684736474E+03  0.00000000000E+00 0.  1.
</event>
<event>
 7    1  0.6089676E-006  0.7925026E+02  0.7818608E-02  0.1508231E+00
          2   -1    0    0  502    0  0.00000000000E+00  0.00000000000E+00  0.19284628950E+02  0.19284628950E+02  0.00000000000E+00 0. -1.
          1   -1    0    0  501    0 -0.00000000000E+00 -0.00000000000E+00 -0.45891912213E+04  0.45891912213E+04  0.00000000000E+00 0. -1.
         25    2    1    2    0    0 -0.75783204449E+02 -0.63195315029E+02 -0.33590634074E+04  0.33628360914E+04  0.12499144059E+03 0.  0.
          2    1    1    2  501    0  0.13555958672E+02  0.14957614264E+02 -0.11386152139E+04  0.11387941427E+04  0.00000000000E+00 0. -1.
          1    1    1    2  502    0  0.62227245776E+02  0.48237700765E+02 -0.72227971005E+02  0.10684561614E+03  0.00000000000E+00 0. -1.
         22    1    3    3    0    0 -0.25546733458E+02 -0.40499269196E+02 -0.34917411118E+03  0.35244203256E+03  0.00000000000E+00 0.  1.
         22    1    3    3    0    0 -0.50236470991E+02 -0.22696045833E+02 -0.30098892963E+04  0.30103940588E+04  0.00000000000E+00 0.  1.
</event>
<event>
 7    1  0.6089676E-006  0.1292193E+03  0.7818608E-02  0.1246950E+00
          2   -1    0    0  502    0  0.00000000000E+00  0.00000000000E+00  0.22899402016E+04  0.22899402016E+04  0.00000000000E+00 0. -1.
          1   -1    0    0  501    0 -0.00000000000E+00 -0.00000000000E+00 -0.17104143177E+03  0.17104143177E+03  0.00000000000E+00 0. -1.
         25    2    1    2    0    0 -0.11035498723E+02  0.61874725040E+02  0.56188207207E+03  0.57903931975E+03  0.12499922831E+03 0.  0.
          2    1    1    2  501    0 -0.12092923118E+03 -0.45538291859E+02 -0.13373827409E+03  0.18596650487E+03  0.00000000000E+00 0. -1.
          1    1    1    2  502    0  0.13196472990E+03 -0.16336433181E+02  0.16907549719E+04  0.16959758087E+04  0.00000000000E+00 0. -1.
         22    1    3    3    0    0  0.29644303606E+02  0.87027933159E+02  0.35693708176E+03  0.36858747431E+03  0.00000000000E+00 0. -1.
         22    1    3    3    0    0 -0.40679802329E+02 -0.25153208119E+02  0.20494499031E+03  0.21045184544E+03  0.00000000000E+00 0. -1.
</event>
<event>
 7    1  0.6089676E-006  0.6264698E+02  0.7818608E-02  0.1451049E+00
          2   -1    0    0  502    0  0.00000000000E+00  0.00000000000E+00  0.15502231809E+04  0.15502231809E+04  0.00000000000E+00 0. -1.
          1   -1    0    0  501    0 -0.00000000000E+00 -0.00000000000E+00 -0.45385551666E+02  0.45385551666E+02  0.00000000000E+00 0. -1.
         25    2    1    2    0    0  0.16203841386E+02 -0.41513811357E+02  0.36371157407E+03  0.38716547619E+03  0.12500014333E+03 0.  0.
          2    1    1    2  501    0  0.15497968052E+02  0.62931848473E+02 -0.18389025878E+01  0.64838153342E+02  0.00000000000E+00 0. -1.
          1    1    1    2  502    0 -0.31701809438E+02 -0.21418037117E+02  0.11429649578E+04  0.11436051031E+04  0.00000000000E+00 0. -1.
         22    1    3    3    0    0  0.17413278678E+02  0.19813625138E+02  0.10056017022E+02  0.28229868823E+02  0.00000000000E+00 0.  1.
         22    1    3    3    0    0 -0.12094372917E+01 -0.61327436495E+02  0.35365555704E+03  0.35893560736E+03  0.00000000000E+00 0.  1.
</event>
<event>
 7    1  0.6089676E-006  0.8818339E+02  0.7818608E-02  0.1338114E+00
          2   -1    0    0  502    0  0.00000000000E+00  0.00000000000E+00  0.19966992610E+03  0.19966992610E+03  0.00000000000E+00 0. -1.
          1   -1    0    0  501    0 -0.00000000000E+00 -0.00000000000E+00 -0.16973555952E+04  0.16973555952E+04  0.00000000000E+00 0. -1.
         25    2    1    2    0    0 -0.66016010363E+01  0.67368689456E+02 -0.23074616056E+03  0.27102054886E+03  0.12500490326E+03 0.  0.
          2    1    1    2  501    0  0.67041591398E+02 -0.56766629530E+00 -0.14343390393E+04  0.14359050724E+04  0.00000000000E+00 0. -1.
          1    1    1    2  502    0 -0.60439990361E+02 -0.66801023161E+02  0.16739953072E+03  0.19009990010E+03  0.00000000000E+00 0. -1.
         22    1    3    3    0    0  0.36485166844E+02 -0.22186599564E+02 -0.65401527599E+02  0.78107441465E+02  0.00000000000E+00 0. -1.
         22    1    3    3    0    0 -0.43086767880E+02  0.89555289020E+02 -0.16534463296E+03  0.19291310740E+03  0.00000000000E+00 0. -1.
</event>
<event>
 7    1  0.6089676E-006  0.1839933E+03  0.7818608E-02  0.1247873E+00
          2   -1    0    0  502    0  0.00000000000E+00  0.00000000000E+00  0.10100997309E+04  0.10100997309E+04  0.00000000000E+00 0. -1.
          1   -1    0    0  501    0 -0.00000000000E+00 -0.00000000000E+00 -0.19803994580E+03  0.19803994580E+03  0.00000000000E+00 0. -1.
         25    2    1    2    0    0  0.50799811670E+02  0.12010449837E+03  0.15665366940E+03  0.23910581854E+03  0.12500203570E+03 0.  0.
          2    1    1    2  501    0 -0.54671791640E+02 -0.19459501861E+03 -0.89031697734E+02  0.22086844335E+03  0.00000000000E+00 0. -1.
          1    1    1    2  502    0  0.38719799704E+01  0.74490520237E+02  0.74443781348E+03  0.74816541485E+03  0.00000000000E+00 0. -1.
         22    1    3    3    0    0 -0.34668683774E+01  0.48908852743E+02 -0.98981219452E+01  0.50020674436E+02  0.00000000000E+00 0.  1.
         22    1    3    3    0    0  0.54266680047E+02  0.71195645627E+02  0.16655179135E+03  0.18908514410E+03  0.00000000000E+00 0.  1.
</event>
<event>
 7    1  0.6089676E-006  0.1102583E+03  0.7818608E-02  0.1382774E+00
          2   -1    0    0  502    0  0.00000000000E+00  0.00000000000E+00  0.80812847216E+03  0.80812847216E+03  0.00000000000E+00 0. -1.
          1   -1    0    0  501    0 -0.00000000000E+00 -0.00000000000E+00 -0.85981846879E+03  0.85981846879E+03  0.00000000000E+00 0. -1.
         25    2    1    2    0    0 -0.82274071591E+02  0.28589159307E+02  0.49397177929E+02  0.16015923396E+03  0.12499814459E+03 0.  0.
          2    1    1    2  501    0 -0.29886381789E+02 -0.21554301233E+02 -0.79952135942E+03  0.80037003185E+03  0.00000000000E+00 0. -1.
          1    1    1    2  502    0  0.11216045338E+03 -0.70348580741E+01  0.69843418485E+03  0.70741767514E+03  0.00000000000E+00 0. -1.
         22    1    3    3    0    0 -0.91993831457E+02 -0.23366031535E+02  0.50041827433E+02  0.10729874626E+03  0.00000000000E+00 0. -1.
         22    1    3    3    0    0  0.97197598659E+01  0.51955190842E+02 -0.64464950437E+00  0.52860487703E+02  0.00000000000E+00 0. -1.
</event>
<event>
 7    1  0.6089676E-006  0.9016416E+02  0.7818608E-02  0.1345576E+00
          2   -1    0    0  502    0  0.00000000000E+00  0.00000000000E+00  0.18620670762E+04  0.18620670762E+04  0.00000000000E+00 0. -1.
          1   -1    0    0  501    0 -0.00000000000E+00 -0.00000000000E+00 -0.12926717381E+03  0.12926717381E+03  0.00000000000E+00 0. -1.
         25    2    1    2    0    0  0.57315823187E+02 -0.95806800390E+01  0.74865014359E+03  0.76123595537E+03  0.12500499680E+03 0.  0.
          2    1    1    2  501    0 -0.57191879155E+02  0.71058465401E+02 -0.10507285580E+03  0.13914209130E+03  0.00000000000E+00 0. -1.
          1    1    1    2  502    0 -0.12394403128E+00 -0.61477785362E+02  0.10892226146E+04  0.10909562033E+04  0.00000000000E+00 0. -1.
         22    1    3    3    0    0  0.78947395215E+02  0.34591788637E+02  0.54216507392E+03  0.54897381579E+03  0.00000000000E+00 0. -1.
         22    1    3    3    0    0 -0.21631572028E+02 -0.44172468676E+02  0.20648506968E+03  0.21226213957E+03  0.00000000000E+00 0. -1.
</event>
<event>
 7    1  0.6089676E-006  0.1568345E+03  0.7818608E-02  0.1286168E+00
          2   -1    0    0  502    0  0.00000000000E+00  0.00000000000E+00  0.43436742577E+03  0.43436742577E+03  0.00000000000E+00 0. -1.
          1   -1    0    0  501    0 -0.00000000000E+00 -0.00000000000E+00 -0.17740604411E+04  0.17740604411E+04  0.00000000000E+00 0. -1.
         25    2    1    2    0    0 -0.16960257802E+03  0.12461634009E+03  0.24060468545E+03  0.34323814832E+03  0.12501018005E+03 0.  0.
          2    1    1    2  501    0  0.13795788984E+03 -0.73270727537E+02 -0.17126413522E+04  0.17197503831E+04  0.00000000000E+00 0. -1.
          1    1    1    2  502    0  0.31644688181E+02 -0.51345612549E+02  0.13234365143E+03  0.14543933544E+03  0.00000000000E+00 0. -1.
         22    1    3    3    0    0 -0.94458152178E+02  0.13668572627E+03  0.18699511481E+03  0.25014496446E+03  0.00000000000E+00 0.  1.
         22    1    3    3    0    0 -0.75144425839E+02 -0.12069386189E+02  0.53609570644E+02  0.93093183866E+02  0.00000000000E+00 0.  1.
</event>
<event>
 7    1  0.6089676E-006  0.5844616E+02  0.7818608E-02  0.1476291E+00
          2   -1    0    0  502    0  0.00000000000E+00  0.00000000000E+00  0.56135695282E+02  0.56135695282E+02  0.00000000000E+00 0. -1.
          1   -1    0    0  501    0 -0.00000000000E+00 -0.00000000000E+00 -0.13016761348E+04  0.13016761348E+04  0.00000000000E+00 0. -1.
         25    2    1    2    0    0  0.22189141013E+02  0.19173409063E+02 -0.55770661551E+03  0.57229505523E+03  0.12499993467E+03 0.  0.
          2    1    1    2  501    0  0.34169568059E+02 -0.23349932785E+00 -0.71802282625E+03  0.71883544217E+03  0.00000000000E+00 0. -1.
          1    1    1    2  502    0 -0.56358709072E+02 -0.18939909736E+02  0.30189002254E+02  0.66681332666E+02  0.00000000000E+00 0. -1.
         22    1    3    3    0    0  0.57339729186E+02  0.53329399852E+02 -0.30596128681E+03  0.31582301762E+03  0.00000000000E+00 0.  1.
         22    1    3    3    0    0 -0.35150588173E+02 -0.34155990789E+02 -0.25174532870E+03  0.25647203761E+03  0.00000000000E+00 0.  1.
</event>
<event>
 7    1  0.7486885E-006  0.8679927E+02  0.7818608E-02  0.1362976E+00
          2   -1    0    0  502    0  0.00000000000E+00  0.00000000000E+00  0.13088757958E+04  0.13088757958E+04  0.00000000000E+00 0. -1.
          1   -1    0    0  501    0 -0.00000000000E+00 -0.00000000000E+00 -0.15664756907E+04  0.15664756907E+04  0.00000000000E+00 0. -1.
         25    2    1    2    0    0  0.73148031368E+02 -0.16575095258E+02 -0.74340442714E+03  0.75756544429E+03  0.12501956569E+03 0.  0.
          2    1    1    2  501    0 -0.88493829223E+02 -0.36348794324E+02 -0.81260028816E+03  0.81821245467E+03  0.00000000000E+00 0. -1.
          1    1    1    2  502    0  0.15345797855E+02  0.52923889583E+02  0.12984048204E+04  0.12995735875E+04  0.00000000000E+00 0. -1.
         22    1    3    3    0    0  0.48368011945E+02 -0.54003385017E+02 -0.64895529137E+03  0.65299219013E+03  0.00000000000E+00 0.  1.
         22    1    3    3    0    0  0.24780019424E+02  0.37428289758E+02 -0.94449135776E+02  0.10457325416E+03  0.00000000000E+00 0.  1.
</event>
<event>
 7    1  0.8043706E-006  0.6562050E+02  0.7818608E-02  0.1386480E+00
          2   -1    0    0  502    0  0.00000000000E+00  0.00000000000E+00  0.26041839126E+04  0.26041839126E+04  0.00000000000E+00 0. -1.
          1   -1    0    0  501    0 -0.00000000000E+00 -0.00000000000E+00 -0.54467905172E+03  0.54467905172E+03  0.00000000000E+00 0. -1.
         25    2    1    2    0    0 -0.25504472852E+02 -0.36194099417E+01 -0.27717138519E+03  0.30514296069E+03  0.12499868569E+03 0.  0.
          2    1    1    2  501    0  0.58056385990E+02 -0.53357975508E+02 -0.24696394575E+03  0.25924661619E+03  0.00000000000E+00 0. -1.
          1    1    1    2  502    0 -0.32551913138E+02  0.56977385450E+02  0.25836401918E+04  0.25844733874E+04  0.00000000000E+00 0. -1.
         22    1    3    3    0    0 -0.72109191930E+02 -0.24521683539E+02 -0.15415912080E+03  0.17194790796E+03  0.00000000000E+00 0. -1.
         22    1    3    3    0    0  0.46604719078E+02  0.20902273597E+02 -0.12301226439E+03  0.13319505273E+03  0.00000000000E+00 0. -1.
</event>
<event>
 7    1  0.6089676E-006  0.1439043E+03  0.7818608E-02  0.1213959E+00
          2   -1    0    0  502    0  0.00000000000E+00  0.00000000000E+00  0.10142480183E+04  0.10142480183E+04  0.00000000000E+00 0. -1.
          1   -1    0    0  501    0 -0.00000000000E+00 -0.00000000000E+00 -0.90152969699E+03  0.90152969699E+03  0.00000000000E+00 0. -1.
         25    2    1    2    0    0  0.52890984456E+01 -0.11237831226E+02 -0.25528649920E+03  0.28451705283E+03  0.12499797305E+03 0.  0.
          2    1    1    2  501    0  0.10537847202E+03 -0.84850936623E+02 -0.61890879688E+03  0.63352379803E+03  0.00000000000E+00 0. -1.
          1    1    1    2  502    0 -0.11066757046E+03  0.96088767849E+02  0.98691361735E+03  0.99773686439E+03  0.00000000000E+00 0. -1.
         22    1    3    3    0    0 -0.29078598100E+02  0.10750192703E+02 -0.23832367495E+03  0.24033165741E+03  0.00000000000E+00 0.  1.
         22    1    3    3    0    0  0.34367696545E+02 -0.21988023929E+02 -0.16962824243E+02  0.44185395420E+02  0.00000000000E+00 0.  1.
</event>
<event>
 7    1  0.6089676E-006  0.7118452E+02  0.7818608E-02  0.1416316E+00
          2   -1    0    0  502    0  0.00000000000E+00  0.00000000000E+00  0.21643555602E+04  0.21643555602E+04  0.00000000000E+00 0. -1.
          1   -1    0    0  501    0 -0.00000000000E+00 -0.00000000000E+00 -0.19447171230E+04  0.19447171230E+04  0.00000000000E+00 0. -1.
         25    2    1    2    0    0 -0.84986473012E+02 -0.64422085827E+02  0.19883950261E+03  0.25794707115E+03  0.12500655175E+03 0.  0.
          2    1    1    2  501    0  0.43063960978E+02  0.77346938040E+01 -0.19142713574E+04  0.19147713075E+04  0.00000000000E+00 0. -1.
          1    1    1    2  502    0  0.41922512034E+02  0.56687392023E+02  0.19350702921E+04  0.19363543046E+04  0.00000000000E+00 0. -1.
         22    1    3    3    0    0 -0.71649626237E+02 -0.66834965135E+02  0.21534597047E+03  0.23658924004E+03  0.00000000000E+00 0.  1.
         22    1    3    3    0    0 -0.13336846775E+02  0.24128793080E+01 -0.16506467863E+02  0.21357831111E+02  0.00000000000E+00 0.  1.
</event>
<event>
 7    1  0.6089676E-006  0.2667755E+03  0.7818608E-02  0.1279257E+00
          2   -1    0    0  502    0  0.00000000000E+00  0.00000000000E+00  0.14049415864E+04  0.14049415864E+04  0.00000000000E+00 0. -1.
          1   -1    0    0  501    0 -0.00000000000E+00 -0.00000000000E+00 -0.15325180859E+03  0.15325180859E+03  0.00000000000E+00 0. -1.
         25    2    1    2    0    0 -0.21012435332E+03 -0.14400267357E+03  0.19530749206E+03  0.34446909140E+03  0.12499969847E+03 0.  0.
          2    1    1    2  501    0  0.21108392707E+03  0.18184788581E+03  0.16968209319E+03  0.32621632484E+03  0.00000000000E+00 0. -1.
          1    1    1    2  502    0 -0.95957374944E+00 -0.37845212231E+02  0.88670019255E+03  0.88750797874E+03  0.00000000000E+00 0. -1.
         22    1    3    3    0    0 -0.76593735992E+02 -0.36942685463E+02  0.34038445038E+00  0.85038098897E+02  0.00000000000E+00 0.  1.
         22    1    3    3    0    0 -0.13353061733E+03 -0.10705998811E+03  0.19496710761E+03  0.25943099250E+03  0.00000000000E+00 0.  1.
</event>
<event>
 7    1  0.6089676E-006  0.1558963E+03  0.7818608E-02  0.1214570E+00
          2   -1    0    0  502    0  0.00000000000E+00  0.00000000000E+00  0.89301684811E+02  0.89301684811E+02  0.00000000000E+00 0. -1.
          1   -1    0    0  501    0 -0.00000000000E+00 -0.00000000000E+00 -0.24545561540E+04  0.24545561540E+04  0.00000000000E+00 0. -1.
         25    2    1    2    0    0  0.24026696382E+01 -0.77415882713E+02 -0.11307807600E+04  0.11403018581E+04  0.12499683429E+03 0.  0.
          2    1    1    2  501    0 -0.44548993475E+02  0.22750694965E+03 -0.12256804285E+04  0.12474119358E+04  0.00000000000E+00 0. -1.
          1    1    1    2  502    0  0.42146323837E+02 -0.15009106694E+03 -0.87932807652E+01  0.15614404495E+03  0.00000000000E+00 0. -1.
         22    1    3    3    0    0 -0.42826901870E+02 -0.41020416901E+02 -0.91274741693E+03  0.91467188939E+03  0.00000000000E+00 0.  1.
         22    1    3    3    0    0  0.45229571508E+02 -0.36395465812E+02 -0.21803334307E+03  0.22562996867E+03  0.00000000000E+00 0.  1.
</event>
<event>
 7    1  0.6089676E-006  0.3409037E+03  0.7818608E-02  0.1190168E+00
          2   -1    0    0  502    0  0.00000000000E+00  0.00000000000E+00  0.66258602028E+03  0.66258602028E+03  0.00000000000E+00 0. -1.
          1   -1    0    0  501    0 -0.00000000000E+00 -0.00000000000E+00 -0.84827415369E+03  0.84827415369E+03  0.00000000000E+00 0. -1.
         25    2    1    2    0    0 -0.30349590668E+03  0.26581483967E+03  0.91494619046E+02  0.43216205149E+03  0.12500191630E+03 0.  0.
          2    1    1    2  501    0  0.23961841081E+03 -0.22868889729E+03 -0.63346382887E+03  0.71483705628E+03  0.00000000000E+00 0. -1.
          1    1    1    2  502    0  0.63877495864E+02 -0.37125942375E+02  0.35628107642E+03  0.36386106619E+03  0.00000000000E+00 0. -1.
         22    1    3    3    0    0 -0.29035912832E+03  0.27974397291E+03  0.88327127476E+02  0.41275512744E+03  0.00000000000E+00 0.  1.
         22    1    3    3    0    0 -0.13136778358E+02 -0.13929133241E+02  0.31674915704E+01  0.19406924056E+02  0.00000000000E+00 0.  1.
</event>
<event>
 7    1  0.6089676E-006  0.4655792E+02  0.7818608E-02  0.1558688E+00
          2   -1    0    0  502    0  0.00000000000E+00  0.00000000000E+00  0.15294203572E+04  0.15294203572E+04  0.00000000000E+00 0. -1.
          1   -1    0    0  501    0 -0.00000000000E+00 -0.00000000000E+00 -0.96268246516E+02  0.96268246516E+02  0.00000000000E+00 0. -1.
         25    2    1    2    0    0 -0.14543930080E+02  0.62074474232E+02  0.48023847254E+03  0.50031924382E+03  0.12500235587E+03 0.  0.
          2    1    1    2  501    0  0.24383449342E+02 -0.39453381549E+02 -0.79833165076E+02  0.92327981476E+02  0.00000000000E+00 0. -1.
          1    1    1    2  502    0 -0.98395192613E+01 -0.22621092683E+02  0.10327468032E+04  0.10330413784E+04  0.00000000000E+00 0. -1.
         22    1    3    3    0    0 -0.46934628654E+02 -0.87746983127E+01  0.30267967338E+03  0.30642264827E+03  0.00000000000E+00 0. -1.
         22    1    3    3    0    0  0.32390698574E+02  0.70849172544E+02  0.17755879916E+03  0.19389659554E+03  0.00000000000E+00 0. -1.
</event>
<event>
 7    1  0.6089676E-006  0.7711665E+02  0.7818608E-02  0.1367516E+00
          2   -1    0    0  502    0  0.00000000000E+00  0.00000000000E+00  0.17383421357E+04  0.17383421357E+04  0.00000000000E+00 0. -1.
          1   -1    0    0  501    0 -0.00000000000E+00 -0.00000000000E+00 -0.11620232729E+03  0.11620232729E+03  0.00000000000E+00 0. -1.
         25    2    1    2    0    0  0.74552651773E+02 -0.59908956922E+02  0.45368401394E+02  0.16381319853E+03  0.12501716346E+03 0.  0.
          2    1    1    2  501    0 -0.16699249278E+02  0.74718626859E+02 -0.30454191448E+02  0.82396577010E+02  0.00000000000E+00 0. -1.
          1    1    1    2  502    0 -0.57853402495E+02 -0.14809669938E+02  0.16072255985E+04  0.16083346875E+04  0.00000000000E+00 0. -1.
         22    1    3    3    0    0  0.26923316227E+02  0.21473860406E+02 -0.27961505161E+02  0.44360313437E+02  0.00000000000E+00 0.  1.
         22    1    3    3    0    0  0.47629335546E+02 -0.81382817328E+02  0.73329906555E+02  0.11945288509E+03  0.00000000000E+00 0.  1.
</event>
<event>
 7    1  0.8042465E-006  0.2074951E+03  0.7818608E-02  0.1253686E+00
          2   -1    0    0  502    0  0.00000000000E+00  0.00000000000E+00  0.12387567534E+04  0.12387567534E+04  0.00000000000E+00 0. -1.
          1   -1    0    0  501    0 -0.00000000000E+00 -0.00000000000E+00 -0.16959576659E+04  0.16959576659E+04  0.00000000000E+00 0. -1.
         25    2    1    2    0    0 -0.10098043725E+03 -0.10684751037E+03 -0.73493599555E+03  0.75984829029E+03  0.12500027010E+03 0.  0.
          2    1    1    2  501    0 -0.52284021869E+02 -0.34090535481E+02 -0.93868335039E+03  0.94075619363E+03  0.00000000000E+00 0. -1.
          1    1    1    2  502    0  0.15326445912E+03  0.14093804585E+03  0.12164184335E+04  0.12341099353E+04  0.00000000000E+00 0. -1.
         22    1    3    3    0    0 -0.19835695504E+02 -0.10866385510E+03 -0.46717537800E+03  0.48005637380E+03  0.00000000000E+00 0. -1.
         22    1    3    3    0    0 -0.81144741742E+02  0.18163447299E+01 -0.26776061755E+03  0.27979191649E+03  0.00000000000E+00 0. -1.
</event>
<event>
 7    1  0.6089676E-006  0.4823986E+02  0.7818608E-02  0.1488101E+00
          2   -1    0    0  502    0  0.00000000000E+00  0.00000000000E+00  0.14956967876E+04  0.14956967876E+04  0.00000000000E+00 0. -1.
          1   -1    0    0  501    0 -0.00000000000E+00 -0.00000000000E+00 -0.54807420172E+03  0.54807420172E+03  0.00000000000E+00 0. -1.
         25    2    1    2    0    0  0.15705232295E+02 -0.20915718985E+01  0.49048682452E+02  0.13521440019E+03  0.12500452701E+03 0.  0.
          2    1    1    2  501    0 -0.32463188965E+02  0.36303872041E+02 -0.50355782684E+03  0.50590741716E+03  0.00000000000E+00 0. -1.
          1    1    1    2  502    0  0.16757956670E+02 -0.34212300142E+02  0.14021317302E+04  0.14026491719E+04  0.00000000000E+00 0. -1.
         22    1    3    3    0    0  0.31482097576E+02 -0.30636661538E+02 -0.27624566783E+02  0.51892621710E+02  0.00000000000E+00 0.  1.
         22    1    3    3    0    0 -0.15776865281E+02  0.28545089639E+02  0.76673249235E+02  0.83321778478E+02  0.00000000000E+00 0.  1.
</event>
<event>
 7    1  0.6089676E-006  0.3504556E+02  0.7818608E-02  0.1607604E+00
          2   -1    0    0  502    0  0.00000000000E+00  0.00000000000E+00  0.84423386389E+03  0.84423386389E+03  0.00000000000E+00 0. -1.
          1   -1    0    0  501    0 -0.00000000000E+00 -0.00000000000E+00 -0.12532633443E+04  0.12532633443E+04  0.00000000000E+00 0. -1.
         25    2    1    2    0    0  0.19328135124E+02  0.27258109737E+02 -0.56872829878E+03  0.58326148475E+03  0.12500200164E+03 0.  0.
          2    1    1    2  501    0 -0.34638276255E+02 -0.84431370456E+01 -0.67662327769E+03  0.67756192090E+03  0.00000000000E+00 0. -1.
          1    1    1    2  502    0  0.15310141131E+02 -0.18814972691E+02  0.83632209602E+03  0.83667380257E+03  0.00000000000E+00 0. -1.
         22    1    3    3    0    0  0.57307359107E+02  0.54723578562E+02 -0.41689430845E+03  0.42435794782E+03  0.00000000000E+00 0. -1.
         22    1    3    3    0    0 -0.37979223983E+02 -0.27465468826E+02 -0.15183399033E+03  0.15890353694E+03  0.00000000000E+00 0. -1.
</event>
<event>
 7    1  0.6089676E-006  0.9254084E+02  0.7818608E-02  0.1477124E+00
          2   -1    0    0  502    0  0.00000000000E+00  0.00000000000E+00  0.15947511152E+04  0.15947511152E+04  0.00000000000E+00 0. -1.
          1   -1    0    0  501    0 -0.00000000000E+00 -0.00000000000E+00 -0.21254513932E+03  0.21254513932E+03  0.00000000000E+00 0. -1.
         25    2    1    2    0    0 -0.91621211699E+01 -0.86386479406E+02  0.79816140679E+03  0.81254738375E+03  0.12500020507E+03 0.  0.
          2    1    1    2  501    0  0.19724001976E+02 -0.84398949546E+01 -0.20189866280E+03  0.20303531250E+03  0.00000000000E+00 0. -1.
          1    1    1    2  502    0 -0.10561880806E+02  0.94826374361E+02  0.78594323186E+03  0.79171355824E+03  0.00000000000E+00 0. -1.
         22    1    3    3    0    0 -0.34292515534E+02 -0.11083511486E+03  0.65180568415E+03  0.66205063945E+03  0.00000000000E+00 0. -1.
         22    1    3    3    0    0  0.25130394364E+02  0.24448635452E+02  0.14635572264E+03  0.15049674431E+03  0.00000000000E+00 0. -1.
</event>
<event>
 7    1  0.6089676E-006  0.3606298E+03  0.7818608E-02  0.1170624E+00
          2   -1    0    0  502    0  0.00000000000E+00  0.00000000000E+00  0.13967395132E+04  0.13967395132E+04  0.00000000000E+00 0. -1.
          1   -1    0    0  501    0 -0.00000000000E+00 -0.00000000000E+00 -0.21094027300E+03  0.21094027300E+03  0.00000000000E+00 0. -1.
         25    2    1    2    0    0  0.23277570771E+03 -0.31233260105E+03  0.48574082890E+03  0.63506286261E+03  0.12499801128E+03 0.  0.
          2    1    1    2  501    0 -0.14607127197E+03  0.31932986887E+03  0.98367128675E+02  0.36467036301E+03  0.00000000000E+00 0. -1.
          1    1    1    2  502    0 -0.86704435741E+02 -0.69972678193E+01  0.60169128266E+03  0.60794656061E+03  0.00000000000E+00 0. -1.
         22    1    3    3    0    0  0.70244772506E+02 -0.60872541552E+02  0.47712905155E+02  0.10448117389E+03  0.00000000000E+00 0.  1.
         22    1    3    3    0    0  0.16253093521E+03 -0.25146005950E+03  0.43802792374E+03  0.53058168872E+03  0.00000000000E+00 0.  1.
</event>
<event>
 7    1  0.6089676E-006  0.5214822E+02  0.7818608E-02  0.1449258E+00
          2   -1    0    0  502    0  0.00000000000E+00  0.00000000000E+00  0.30880929489E+04  0.30880929489E+04  0.00000000000E+00 0. -1.
          1   -1    0    0  501    0 -0.00000000000E+00 -0.00000000000E+00 -0.34559346525E+03  0.34559346525E+03  0.00000000000E+00 0. -1.
         25    2    1    2    0    0  0.39978175288E+02 -0.88135972645E+02  0.86717044257E+03  0.88145367363E+03  0.12493917763E+03 0.  0.
          2    1    1    2  501    0 -0.21694944547E+02  0.41209670873E+02 -0.33656177639E+03  0.33976865205E+03  0.00000000000E+00 0. -1.
          1    1    1    2  502    0 -0.18283230741E+02  0.46926301772E+02  0.22118908174E+04  0.22124640884E+04  0.00000000000E+00 0. -1.
         22    1    3    3    0    0 -0.29304872496E+02 -0.23745871267E+02  0.78060047451E+02  0.86694941965E+02  0.00000000000E+00 0. -1.
         22    1    3    3    0    0  0.69283047784E+02 -0.64390101379E+02  0.78911039512E+03  0.79475873166E+03  0.00000000000E+00 0. -1.
</event>
<event>
 7    1  0.6089676E-006  0.1808150E+03  0.7818608E-02  0.1305705E+00
          2   -1    0    0  502    0  0.00000000000E+00  0.00000000000E+00  0.25086844133E+03  0.25086844133E+03  0.00000000000E+00 0. -1.
          1   -1    0    0  501    0 -0.00000000000E+00 -0.00000000000E+00 -0.10777085218E+04  0.10777085218E+04  0.00000000000E+00 0. -1.
         25    2    1    2    0    0  0.36500167645E+02  0.21423156226E+03 -0.19641061039E+03  0.31848371407E+03  0.12500929464E+03 0.  0.
          2    1    1    2  501    0 -0.16970577256E+02 -0.40207315650E+02 -0.77913484305E+03  0.78035615739E+03  0.00000000000E+00 0. -1.
          1    1    1    2  502    0 -0.19529590389E+02 -0.17402424661E+03  0.14870537301E+03  0.22973709163E+03  0.00000000000E+00 0. -1.
         22    1    3    3    0    0  0.72889821985E+02  0.17334915770E+03 -0.18241952654E+03  0.26199187065E+03  0.00000000000E+00 0.  1.
         22    1    3    3    0    0 -0.36389654340E+02  0.40882404565E+02 -0.13991083851E+02  0.56491843422E+02  0.00000000000E+00 0.  1.
</event>
<event>
 7    1  0.6089676E-006  0.8788995E+02  0.7818608E-02  0.1310091E+00
          2   -1    0    0  502    0  0.00000000000E+00  0.00000000000E+00  0.24739168835E+03  0.24739168835E+03  0.00000000000E+00 0. -1.
          1   -1    0    0  501    0 -0.00000000000E+00 -0.00000000000E+00 -0.12391948100E+04  0.12391948100E+04  0.00000000000E+00 0. -1.
         25    2    1    2    0    0  0.15222869291E+02  0.82855552136E+01 -0.55672822221E+01  0.12631774734E+03  0.12499916994E+03 0.  0.
          2    1    1    2  501    0  0.66665085784E+02  0.54756022744E+02 -0.11572464449E+04  0.11604575778E+04  0.00000000000E+00 0. -1.
          1    1    1    2  502    0 -0.81887955075E+02 -0.63041577958E+02  0.17101060548E+03  0.19981117318E+03  0.00000000000E+00 0. -1.
         22    1    3    3    0    0  0.26233311629E+02  0.17401606930E+02  0.55387913707E+02  0.63708896926E+02  0.00000000000E+00 0.  1.
         22    1    3    3    0    0 -0.11010442338E+02 -0.91160517159E+01 -0.60955195929E+02  0.62608850413E+02  0.00000000000E+00 0.  1.
</event>
<event>
 7    1  0.6089676E-006  0.8300597E+02  0.7818608E-02  0.1348448E+00
          2   -1    0    0  502    0  0.00000000000E+00  0.00000000000E+00  0.65829602234E+03  0.65829602234E+03  0.00000000000E+00 0. -1.
          1   -1    0    0  501    0 -0.00000000000E+00 -0.00000000000E+00 -0.30617202927E+03  0.30617202927E+03  0.00000000000E+00 0. -1.
         25    2    1    2    0    0 -0.86049188053E+02 -0.41471536797E+02  0.26688550547E+02  0.15956941536E+03  0.12500307380E+03 0.  0.
          2    1    1    2  501    0  0.58818250440E+01  0.64890202859E+02 -0.23213607108E+03  0.24110680163E+03  0.00000000000E+00 0. -1.
          1    1    1    2  502    0  0.80167363009E+02 -0.23418666063E+02  0.55757151360E+03  0.56379183463E+03  0.00000000000E+00 0. -1.
         22    1    3    3    0    0 -0.32052795522E+02  0.17727187295E+02 -0.40785024404E+02  0.54818364495E+02  0.00000000000E+00 0.  1.
         22    1    3    3    0    0 -0.53996392531E+02 -0.59198724092E+02  0.67473574952E+02  0.10475105086E+03  0.00000000000E+00 0.  1.
</event>
<event>
 7    1  0.6089676E-006  0.4424522E+02  0.7818608E-02  0.1591318E+00
          2   -1    0    0  502    0  0.00000000000E+00  0.00000000000E+00  0.51269861488E+03  0.51269861488E+03  0.00000000000E+00 0. -1.
          1   -1    0    0  501    0 -0.00000000000E+00 -0.00000000000E+00 -0.15342873301E+04  0.15342873301E+04  0.00000000000E+00 0. -1.
         25    2    1    2    0    0 -0.27181600418E+02  0.16534026003E+02 -0.79854594769E+03  0.80889646290E+03  0.12500257473E+03 0.  0.
          2    1    1    2  501    0  0.35491207649E+01  0.20893500339E+02 -0.72944679986E+03  0.72975459467E+03  0.00000000000E+00 0. -1.
          1    1    1    2  502    0  0.23632479653E+02 -0.37427526342E+02  0.50640403233E+03  0.50833488743E+03  0.00000000000E+00 0. -1.
         22    1    3    3    0    0  0.34235883543E+02  0.14713707164E+02 -0.59773398385E+03  0.59889440167E+03  0.00000000000E+00 0.  1.
         22    1    3    3    0    0 -0.61417483961E+02  0.18203188383E+01 -0.20081196384E+03  0.21000206122E+03  0.00000000000E+00 0.  1.
</event>
<event>
 7    1  0.6089676E-006  0.2993351E+02  0.7818608E-02  0.1655606E+00
          2   -1    0    0  502    0  0.00000000000E+00  0.00000000000E+00  0.11167686052E+04  0.11167686052E+04  0.00000000000E+00 0. -1.
          1   -1    0    0  501    0 -0.00000000000E+00 -0.00000000000E+00 -0.64805272094E+03  0.64805272094E+03  0.00000000000E+00 0. -1.
         25    2    1    2    0    0  0.80256417443E+01  0.50670409798E+02  0.59351209600E+02  0.14757895903E+03  0.12500032685E+03 0.  0.
          2    1    1    2  501    0 -0.60116839446E+01 -0.29245998169E+02 -0.60345546648E+03  0.60419365172E+03  0.00000000000E+00 0. -1.
          1    1    1    2  502    0 -0.20139577997E+01 -0.21424411629E+02  0.10128201412E+04  0.10130487154E+04  0.00000000000E+00 0. -1.
         22    1    3    3    0    0 -0.56895753233E+02  0.10198899104E+02  0.33596028996E+02  0.66856842905E+02  0.00000000000E+00 0.  1.
         22    1    3    3    0    0  0.64921394978E+02  0.40471510694E+02  0.25755180604E+02  0.80722116125E+02  0.00000000000E+00 0.  1.
</event>
<event>
 7    1  0.6089676E-006  0.4893758E+02  0.7818608E-02  0.1488402E+00
          2   -1    0    0  502    0  0.00000000000E+00  0.00000000000E+00  0.32801344913E+02  0.32801344913E+02  0.00000000000E+00 0. -1.
          1   -1    0    0  501    0 -0.00000000000E+00 -0.00000000000E+00 -0.13245955138E+04  0.13245955138E+04  0.00000000000E+00 0. -1.
         25    2    1    2    0    0 -0.52269269833E+02 -0.20253372168E+02 -0.80254282311E+03  0.81415120349E+03  0.12499969424E+03 0.  0.
          2    1    1    2  501    0  0.29412570009E+02 -0.23220810559E+02 -0.49259226630E+03  0.49401563350E+03  0.00000000000E+00 0. -1.
          1    1    1    2  502    0  0.22856699824E+02  0.43474182727E+02  0.33409205158E+01  0.49230021740E+02  0.00000000000E+00 0. -1.
         22    1    3    3    0    0 -0.84291360744E+02 -0.14410456917E+02 -0.34456022614E+03  0.35501330145E+03  0.00000000000E+00 0.  1.
         22    1    3    3    0    0  0.32022090911E+02 -0.58429152514E+01 -0.45798259697E+03  0.45913790204E+03  0.00000000000E+00 0.  1.
</event>
<event>
 7    1  0.6089676E-006  0.8984468E+02  0.7818608E-02  0.1305755E+00
          2   -1    0    0  502    0  0.00000000000E+00  0.00000000000E+00  0.16803812404E+04  0.16803812404E+04  0.00000000000E+00 0. -1.
          1   -1    0    0  501    0 -0.00000000000E+00 -0.00000000000E+00 -0.46482708392E+03  0.46482708392E+03  0.00000000000E+00 0. -1.
         25    2    1    2    0    0  0.10060608697E+02  0.12749576066E+02  0.43910502957E+03  0.45683967621E+03  0.12500198092E+03 0.  0.
          2    1    1    2  501    0  0.53673594812E+02 -0.73124725385E+02 -0.44986356595E+03  0.45891753966E+03  0.00000000000E+00 0. -1.
          1    1    1    2  502    0 -0.63734203509E+02  0.60375149319E+02  0.12263126929E+04  0.12294511085E+04  0.00000000000E+00 0. -1.
         22    1    3    3    0    0 -0.54742782188E+02  0.11772415856E+02  0.13977495891E+03  0.15057357376E+03  0.00000000000E+00 0.  1.
         22    1    3    3    0    0  0.64803390885E+02  0.97716021016E+00  0.29933007066E+03  0.30626610245E+03  0.00000000000E+00 0.  1.
</event>
<event>
 7    1  0.6089676E-006  0.1001478E+03  0.7818608E-02  0.1302402E+00
          2   -1    0    0  502    0  0.00000000000E+00  0.00000000000E+00  0.96981417258E+03  0.96981417258E+03  0.00000000000E+00 0. -1.
          1   -1    0    0  501    0 -0.00000000000E+00 -0.00000000000E+00 -0.55227181636E+02  0.55227181636E+02  0.00000000000E+00 0. -1.
         25    2    1    2    0    0 -0.44105572796E+02  0.92094661073E+01  0.18235235235E+03  0.22562708827E+03  0.12500034694E+03 0.  0.
          2    1    1    2  501    0 -0.59399750273E+02 -0.55385782481E+02  0.27681400323E+02  0.85803118576E+02  0.00000000000E+00 0. -1.
          1    1    1    2  502    0  0.10350532307E+03  0.46176316373E+02  0.70455323827E+03  0.71361114737E+03  0.00000000000E+00 0. -1.
         22    1    3    3    0    0  0.40270075754E+02  0.21925422844E+02  0.81570900409E+02  0.93574649140E+02  0.00000000000E+00 0.  1.
         22    1    3    3    0    0 -0.84375648550E+02 -0.12715956737E+02  0.10078145194E+03  0.13205243913E+03  0.00000000000E+00 0.  1.
</event>
<event>
 7    1  0.6089676E-006  0.7381188E+02  0.7818608E-02  0.1360903E+00
          2   -1    0    0  502    0  0.00000000000E+00  0.00000000000E+00  0.22505785326E+04  0.22505785326E+04  0.00000000000E+00 0. -1.
          1   -1    0    0  501    0 -0.00000000000E+00 -0.00000000000E+00 -0.13716506837E+04  0.13716506837E+04  0.00000000000E+00 0. -1.
         25    2    1    2    0    0 -0.13160535018E+03 -0.35688132561E+02  0.52295122575E+02  0.19223348491E+03  0.12500128749E+03 0.  0.
          2    1    1    2  501    0  0.65848683279E+02  0.33681706180E+01 -0.13002152858E+04  0.13018860100E+04  0.00000000000E+00 0. -1.
          1    1    1    2  502    0  0.65756666904E+02  0.32319961943E+02  0.21268480121E+04  0.21281097213E+04  0.00000000000E+00 0. -1.
         22    1    3    3    0    0 -0.15199148991E+03 -0.32723242911E+02  0.64462282457E+02  0.16830807910E+03  0.00000000000E+00 0.  1.
         22    1    3    3    0    0  0.20386139727E+02 -0.29648896508E+01 -0.12167159882E+02  0.23925405811E+02  0.00000000000E+00 0.  1.
</event>
<event>
 7    1  0.6089676E-006  0.3874158E+02  0.7818608E-02  0.1527710E+00
          2   -1    0    0  502    0  0.00000000000E+00  0.00000000000E+00  0.85840605105E+03  0.85840605105E+03  0.00000000000E+00 0. -1.
          1   -1    0    0  501    0 -0.00000000000E+00 -0.00000000000E+00 -0.21251831006E+02  0.21251831006E+02  0.00000000000E+00 0. -1.
         25    2    1    2    0    0 -0.47104961567E+02 -0.32289557669E+02  0.38077265202E+03  0.40481489156E+03  0.12500316383E+03 0.  0.
          2    1    1    2  501    0  0.11086660676E+02  0.36271880535E+02  0.34082446871E+02  0.50991926294E+02  0.00000000000E+00 0. -1.
          1    1    1    2  502    0  0.36018300891E+02 -0.39823228663E+01  0.42229912116E+03  0.42385106420E+03  0.00000000000E+00 0. -1.
         22    1    3    3    0    0 -0.35396933249E+02 -0.66238173606E+01  0.37409627523E+03  0.37582554594E+03  0.00000000000E+00 0. -1.
         22    1    3    3    0    0 -0.11708028318E+02 -0.25665740308E+02  0.66763767886E+01  0.28989345623E+02  0.00000000000E+00 0. -1.
</event>
<event>
 7    1  0.6089676E-006  0.5151752E+02  0.7818608E-02  0.1509425E+00
          2   -1    0    0  502    0  0.00000000000E+00  0.00000000000E+00  0.16231526005E+03  0.16231526005E+03  0.00000000000E+00 0. -1.
          1   -1    0    0  501    0 -0.00000000000E+00 -0.00000000000E+00 -0.55184818251E+03  0.55184818251E+03  0.00000000000E+00 0. -1.
         25    2    1    2    0    0  0.10629047516E+02  0.30433298337E+02 -0.26278426450E+03  0.29277749527E+03  0.12499571900E+03 0.  0.
          2    1    1    2  501    0  0.75721019574E+01 -0.55283315397E+02 -0.26956805226E+03  0.27528261203E+03  0.00000000000E+00 0. -1.
          1    1    1    2  502    0 -0.18201149473E+02  0.24850017060E+02  0.14281939429E+03  0.14610333526E+03  0.00000000000E+00 0. -1.
         22    1    3    3    0    0  0.27936085377E+02  0.75663791806E+02 -0.16466524338E+03  0.18335778313E+03  0.00000000000E+00 0.  1.
         22    1    3    3    0    0 -0.17307037861E+02 -0.45230493469E+02 -0.98119021121E+02  0.10941971214E+03  0.00000000000E+00 0.  1.
</event>
<event>
 7    1  0.6089676E-006  0.6029228E+02  0.7818608E-02  0.1432032E+00
          2   -1    0    0  502    0  0.00000000000E+00  0.00000000000E+00  0.28807253250E+04  0.28807253250E+04  0.00000000000E+00 0. -1.
          1   -1    0    0  501    0 -0.00000000000E+00 -0.00000000000E+00 -0.81638555414E+03  0.81638555414E+03  0.00000000000E+00 0. -1.
         25    2    1    2    0    0  0.39566167501E+02  0.85494270006E+02  0.44953090056E+03  0.47600077214E+03  0.12499581074E+03 0.  0.
          2    1    1    2  501    0 -0.37736806908E+02 -0.25969538393E+02 -0.80213032987E+03  0.80343733397E+03  0.00000000000E+00 0. -1.
          1    1    1    2  502    0 -0.18293605930E+01 -0.59524731613E+02  0.24169392002E+04  0.24176727730E+04  0.00000000000E+00 0. -1.
         22    1    3    3    0    0  0.75240743561E+02  0.14026788244E+02  0.22876725949E+03  0.24123096670E+03  0.00000000000E+00 0. -1.
         22    1    3    3    0    0 -0.35674576060E+02  0.71467481762E+02  0.22076364107E+03  0.23476980544E+03  0.00000000000E+00 0. -1.
</event>
<event>
 7    1  0.6089676E-006  0.1132351E+03  0.7818608E-02  0.1290849E+00
          2   -1    0    0  502    0  0.00000000000E+00  0.00000000000E+00  0.19363136904E+03  0.19363136904E+03  0.00000000000E+00 0. -1.
          1   -1    0    0  501    0 -0.00000000000E+00 -0.00000000000E+00 -0.35572324560E+03  0.35572324560E+03  0.00000000000E+00 0. -1.
         25    2    1    2    0    0  0.89407604083E+02  0.69902622131E+02  0.38148245019E+02  0.17307932777E+03  0.12498427443E+03 0.  0.
          2    1    1    2  501    0 -0.61493220607E+02  0.51086712906E+02 -0.23426464870E+03  0.24753018815E+03  0.00000000000E+00 0. -1.
          1    1    1    2  502    0 -0.27914383476E+02 -0.12098933504E+03  0.34024527121E+02  0.12874509872E+03  0.00000000000E+00 0. -1.
         22    1    3    3    0    0 -0.18132979202E+02 -0.14624395299E+02  0.27267417195E+02  0.35863489973E+02  0.00000000000E+00 0. -1.
         22    1    3    3    0    0  0.10754058328E+03  0.84527017431E+02  0.10880827824E+02  0.13721583780E+03  0.00000000000E+00 0. -1.
</event>
<event>
 7    1  0.6089676E-006  0.1100531E+03  0.7818608E-02  0.1292653E+00
          2   -1    0    0  502    0  0.00000000000E+00  0.00000000000E+00  0.57990766328E+03  0.57990766328E+03  0.00000000000E+00 0. -1.
          1   -1    0    0  501    0 -0.00000000000E+00 -0.00000000000E+00 -0.13644353229E+04  0.13644353229E+04  0.00000000000E+00 0. -1.
         25    2    1    2    0    0 -0.44769278342E+02 -0.27254764067E+02  0.26792913029E+02  0.13813727274E+03  0.12496773777E+03 0.  0.
          2    1    1    2  501    0 -0.38648899599E+01 -0.80790164228E+02 -0.13004332526E+04  0.13029461357E+04  0.00000000000E+00 0. -1.
          1    1    1    2  502    0  0.48634168301E+02  0.10804492830E+03  0.48911267998E+03  0.50325957773E+03  0.00000000000E+00 0. -1.
         22    1    3    3    0    0 -0.59561672322E+02  0.13328903721E+02 -0.29002730000E+02  0.67575223504E+02  0.00000000000E+00 0. -1.
         22    1    3    3    0    0  0.14792393980E+02 -0.40583667789E+02  0.55795643029E+02  0.70562049233E+02  0.00000000000E+00 0. -1.
</event>
<event>
 7    1  0.6089676E-006  0.9713023E+02  0.7818608E-02  0.1456898E+00
          2   -1    0    0  502    0  0.00000000000E+00  0.00000000000E+00  0.29842294582E+03  0.29842294582E+03  0.00000000000E+00 0. -1.
          1   -1    0    0  501    0 -0.00000000000E+00 -0.00000000000E+00 -0.22538605084E+03  0.22538605084E+03  0.00000000000E+00 0. -1.
         25    2    1    2    0    0 -0.45653150975E+02  0.69327188824E+02  0.54116476873E+02  0.15951095405E+03  0.12499872835E+03 0.  0.
          2    1    1    2  501    0  0.37921902348E+02 -0.91668444353E+02 -0.15758842854E+03  0.18621301560E+03  0.00000000000E+00 0. -1.
          1    1    1    2  502    0  0.77312486263E+01  0.22341255529E+02  0.17650884664E+03  0.17808502701E+03  0.00000000000E+00 0. -1.
         22    1    3    3    0    0 -0.64586161118E+02 -0.11172970631E+02  0.11738601440E+02  0.66588304112E+02  0.00000000000E+00 0.  1.
         22    1    3    3    0    0  0.18933010143E+02  0.80500159455E+02  0.42377875433E+02  0.92922649938E+02  0.00000000000E+00 0.  1.
</event>
<event>
 7    1  0.6089676E-006  0.1258234E+03  0.7818608E-02  0.1336603E+00
          2   -1    0    0  502    0  0.00000000000E+00  0.00000000000E+00  0.18270613562E+04  0.18270613562E+04  0.00000000000E+00 0. -1.
          1   -1    0    0  501    0 -0.00000000000E+00 -0.00000000000E+00 -0.62799472999E+02  0.62799472999E+02  0.00000000000E+00 0. -1.
         25    2    1    2    0    0  0.12672303434E+02 -0.15132031555E+03  0.45439957784E+03  0.49513709464E+03  0.12499336371E+03 0.  0.
          2    1    1    2  501    0  0.30755867925E+02  0.36342220788E+02 -0.25301304564E+02  0.53915085424E+02  0.00000000000E+00 0. -1.
          1    1    1    2  502    0 -0.43428171359E+02  0.11497809476E+03  0.13351636100E+04  0.13408086492E+04  0.00000000000E+00 0. -1.
         22    1    3    3    0    0  0.27803390529E+02 -0.11595017555E+03  0.43689018751E+03  0.45286919488E+03  0.00000000000E+00 0.  1.
         22    1    3    3    0    0 -0.15131087095E+02 -0.35370139993E+02  0.17509390339E+02  0.42267899756E+02  0.00000000000E+00 0.  1.
</event>
<event>
 7    1  0.6089676E-006  0.7857713E+02  0.7818608E-02  0.1389147E+00
          2   -1    0    0  502    0  0.00000000000E+00  0.00000000000E+00  0.19724809782E+04  0.19724809782E+04  0.00000000000E+00 0. -1.
          1   -1    0    0  501    0 -0.00000000000E+00 -0.00000000000E+00 -0.39093975587E+03  0.39093975587E+03  0.00000000000E+00 0. -1.
         25    2    1    2    0    0 -0.25350507203E+02  0.26140648185E+02  0.70601044266E+02  0.14810561710E+03  0.12499913865E+03 0.  0.
          2    1    1    2  501    0  0.28844605922E+02 -0.75124707488E+02 -0.34726203437E+03  0.35646409844E+03  0.00000000000E+00 0. -1.
          1    1    1    2  502    0 -0.34940987189E+01  0.48984059303E+02  0.18582022124E+04  0.18588510185E+04  0.00000000000E+00 0. -1.
         22    1    3    3    0    0 -0.54344646741E+02 -0.22654770345E+01  0.88392954590E+02  0.10378722193E+03  0.00000000000E+00 0.  1.
         22    1    3    3    0    0  0.28994139538E+02  0.28406125219E+02 -0.17791910324E+02  0.44318395171E+02  0.00000000000E+00 0.  1.
</event>
<event>
 7    1  0.6089676E-006  0.8052218E+02  0.7818608E-02  0.1422483E+00
          2   -1    0    0  502    0  0.00000000000E+00  0.00000000000E+00  0.46888470794E+03  0.46888470794E+03  0.00000000000E+00 0. -1.
          1   -1    0    0  501    0 -0.00000000000E+00 -0.00000000000E+00 -0.14708250452E+04  0.14708250452E+04  0.00000000000E+00 0. -1.
         25    2    1    2    0    0  0.35907823705E+02 -0.39539921760E+02 -0.19045403122E+03  0.23398795611E+03  0.12499939352E+03 0.  0.
          2    1    1    2  501    0 -0.31444200398E+02  0.76154844254E+02 -0.12564918042E+04  0.12591901969E+04  0.00000000000E+00 0. -1.
          1    1    1    2  502    0 -0.44636233070E+01 -0.36614922495E+02  0.44500549816E+03  0.44653160009E+03  0.00000000000E+00 0. -1.
         22    1    3    3    0    0 -0.51186692187E+01 -0.75925335075E+02 -0.78527570775E+02  0.10935006471E+03  0.00000000000E+00 0. -1.
         22    1    3    3    0    0  0.41026492924E+02  0.36385413315E+02 -0.11192646044E+03  0.12463789139E+03  0.00000000000E+00 0. -1.
</event>
<event>
 7    1  0.8429628E-006  0.9787282E+02  0.7818608E-02  0.1334087E+00
          2   -1    0    0  502    0  0.00000000000E+00  0.00000000000E+00  0.23088442584E+04  0.23088442584E+04  0.00000000000E+00 0. -1.
          1   -1    0    0  501    0 -0.00000000000E+00 -0.00000000000E+00 -0.31251188026E+04  0.31251188026E+04  0.00000000000E+00 0. -1.
         25    2    1    2    0    0 -0.31809776406E+02 -0.96167893208E+02 -0.12627770419E+04  0.12729891010E+04  0.12504106612E+03 0.  0.
          2    1    1    2  501    0 -0.48243192594E+02  0.39836192889E+02 -0.18556684923E+04  0.18567228875E+04  0.00000000000E+00 0. -1.
          1    1    1    2  502    0  0.80052969001E+02  0.56331700319E+02  0.23021709899E+04  0.23042510725E+04  0.00000000000E+00 0. -1.
         22    1    3    3    0    0 -0.64850687157E+02 -0.30065914186E+02 -0.89566734140E+03  0.89851519591E+03  0.00000000000E+00 0. -1.
         22    1    3    3    0    0  0.33040910750E+02 -0.66101979022E+02 -0.36710970047E+03  0.37447390509E+03  0.00000000000E+00 0. -1.
</event>
<event>
 7    1  0.6089676E-006  0.1497854E+03  0.7818608E-02  0.1257643E+00
          2   -1    0    0  502    0  0.00000000000E+00  0.00000000000E+00  0.47835446499E+04  0.47835446499E+04  0.00000000000E+00 0. -1.
          1   -1    0    0  501    0 -0.00000000000E+00 -0.00000000000E+00 -0.68451350991E+02  0.68451350991E+02  0.00000000000E+00 0. -1.
         25    2    1    2    0    0  0.20571737542E+03 -0.89410509947E+02  0.13786613215E+04  0.14023714176E+04  0.12499870254E+03 0.  0.
          2    1    1    2  501    0 -0.13951982173E+03  0.39105018001E+02  0.37533869872E+02  0.14967890457E+03  0.00000000000E+00 0. -1.
          1    1    1    2  502    0 -0.66197553695E+02  0.50305491947E+02  0.32988981076E+04  0.32999456787E+04  0.00000000000E+00 0. -1.
         22    1    3    3    0    0  0.16072776052E+03 -0.28796009590E+02  0.11509285634E+04  0.11624539480E+04  0.00000000000E+00 0.  1.
         22    1    3    3    0    0  0.44989614904E+02 -0.60614500357E+02  0.22773275807E+03  0.23991746956E+03  0.00000000000E+00 0.  1.
</event>
<event>
 7    1  0.6089676E-006  0.1591494E+03  0.7818608E-02  0.1209274E+00
          2   -1    0    0  502    0  0.00000000000E+00  0.00000000000E+00  0.30439989861E+04  0.30439989861E+04  0.00000000000E+00 0. -1.
          1   -1    0    0  501    0 -0.00000000000E+00 -0.00000000000E+00 -0.13114723655E+04  0.13114723655E+04  0.00000000000E+00 0. -1.
         25    2    1    2    0    0  0.22819639178E+02  0.80733526754E+02 -0.31996033564E+03  0.35361048828E+03  0.12500849076E+03 0.  0.
          2    1    1    2  501    0 -0.24429072251E+02 -0.20931454193E+03 -0.96190947172E+03  0.98472289951E+03  0.00000000000E+00 0. -1.
          1    1    1    2  502    0  0.16094330734E+01  0.12858101518E+03  0.30143964279E+04  0.30171379638E+04  0.00000000000E+00 0. -1.
         22    1    3    3    0    0  0.21610924728E+02  0.10820483703E+03 -0.29995177714E+03  0.31960348470E+03  0.00000000000E+00 0.  1.
         22    1    3    3    0    0  0.12087144498E+01 -0.27471310278E+02 -0.20008558507E+02  0.34007003581E+02  0.00000000000E+00 0.  1.
</event>
<event>
 7    1  0.6089676E-006  0.1218723E+03  0.7818608E-02  0.1350073E+00
          2   -1    0    0  502    0  0.00000000000E+00  0.00000000000E+00  0.18216491536E+04  0.18216491536E+04  0.00000000000E+00 0. -1.
          1   -1    0    0  501    0 -0.00000000000E+00 -0.00000000000E+00 -0.16693068117E+03  0.16693068117E+03  0.00000000000E+00 0. -1.
         25    2    1    2    0    0  0.10784197471E+03  0.33303732672E+02  0.65976830642E+03  0.68092495123E+03  0.12500216371E+03 0.  0.
          2    1    1    2  501    0 -0.69868890606E+01  0.43204068897E+02 -0.14973051326E+03  0.15599562426E+03  0.00000000000E+00 0. -1.
          1    1    1    2  502    0 -0.10085508565E+03 -0.76507801570E+02  0.11446806793E+04  0.11516592593E+04  0.00000000000E+00 0. -1.
         22    1    3    3    0    0  0.53157790512E+02  0.80104099667E+02  0.39734989045E+03  0.40881457034E+03  0.00000000000E+00 0. -1.
         22    1    3    3    0    0  0.54684184195E+02 -0.46800366995E+02  0.26241841597E+03  0.27211038089E+03  0.00000000000E+00 0. -1.
</event>
<event>
 7    1  0.6089676E-006  0.8356870E+02  0.7818608E-02  0.1370623E+00
          2   -1    0    0  502    0  0.00000000000E+00  0.00000000000E+00  0.43973712516E+03  0.43973712516E+03  0.00000000000E+00 0. -1.
          1   -1    0    0  501    0 -0.00000000000E+00 -0.00000000000E+00 -0.13641454406E+04  0.13641454406E+04  0.00000000000E+00 0. -1.
         25    2    1    2    0    0 -0.19906916081E+02 -0.89948041202E+02 -0.84065241788E+03  0.85487308136E+03  0.12499824846E+03 0.  0.
          2    1    1    2  501    0 -0.32530879150E+02  0.78340071868E+02 -0.51120733731E+03  0.51819722759E+03  0.00000000000E+00 0. -1.
          1    1    1    2  502    0  0.52437795231E+02  0.11607969333E+02  0.42745143972E+03  0.43081225684E+03  0.00000000000E+00 0. -1.
         22    1    3    3    0    0  0.49735864017E+02 -0.43238528182E+02 -0.48564543316E+03  0.49009663663E+03  0.00000000000E+00 0. -1.
         22    1    3    3    0    0 -0.69642780098E+02 -0.46709513019E+02 -0.35500698472E+03  0.36477644472E+03  0.00000000000E+00 0. -1.
</event>
<event>
 7    1  0.6089676E-006  0.7843111E+02  0.7818608E-02  0.1443486E+00
          2   -1    0    0  502    0  0.00000000000E+00  0.00000000000E+00  0.15310778402E+03  0.15310778402E+03  0.00000000000E+00 0. -1.
          1   -1    0    0  501    0 -0.00000000000E+00 -0.00000000000E+00 -0.95232654816E+03  0.95232654816E+03  0.00000000000E+00 0. -1.
         25    2    1    2    0    0 -0.56939918208E+02  0.89972717400E+02 -0.44517301598E+03  0.47449099513E+03  0.12500178456E+03 0.  0.
          2    1    1    2  501    0  0.51745136218E+01 -0.31900430217E+02 -0.48098101437E+03  0.48206550304E+03  0.00000000000E+00 0. -1.
          1    1    1    2  502    0  0.51765404586E+02 -0.58072287182E+02  0.12693526621E+03  0.14887783401E+03  0.00000000000E+00 0. -1.
         22    1    3    3    0    0 -0.37262415320E+02 -0.25027218782E+02 -0.16498888311E+03  0.17098590827E+03  0.00000000000E+00 0. -1.
         22    1    3    3    0    0 -0.19677502888E+02  0.11499993618E+03 -0.28018413287E+03  0.30350508687E+03  0.00000000000E+00 0. -1.
</event>
<event>
 7    1  0.6089676E-006  0.1029225E+03  0.7818608E-02  0.1455129E+00
          2   -1    0    0  502    0  0.00000000000E+00  0.00000000000E+00  0.11783171878E+04  0.11783171878E+04  0.00000000000E+00 0. -1.
          1   -1    0    0  501    0 -0.00000000000E+00 -0.00000000000E+00 -0.48216511400E+03  0.48216511400E+03  0.00000000000E+00 0. -1.
         25    2    1    2    0    0  0.11189635931E+03 -0.31880276324E+02 -0.24804459602E+02  0.17255651153E+03  0.12499336466E+03 0.  0.
          2    1    1    2  501    0 -0.10110347135E+03  0.12023041359E+02 -0.37660817132E+03  0.39012841495E+03  0.00000000000E+00 0. -1.
          1    1    1    2  502    0 -0.10792887965E+02  0.19857234965E+02  0.10975647047E+04  0.10977973753E+04  0.00000000000E+00 0. -1.
         22    1    3    3    0    0 -0.20989562996E+02 -0.26097152931E+02  0.10211736625E+02  0.35012893493E+02  0.00000000000E+00 0. -1.
         22    1    3    3    0    0  0.13288592231E+03 -0.57831233937E+01 -0.35016196227E+02  0.13754361803E+03  0.00000000000E+00 0. -1.
</event>
<event>
 7    1  0.6089676E-006  0.6601371E+02  0.7818608E-02  0.1413303E+00
          2   -1    0    0  502    0  0.00000000000E+00  0.00000000000E+00  0.12973621707E+04  0.12973621707E+04  0.00000000000E+00 0. -1.
          1   -1    0    0  501    0 -0.00000000000E+00 -0.00000000000E+00 -0.45439651618E+02  0.45439651618E+02  0.00000000000E+00 0. -1.
         25    2    1    2    0    0  0.88086257344E+01 -0.18562961741E+02  0.16950342405E+03  0.21160893769E+03  0.12499902523E+03 0.  0.
          2    1    1    2  501    0  0.88913591911E+01 -0.47469176762E+02  0.17113281936E+01  0.48325021003E+02  0.00000000000E+00 0. -1.
          1    1    1    2  502    0 -0.17699984926E+02  0.66032138503E+02  0.10807077668E+04  0.10828678636E+04  0.00000000000E+00 0. -1.
         22    1    3    3    0    0 -0.19477468794E+00 -0.44645431612E+02  0.51345320999E+01  0.44940137081E+02  0.00000000000E+00 0. -1.
         22    1    3    3    0    0  0.90034004224E+01  0.26082469871E+02  0.16436889195E+03  0.16666880061E+03  0.00000000000E+00 0. -1.
</event>
<event>
 7    1  0.6089676E-006  0.3839067E+02  0.7818608E-02  0.1562329E+00
          2   -1    0    0  502    0  0.00000000000E+00  0.00000000000E+00  0.60539186209E+02  0.60539186209E+02  0.00000000000E+00 0. -1.
          1   -1    0    0  501    0 -0.00000000000E+00 -0.00000000000E+00 -0.88249721394E+03  0.88249721394E+03  0.00000000000E+00 0. -1.
         25    2    1    2    0    0  0.22789799461E+02  0.17267320634E+02 -0.72599914300E+03  0.73723595008E+03  0.12499822057E+03 0.  0.
          2    1    1    2  501    0 -0.14742882266E+02 -0.45372221443E+02 -0.14281489339E+03  0.15057252349E+03  0.00000000000E+00 0. -1.
          1    1    1    2  502    0 -0.80469171957E+01  0.28104900809E+02  0.46856008659E+02  0.55227926570E+02  0.00000000000E+00 0. -1.
         22    1    3    3    0    0  0.67515995363E+02  0.22464810738E+01 -0.25210208041E+03  0.26099600620E+03  0.00000000000E+00 0.  1.
         22    1    3    3    0    0 -0.44726195901E+02  0.15020839561E+02 -0.47389706258E+03  0.47623994388E+03  0.00000000000E+00 0.  1.
</event>
<event>
 7    1  0.6089676E-006  0.2141972E+03  0.7818608E-02  0.1275142E+00
          2   -1    0    0  502    0  0.00000000000E+00  0.00000000000E+00  0.37146506756E+04  0.37146506756E+04  0.00000000000E+00 0. -1.
          1   -1    0    0  501    0 -0.00000000000E+00 -0.00000000000E+00 -0.23456532057E+02  0.23456532057E+02  0.00000000000E+00 0. -1.
         25    2    1    2    0    0  0.17064017399E+03  0.10190488219E+03  0.13614729045E+04  0.13815703619E+04  0.12500208473E+03 0.  0.
          2    1    1    2  501    0  0.40748928465E+02 -0.27286704994E+02  0.68580288680E+02  0.84310707718E+02  0.00000000000E+00 0. -1.
          1    1    1    2  502    0 -0.21138910245E+03 -0.74618177191E+02  0.22611409504E+04  0.22722261381E+04  0.00000000000E+00 0. -1.
         22    1    3    3    0    0  0.14549402649E+03  0.11878595961E+03  0.12946542519E+04  0.13082080293E+04  0.00000000000E+00 0.  1.
         22    1    3    3    0    0  0.25146147493E+02 -0.16881077429E+02  0.66818652563E+02  0.73362332564E+02  0.00000000000E+00 0.  1.
</event>
<event>
 7    1  0.6089676E-006  0.7734186E+02  0.7818608E-02  0.1340818E+00
          2   -1    0    0  502    0  0.00000000000E+00  0.00000000000E+00  0.37926387782E+04  0.37926387782E+04  0.00000000000E+00 0. -1.
          1   -1    0    0  501    0 -0.00000000000E+00 -0.00000000000E+00 -0.24938081395E+03  0.24938081395E+03  0.00000000000E+00 0. -1.
         25    2    1    2    0    0  0.27426380721E+01 -0.22286872678E+01  0.65990885198E+02  0.14139039421E+03  0.12499583007E+03 0.  0.
          2    1    1    2  501    0 -0.79804960662E+02 -0.43411262407E+01 -0.20371635067E+03  0.21883333533E+03  0.00000000000E+00 0. -1.
          1    1    1    2  502    0  0.77062322590E+02  0.65698135085E+01  0.36809834297E+04  0.36817958626E+04  0.00000000000E+00 0. -1.
         22    1    3    3    0    0  0.39282089264E+02  0.48216701716E+02  0.39679956910E+02  0.73772839458E+02  0.00000000000E+00 0.  1.
         22    1    3    3    0    0 -0.36539451192E+02 -0.50445388984E+02  0.26310928288E+02  0.67617554751E+02  0.00000000000E+00 0.  1.
</event>
<event>
 7    1  0.6089676E-006  0.9175769E+02  0.7818608E-02  0.1396098E+00
          2   -1    0    0  502    0  0.00000000000E+00  0.00000000000E+00  0.13431414986E+03  0.13431414986E+03  0.00000000000E+00 0. -1.
          1   -1    0    0  501    0 -0.00000000000E+00 -0.00000000000E+00 -0.64402263653E+03  0.64402263653E+03  0.00000000000E+00 0. -1.
         25    2    1    2    0    0  0.93906585080E+02  0.64430086516E+02 -0.83761612197E+02  0.18870939974E+03  0.12500218840E+03 0.  0.
          2    1    1    2  501    0 -0.54840256698E+02 -0.71924224782E+02 -0.49863235683E+03  0.50676895638E+03  0.00000000000E+00 0. -1.
          1    1    1    2  502    0 -0.39066328382E+02  0.74941382665E+01  0.72685482357E+02  0.82858430272E+02  0.00000000000E+00 0. -1.
         22    1    3    3    0    0  0.27064024420E+02  0.85735706628E+02 -0.76738733144E+02  0.11820281711E+03  0.00000000000E+00 0. -1.
         22    1    3    3    0    0  0.66842560661E+02 -0.21305620112E+02 -0.70228790528E+01  0.70506582631E+02  0.00000000000E+00 0. -1.
</event>
<event>
 7    1  0.6089676E-006  0.1350235E+03  0.7818608E-02  0.1368316E+00
          2   -1    0    0  502    0  0.00000000000E+00  0.00000000000E+00  0.20895145236E+04  0.20895145236E+04  0.00000000000E+00 0. -1.
          1   -1    0    0  501    0 -0.00000000000E+00 -0.00000000000E+00 -0.33799289600E+03  0.33799289600E+03  0.00000000000E+00 0. -1.
         25    2    1    2    0    0  0.25279714977E+02  0.13131485345E+03  0.20300321015E+03  0.27334513575E+03  0.12499842072E+03 0.  0.
          2    1    1    2  501    0 -0.57947916178E+02 -0.12232793463E+03 -0.28753170398E+03  0.31779956792E+03  0.00000000000E+00 0. -1.
          1    1    1    2  502    0  0.32668201200E+02 -0.89869188290E+01  0.18360501214E+04  0.18363627159E+04  0.00000000000E+00 0. -1.
         22    1    3    3    0    0 -0.37268083931E+01  0.11610395315E+03  0.20987592582E+03  0.23987897214E+03  0.00000000000E+00 0.  1.
         22    1    3    3    0    0  0.29006523371E+02  0.15210900308E+02 -0.68727156707E+01  0.33466163612E+02  0.00000000000E+00 0.  1.
</event>
<event>
 7    1  0.6089676E-006  0.4815722E+02  0.7818608E-02  0.1543839E+00
          2   -1    0    0  502    0  0.00000000000E+00  0.00000000000E+00  0.12826262006E+04  0.12826262006E+04  0.00000000000E+00 0. -1.
          1   -1    0    0  501    0 -0.00000000000E+00 -0.00000000000E+00 -0.43260740205E+03  0.43260740205E+03  0.00000000000E+00 0. -1.
         25    2    1    2    0    0 -0.56027516334E+02 -0.48474935156E+01  0.40339279546E+02  0.14287387075E+03  0.12499241852E+03 0.  0.
          2    1    1    2  501    0  0.15511837053E+02 -0.21153686663E+02 -0.38040177181E+03  0.38130513181E+03  0.00000000000E+00 0. -1.
          1    1    1    2  502    0  0.40515679281E+02  0.26001180179E+02  0.11900812908E+04  0.11910546001E+04  0.00000000000E+00 0. -1.
         22    1    3    3    0    0 -0.55098503001E+02  0.51228825637E+01 -0.35912012214E+02  0.65967882943E+02  0.00000000000E+00 0. -1.
         22    1    3    3    0    0 -0.92901333276E+00 -0.99703760793E+01  0.76251291760E+02  0.76905987803E+02  0.00000000000E+00 0. -1.
</event>
<event>
 7    1  0.6089676E-006  0.1094201E+03  0.7818608E-02  0.1351014E+00
          2   -1    0    0  502    0  0.00000000000E+00  0.00000000000E+00  0.25893866367E+04  0.25893866367E+04  0.00000000000E+00 0. -1.
          1   -1    0    0  501    0 -0.00000000000E+00 -0.00000000000E+00 -0.50273630080E+03  0.50273630080E+03  0.00000000000E+00 0. -1.
         25    2    1    2    0    0 -0.14666102267E+03  0.23634522545E+02  0.54442328200E+03  0.57800626801E+03  0.12500595841E+03 0.  0.
          2    1    1    2  501    0  0.10128773749E+03 -0.40356994195E+02 -0.47953619210E+03  0.49177520503E+03  0.00000000000E+00 0. -1.
          1    1    1    2  502    0  0.45373285179E+02  0.16722471650E+02  0.20217632460E+04  0.20223414644E+04  0.00000000000E+00 0. -1.
         22    1    3    3    0    0 -0.41465093099E+02  0.25657797780E+02  0.37786911083E+03  0.38100228536E+03  0.00000000000E+00 0.  1.
         22    1    3    3    0    0 -0.10519592957E+03 -0.20232752348E+01  0.16655417117E+03  0.19700398264E+03  0.00000000000E+00 0.  1.
</event>
<event>
 7    1  0.6089676E-006  0.1122607E+03  0.7818608E-02  0.1409308E+00
          2   -1    0    0  502    0  0.00000000000E+00  0.00000000000E+00  0.33166911736E+04  0.33166911736E+04  0.00000000000E+00 0. -1.
          1   -1    0    0  501    0 -0.00000000000E+00 -0.00000000000E+00 -0.35566746234E+03  0.35566746234E+03  0.00000000000E+00 0. -1.
         25    2    1    2    0    0 -0.22120516242E+02 -0.13923098071E+03 -0.11072088306E+02  0.18873523745E+03  0.12499526186E+03 0.  0.
          2    1    1    2  501    0  0.86909443169E+00  0.29283776482E+02 -0.25395016187E+03  0.25563446482E+03  0.00000000000E+00 0. -1.
          1    1    1    2  502    0  0.21251421810E+02  0.10994720422E+03  0.32260459614E+04  0.32279889337E+04  0.00000000000E+00 0. -1.
         22    1    3    3    0    0  0.43497577720E+02 -0.86002672126E+02  0.20506581884E+02  0.98534353303E+02  0.00000000000E+00 0. -1.
         22    1    3    3    0    0 -0.65618093962E+02 -0.53228308580E+02 -0.31578670190E+02  0.90200884145E+02  0.00000000000E+00 0. -1.
</event>
<event>
 7    1  0.6089676E-006  0.9007111E+02  0.7818608E-02  0.1335577E+00
          2   -1    0    0  502    0  0.00000000000E+00  0.00000000000E+00  0.10029241136E+04  0.10029241136E+04  0.00000000000E+00 0. -1.
          1   -1    0    0  501    0 -0.00000000000E+00 -0.00000000000E+00 -0.17950360218E+03  0.17950360218E+03  0.00000000000E+00 0. -1.
         25    2    1    2    0    0  0.14372056565E+03 -0.54987746461E+02  0.25909766020E+03  0.32624539123E+03  0.12500081812E+03 0.  0.
          2    1    1    2  501    0 -0.83331492839E+02  0.25726642494E+02 -0.13113870214E+03  0.15749081571E+03  0.00000000000E+00 0. -1.
          1    1    1    2  502    0 -0.60389072813E+02  0.29261103966E+02  0.69546155339E+03  0.69869150887E+03  0.00000000000E+00 0. -1.
         22    1    3    3    0    0  0.12006834477E+03 -0.68944728686E+02  0.11626480377E+03  0.18079625999E+03  0.00000000000E+00 0. -1.
         22    1    3    3    0    0  0.23652220878E+02  0.13956982226E+02  0.14283285642E+03  0.14544913124E+03  0.00000000000E+00 0. -1.
</event>
<event>
 7    1  0.6089676E-006  0.7505912E+02  0.7818608E-02  0.1470495E+00
          2   -1    0    0  502    0  0.00000000000E+00  0.00000000000E+00  0.66917336359E+03  0.66917336359E+03  0.00000000000E+00 0. -1.
          1   -1    0    0  501    0 -0.00000000000E+00 -0.00000000000E+00 -0.32450412221E+03  0.32450412221E+03  0.00000000000E+00 0. -1.
         25    2    1    2    0    0 -0.17821241242E+02 -0.52719503370E+02  0.34518409538E+02  0.14111703836E+03  0.12500222095E+03 0.  0.
          2    1    1    2  501    0 -0.26088248056E+02 -0.93994305254E+01 -0.26799784915E+03  0.26942864200E+03  0.00000000000E+00 0. -1.
          1    1    1    2  502    0  0.43909489298E+02  0.62118933895E+02  0.57814868099E+03  0.58313180545E+03  0.00000000000E+00 0. -1.
         22    1    3    3    0    0 -0.66138267582E+02 -0.50042437260E+02  0.22754945259E+01  0.82968029030E+02  0.00000000000E+00 0.  1.
         22    1    3    3    0    0  0.48317026340E+02 -0.26770661092E+01  0.32242915012E+02  0.58149009327E+02  0.00000000000E+00 0.  1.
</event>
<event>
 7    1  0.6089676E-006  0.1378859E+03  0.7818608E-02  0.1360267E+00
          2   -1    0    0  502    0  0.00000000000E+00  0.00000000000E+00  0.69144741663E+03  0.69144741663E+03  0.00000000000E+00 0. -1.
          1   -1    0    0  501    0 -0.00000000000E+00 -0.00000000000E+00 -0.10482302154E+04  0.10482302154E+04  0.00000000000E+00 0. -1.
         25    2    1    2    0    0 -0.10402146355E+03  0.22309803481E+02 -0.14426470716E+03  0.21853353632E+03  0.12500563409E+03 0.  0.
          2    1    1    2  501    0 -0.28005987056E+02  0.21790835730E+02 -0.85905743376E+03  0.85979000363E+03  0.00000000000E+00 0. -1.
          1    1    1    2  502    0  0.13202745060E+03 -0.44100639210E+02  0.64653934218E+03  0.66135409205E+03  0.00000000000E+00 0. -1.
         22    1    3    3    0    0  0.25298956457E+02 -0.41014356004E+01 -0.50491852881E+02  0.56624077733E+02  0.00000000000E+00 0.  1.
         22    1    3    3    0    0 -0.12932042000E+03  0.26411239081E+02 -0.93772854283E+02  0.16190945859E+03  0.00000000000E+00 0.  1.
</event>
<event>
 7    1  0.6089676E-006  0.1153083E+03  0.7818608E-02  0.1339226E+00
          2   -1    0    0  502    0  0.00000000000E+00  0.00000000000E+00  0.67129594155E+03  0.67129594155E+03  0.00000000000E+00 0. -1.
          1   -1    0    0  501    0 -0.00000000000E+00 -0.00000000000E+00 -0.16103832060E+03  0.16103832060E+03  0.00000000000E+00 0. -1.
         25    2    1    2    0    0  0.62909151781E+02  0.14318701712E+03  0.18576904387E+03  0.27312101870E+03  0.12499947977E+03 0.  0.
          2    1    1    2  501    0 -0.53925175345E+01 -0.50493159265E+02 -0.10470709265E+03  0.11637101713E+03  0.00000000000E+00 0. -1.
          1    1    1    2  502    0 -0.57516634246E+02 -0.92693857859E+02  0.42919566972E+03  0.44284222632E+03  0.00000000000E+00 0. -1.
         22    1    3    3    0    0  0.63969084884E+02  0.24591831963E+02  0.11818016259E+03  0.13661388235E+03  0.00000000000E+00 0. -1.
         22    1    3    3    0    0 -0.10599331028E+01  0.11859518516E+03  0.67588881278E+02  0.13650713635E+03  0.00000000000E+00 0. -1.
</event>
<event>
 7    1  0.6089676E-006  0.6123099E+02  0.7818608E-02  0.1404753E+00
          2   -1    0    0  502    0  0.00000000000E+00  0.00000000000E+00  0.10507994216E+04  0.10507994216E+04  0.00000000000E+00 0. -1.
          1   -1    0    0  501    0 -0.00000000000E+00 -0.00000000000E+00 -0.20550479451E+04  0.20550479451E+04  0.00000000000E+00 0. -1.
         25    2    1    2    0    0 -0.66888030915E+02  0.42901490247E+02  0.46768422508E+03  0.49057898006E+03  0.12499861898E+03 0.  0.
          2    1    1    2  501    0  0.59980464977E+02  0.12332320465E+02 -0.20417854352E+04  0.20427034796E+04  0.00000000000E+00 0. -1.
          1    1    1    2  502    0  0.69075659375E+01 -0.55233810712E+02  0.56985268663E+03  0.57256490704E+03  0.00000000000E+00 0. -1.
         22    1    3    3    0    0 -0.32848515331E+02  0.82586504535E+02  0.36088603957E+03  0.37166959688E+03  0.00000000000E+00 0. -1.
         22    1    3    3    0    0 -0.34039515583E+02 -0.39685014287E+02  0.10679818551E+03  0.11890938318E+03  0.00000000000E+00 0. -1.
</event>
<event>
 7    1  0.6089676E-006  0.5338369E+02  0.7818608E-02  0.1465428E+00
          2   -1    0    0  502    0  0.00000000000E+00  0.00000000000E+00  0.80621786568E+02  0.80621786568E+02  0.00000000000E+00 0. -1.
          1   -1    0    0  501    0 -0.00000000000E+00 -0.00000000000E+00 -0.21523899548E+04  0.21523899548E+04  0.00000000000E+00 0. -1.
         25    2    1    2    0    0  0.23617578121E+02 -0.34078726965E+01 -0.12406266081E+04  0.12471361306E+04  0.12499897602E+03 0.  0.
          2    1    1    2  501    0 -0.60384332422E+02  0.20234379052E+02 -0.90202512181E+03  0.90427043414E+03  0.00000000000E+00 0. -1.
          1    1    1    2  502    0  0.36766754301E+02 -0.16826506356E+02  0.70883561652E+02  0.81605176616E+02  0.00000000000E+00 0. -1.
         22    1    3    3    0    0 -0.20992721464E+02  0.19119368122E+02 -0.10397010847E+04  0.10400887414E+04  0.00000000000E+00 0.  1.
         22    1    3    3    0    0  0.44610299584E+02 -0.22527240818E+02 -0.20092552344E+03  0.20704738920E+03  0.00000000000E+00 0.  1.
</event>
<event>
 7    1  0.6089676E-006  0.4477521E+02  0.7818608E-02  0.1538446E+00
          2   -1    0    0  502    0  0.00000000000E+00  0.00000000000E+00  0.20834432973E+04  0.20834432973E+04  0.00000000000E+00 0. -1.
          1   -1    0    0  501    0 -0.00000000000E+00 -0.00000000000E+00 -0.11380534926E+02  0.11380534926E+02  0.00000000000E+00 0. -1.
         25    2    1    2    0    0  0.41029323766E+02 -0.54158182518E+02  0.18076491225E+04  0.18132394924E+04  0.12500237040E+03 0.  0.
          2    1    1    2  501    0 -0.14671201345E+02  0.41547878113E+02  0.56611368042E+02  0.71737837409E+02  0.00000000000E+00 0. -1.
          1    1    1    2  502    0 -0.26358122422E+02  0.12610304405E+02  0.20780227179E+03  0.20984650236E+03  0.00000000000E+00 0. -1.
         22    1    3    3    0    0 -0.32286459742E+02  0.88967178593E+01  0.86393960594E+03  0.86458846268E+03  0.00000000000E+00 0.  1.
         22    1    3    3    0    0  0.73315783508E+02 -0.63054900377E+02  0.94370951658E+03  0.94865102976E+03  0.00000000000E+00 0.  1.
</event>
<event>
 7    1  0.6089676E-006  0.1219538E+03  0.7818608E-02  0.1335125E+00
          2   -1    0    0  502    0  0.00000000000E+00  0.00000000000E+00  0.28331935895E+03  0.28331935895E+03  0.00000000000E+00 0. -1.
          1   -1    0    0  501    0 -0.00000000000E+00 -0.00000000000E+00 -0.26065631762E+04  0.26065631762E+04  0.00000000000E+00 0. -1.
         25    2    1    2    0    0  0.60409729225E+02  0.11277825151E+03 -0.30122254437E+02  0.18138449544E+03  0.12499886229E+03 0.  0.
          2    1    1    2  501    0  0.34657216454E+02 -0.35702227251E+02 -0.24825088826E+04  0.24830074755E+04  0.00000000000E+00 0. -1.
          1    1    1    2  502    0 -0.95066945679E+02 -0.77076024257E+02  0.18938731971E+03  0.22549056420E+03  0.00000000000E+00 0. -1.
         22    1    3    3    0    0  0.88104449390E+02  0.92696091744E+02  0.10452356777E+02  0.12831294241E+03  0.00000000000E+00 0.  1.
         22    1    3    3    0    0 -0.27694720165E+02  0.20082159763E+02 -0.40574611213E+02  0.53071553029E+02  0.00000000000E+00 0.  1.
</event>
<event>
 7    1  0.6089676E-006  0.6966763E+02  0.7818608E-02  0.1400209E+00
          2   -1    0    0  502    0  0.00000000000E+00  0.00000000000E+00  0.23430856196E+04  0.23430856196E+04  0.00000000000E+00 0. -1.
          1   -1    0    0  501    0 -0.00000000000E+00 -0.00000000000E+00 -0.12674556394E+02  0.12674556394E+02  0.00000000000E+00 0. -1.
         25    2    1    2    0    0 -0.11059189130E+02 -0.27927750880E+02  0.91186954723E+03  0.92088797854E+03  0.12500533155E+03 0.  0.
          2    1    1    2  501    0 -0.88152995599E+01 -0.49936828338E+02  0.85469810967E+02  0.99380505722E+02  0.00000000000E+00 0. -1.
          1    1    1    2  502    0  0.19874488689E+02  0.77864579218E+02  0.13330717050E+04  0.13354916918E+04  0.00000000000E+00 0. -1.
         22    1    3    3    0    0  0.13015196666E+02 -0.62791637945E+02  0.26562094264E+03  0.27325202709E+03  0.00000000000E+00 0.  1.
         22    1    3    3    0    0 -0.24074385796E+02  0.34863887065E+02  0.64624860460E+03  0.64763595145E+03  0.00000000000E+00 0.  1.
</event>
<event>
 7    1  0.6089676E-006  0.1783874E+03  0.7818608E-02  0.1218803E+00
          2   -1    0    0  502    0  0.00000000000E+00  0.00000000000E+00  0.14016885844E+04  0.14016885844E+04  0.00000000000E+00 0. -1.
          1   -1    0    0  501    0 -0.00000000000E+00 -0.00000000000E+00 -0.14495527993E+04  0.14495527993E+04  0.00000000000E+00 0. -1.
         25    2    1    2    0    0  0.30314831459E+02  0.24564304886E+03  0.53505089186E+02  0.28239548642E+03  0.12499967888E+03 0.  0.
          2    1    1    2  501    0  0.51074275450E+02 -0.90247291663E+02 -0.13268388325E+04  0.13308848345E+04  0.00000000000E+00 0. -1.
          1    1    1    2  502    0 -0.81389106908E+02 -0.15539575720E+03  0.12254695284E+04  0.12379610628E+04  0.00000000000E+00 0. -1.
         22    1    3    3    0    0  0.40324533524E+00  0.88770480607E+02 -0.39966307966E+02  0.97353308143E+02  0.00000000000E+00 0.  1.
         22    1    3    3    0    0  0.29911586124E+02  0.15687256826E+03  0.93471397152E+02  0.18504217828E+03  0.00000000000E+00 0.  1.
</event>
<event>
 7    1  0.6089676E-006  0.8469874E+02  0.7818608E-02  0.1414817E+00
          2   -1    0    0  502    0  0.00000000000E+00  0.00000000000E+00  0.13739599673E+04  0.13739599673E+04  0.00000000000E+00 0. -1.
          1   -1    0    0  501    0 -0.00000000000E+00 -0.00000000000E+00 -0.60473254855E+02  0.60473254855E+02  0.00000000000E+00 0. -1.
         25    2    1    2    0    0 -0.38893940367E+02  0.29502368279E+02  0.96837095939E+03  0.97762496742E+03  0.12500053439E+03 0.  0.
          2    1    1    2  501    0  0.70355413225E+02 -0.49353918767E+02 -0.21274589707E+02  0.88534183426E+02  0.00000000000E+00 0. -1.
          1    1    1    2  502    0 -0.31461472858E+02  0.19851550489E+02  0.36639034279E+03  0.36827407134E+03  0.00000000000E+00 0. -1.
         22    1    3    3    0    0  0.17612885001E+02  0.40404139917E+02  0.76499070931E+03  0.76625941663E+03  0.00000000000E+00 0. -1.
         22    1    3    3    0    0 -0.56506825368E+02 -0.10901771638E+02  0.20338025008E+03  0.21136555079E+03  0.00000000000E+00 0. -1.
</event>
<event>
 7    1  0.6089676E-006  0.1182287E+03  0.7818608E-02  0.1366201E+00
          2   -1    0    0  502    0  0.00000000000E+00  0.00000000000E+00  0.34047917746E+03  0.34047917746E+03  0.00000000000E+00 0. -1.
          1   -1    0    0  501    0 -0.00000000000E+00 -0.00000000000E+00 -0.27085573283E+04  0.27085573283E+04  0.00000000000E+00 0. -1.
         25    2    1    2    0    0 -0.56982988921E+02  0.61672986696E+02 -0.48076311342E+03  0.50379467267E+03  0.12500113071E+03 0.  0.
          2    1    1    2  501    0  0.84568211839E+02 -0.89778829560E+02 -0.22133767784E+04  0.22168104980E+04  0.00000000000E+00 0. -1.
          1    1    1    2  502    0 -0.27585222918E+02  0.28105842865E+02  0.32606174101E+03  0.32843133510E+03  0.00000000000E+00 0. -1.
         22    1    3    3    0    0 -0.77907272470E+02  0.69821825166E+02 -0.23778700655E+03  0.25978316123E+03  0.00000000000E+00 0.  1.
         22    1    3    3    0    0  0.20924283549E+02 -0.81488384701E+01 -0.24297610686E+03  0.24401151144E+03  0.00000000000E+00 0.  1.
</event>
<event>
 7    1  0.6089676E-006  0.1366441E+03  0.7818608E-02  0.1302837E+00
          2   -1    0    0  502    0  0.00000000000E+00  0.00000000000E+00  0.15205120581E+03  0.15205120581E+03  0.00000000000E+00 0. -1.
          1   -1    0    0  501    0 -0.00000000000E+00 -0.00000000000E+00 -0.15721850145E+04  0.15721850145E+04  0.00000000000E+00 0. -1.
         25    2    1    2    0    0  0.57202895646E+01 -0.83883150044E+02 -0.71493898950E+03  0.73063760989E+03  0.12499781482E+03 0.  0.
          2    1    1    2  501    0  0.31484586267E+02 -0.50235321056E+02 -0.81448164802E+03  0.81663652968E+03  0.00000000000E+00 0. -1.
          1    1    1    2  502    0 -0.37204875832E+02  0.13411847110E+03  0.10928682881E+03  0.17696208076E+03  0.00000000000E+00 0. -1.
         22    1    3    3    0    0  0.64056410247E+02 -0.43560435833E+02 -0.30974108253E+03  0.31928086926E+03  0.00000000000E+00 0.  1.
         22    1    3    3    0    0 -0.58336120682E+02 -0.40322714211E+02 -0.40519790697E+03  0.41135674064E+03  0.00000000000E+00 0.  1.
</event>
<event>
 7    1  0.6089676E-006  0.7913841E+02  0.7818608E-02  0.1465423E+00
          2   -1    0    0  502    0  0.00000000000E+00  0.00000000000E+00  0.16124149145E+04  0.16124149145E+04  0.00000000000E+00 0. -1.
          1   -1    0    0  501    0 -0.00000000000E+00 -0.00000000000E+00 -0.18769457834E+03  0.18769457834E+03  0.00000000000E+00 0. -1.
         25    2    1    2    0    0 -0.60550257378E+02 -0.37946515252E+02  0.52772637034E+03  0.54701614777E+03  0.12500108913E+03 0.  0.
          2    1    1    2  501    0  0.48790491556E+02  0.62557697217E+02 -0.16902918093E+03  0.18672129378E+03  0.00000000000E+00 0. -1.
          1    1    1    2  502    0  0.11759765822E+02 -0.24611181964E+02  0.10660231468E+04  0.10663720513E+04  0.00000000000E+00 0. -1.
         22    1    3    3    0    0 -0.33277630549E+01  0.38066918423E+02  0.26195760062E+03  0.26472995450E+03  0.00000000000E+00 0. -1.
         22    1    3    3    0    0 -0.57222494323E+02 -0.76013433676E+02  0.26576876972E+03  0.28228619328E+03  0.00000000000E+00 0. -1.
</event>
<event>
 7    1  0.6089676E-006  0.6177018E+02  0.7818608E-02  0.1442496E+00
          2   -1    0    0  502    0  0.00000000000E+00  0.00000000000E+00  0.24962412644E+03  0.24962412644E+03  0.00000000000E+00 0. -1.
          1   -1    0    0  501    0 -0.00000000000E+00 -0.00000000000E+00 -0.95196427269E+03  0.95196427269E+03  0.00000000000E+00 0. -1.
         25    2    1    2    0    0 -0.13634263630E+02  0.18801924033E+02  0.76165901469E+02  0.14821272063E+03  0.12500544196E+03 0.  0.
          2    1    1    2  501    0  0.15913033776E+02 -0.60076475777E+02 -0.91175056734E+03  0.91386624001E+03  0.00000000000E+00 0. -1.
          1    1    1    2  502    0 -0.22787701454E+01  0.41274551744E+02  0.13324451963E+03  0.13950943849E+03  0.00000000000E+00 0. -1.
         22    1    3    3    0    0 -0.39269352297E+02  0.56593180133E+02  0.12729499947E+02  0.70049341440E+02  0.00000000000E+00 0.  1.
         22    1    3    3    0    0  0.25635088667E+02 -0.37791256099E+02  0.63436401522E+02  0.78163379191E+02  0.00000000000E+00 0.  1.
</event>
<event>
 7    1  0.7580048E-006  0.4595225E+02  0.7818608E-02  0.1472388E+00
          2   -1    0    0  502    0  0.00000000000E+00  0.00000000000E+00  0.93028187047E+03  0.93028187047E+03  0.00000000000E+00 0. -1.
          1   -1    0    0  501    0 -0.00000000000E+00 -0.00000000000E+00 -0.12821073591E+04  0.12821073591E+04  0.00000000000E+00 0. -1.
         25    2    1    2    0    0  0.72058752531E+02 -0.16085109428E+02 -0.26898466807E+03  0.30566269161E+03  0.12500293926E+03 0.  0.
          2    1    1    2  501    0 -0.42170298213E+02 -0.17133670411E+02 -0.99371498456E+03  0.99475693878E+03  0.00000000000E+00 0. -1.
          1    1    1    2  502    0 -0.29888454318E+02  0.33218779839E+02  0.91087416404E+03  0.91196959914E+03  0.00000000000E+00 0. -1.
         22    1    3    3    0    0  0.80580196389E+02 -0.59978763167E+02 -0.18418444204E+03  0.20979639837E+03  0.00000000000E+00 0.  1.
         22    1    3    3    0    0 -0.85214438575E+01  0.43893653739E+02 -0.84800226030E+02  0.95866293235E+02  0.00000000000E+00 0.  1.
</event>
<event>
 7    1  0.6089676E-006  0.6133130E+02  0.7818608E-02  0.1482121E+00
          2   -1    0    0  502    0  0.00000000000E+00  0.00000000000E+00  0.18114448985E+04  0.18114448985E+04  0.00000000000E+00 0. -1.
          1   -1    0    0  501    0 -0.00000000000E+00 -0.00000000000E+00 -0.64138338111E+02  0.64138338111E+02  0.00000000000E+00 0. -1.
         25    2    1    2    0    0 -0.25711127599E+02 -0.33694843672E+02  0.56657881227E+03  0.58174975668E+03  0.12499929725E+03 0.  0.
          2    1    1    2  501    0  0.12360635777E+02 -0.28699037134E+02 -0.51346979557E+02  0.60107673045E+02  0.00000000000E+00 0. -1.
          1    1    1    2  502    0  0.13350491822E+02  0.62393880806E+02  0.12320747277E+04  0.12337258069E+04  0.00000000000E+00 0. -1.
         22    1    3    3    0    0  0.89876528721E+01 -0.75916580482E+02  0.29645400695E+03  0.30615205917E+03  0.00000000000E+00 0.  1.
         22    1    3    3    0    0 -0.34698780471E+02  0.42221736809E+02  0.27012480532E+03  0.27559769752E+03  0.00000000000E+00 0.  1.
</event>
<event>
 7    1  0.6089676E-006  0.1263311E+03  0.7818608E-02  0.1326315E+00
          2   -1    0    0  502    0  0.00000000000E+00  0.00000000000E+00  0.35993564370E+03  0.35993564370E+03  0.00000000000E+00 0. -1.
          1   -1    0    0  501    0 -0.00000000000E+00 -0.00000000000E+00 -0.25243871466E+04  0.25243871466E+04  0.00000000000E+00 0. -1.
         25    2    1    2    0    0  0.91989916363E+02  0.70232869953E+01 -0.27166437170E+02  0.15771491618E+03  0.12499803280E+03 0.  0.
          2    1    1    2  501    0  0.37160437805E+02 -0.36230411829E+02 -0.24167783567E+04  0.24173355510E+04  0.00000000000E+00 0. -1.
          1    1    1    2  502    0 -0.12915035417E+03  0.29207124833E+02  0.27949329097E+03  0.30927232308E+03  0.00000000000E+00 0. -1.
         22    1    3    3    0    0  0.11983287485E+03  0.24693031204E+02 -0.22673873098E+02  0.12443379045E+03  0.00000000000E+00 0. -1.
         22    1    3    3    0    0 -0.27842958488E+02 -0.17669744209E+02 -0.44925640728E+01  0.33281125728E+02  0.00000000000E+00 0. -1.
</event>
<event>
 7    1  0.6089676E-006  0.8047422E+02  0.7818608E-02  0.1362318E+00
          2   -1    0    0  502    0  0.00000000000E+00  0.00000000000E+00  0.13223694309E+04  0.13223694309E+04  0.00000000000E+00 0. -1.
          1   -1    0    0  501    0 -0.00000000000E+00 -0.00000000000E+00 -0.22128315058E+03  0.22128315058E+03  0.00000000000E+00 0. -1.
         25    2    1    2    0    0 -0.32671585503E+02  0.54947842593E+02  0.15469424937E+03  0.20890531773E+03  0.12499769231E+03 0.  0.
          2    1    1    2  501    0 -0.47587073187E+02 -0.36153946829E+02 -0.18804812391E+03  0.19731633057E+03  0.00000000000E+00 0. -1.
          1    1    1    2  502    0  0.80258658690E+02 -0.18793895763E+02  0.11344401549E+04  0.11374309332E+04  0.00000000000E+00 0. -1.
         22    1    3    3    0    0 -0.78068325029E+01  0.93829270109E+02  0.10024795117E+03  0.13753010680E+03  0.00000000000E+00 0. -1.
         22    1    3    3    0    0 -0.24864753000E+02 -0.38881427516E+02  0.54446298197E+02  0.71375210927E+02  0.00000000000E+00 0. -1.
</event>
<event>
 7    1  0.6089676E-006  0.9297173E+02  0.7818608E-02  0.1403634E+00
          2   -1    0    0  502    0  0.00000000000E+00  0.00000000000E+00  0.38794263443E+03  0.38794263443E+03  0.00000000000E+00 0. -1.
          1   -1    0    0  501    0 -0.00000000000E+00 -0.00000000000E+00 -0.29839817209E+03  0.29839817209E+03  0.00000000000E+00 0. -1.
         25    2    1    2    0    0 -0.65415067450E+02 -0.44770861362E+02 -0.11618713904E+03  0.18816893376E+03  0.12499814109E+03 0.  0.
          2    1    1    2  501    0  0.60225197964E+02  0.81389432011E+02 -0.12754654176E+03  0.16284788739E+03  0.00000000000E+00 0. -1.
          1    1    1    2  502    0  0.51898694864E+01 -0.36618570649E+02  0.33327814314E+03  0.33532398536E+03  0.00000000000E+00 0. -1.
         22    1    3    3    0    0 -0.47585559274E+01  0.27707540825E+02  0.10588544701E+02  0.30041121017E+02  0.00000000000E+00 0.  1.
         22    1    3    3    0    0 -0.60656511523E+02 -0.72478402187E+02 -0.12677568374E+03  0.15812781274E+03  0.00000000000E+00 0.  1.
</event>
<event>
 7    1  0.6089676E-006  0.1269864E+03  0.7818608E-02  0.1273262E+00
          2   -1    0    0  502    0  0.00000000000E+00  0.00000000000E+00  0.11519912271E+04  0.11519912271E+04  0.00000000000E+00 0. -1.
          1   -1    0    0  501    0 -0.00000000000E+00 -0.00000000000E+00 -0.40173413393E+03  0.40173413393E+03  0.00000000000E+00 0. -1.
         25    2    1    2    0    0 -0.40163091493E+02  0.68947925032E+02 -0.70758804058E+01  0.14846202231E+03  0.12499605474E+03 0.  0.
          2    1    1    2  501    0  0.12421325450E+03 -0.63467443387E+02 -0.30720943487E+03  0.33739396236E+03  0.00000000000E+00 0. -1.
          1    1    1    2  502    0 -0.84050163011E+02 -0.54804816445E+01  0.10645424085E+04  0.10678693764E+04  0.00000000000E+00 0. -1.
         22    1    3    3    0    0 -0.38374434690E+02  0.45671054990E+02  0.55620464787E+02  0.81560275899E+02  0.00000000000E+00 0.  1.
         22    1    3    3    0    0 -0.17886568036E+01  0.23276870041E+02 -0.62696345192E+02  0.66901746409E+02  0.00000000000E+00 0.  1.
</event>
<event>
 7    1  0.6089676E-006  0.8128964E+02  0.7818608E-02  0.1354417E+00
          2   -1    0    0  502    0  0.00000000000E+00  0.00000000000E+00  0.66986462683E+03  0.66986462683E+03  0.00000000000E+00 0. -1.
          1   -1    0    0  501    0 -0.00000000000E+00 -0.00000000000E+00 -0.30076980853E+04  0.30076980853E+04  0.00000000000E+00 0. -1.
         25    2    1    2    0    0  0.75184052551E+02  0.89291162708E+02 -0.21993577162E+02  0.17243760236E+03  0.12500182310E+03 0.  0.
          2    1    1    2  501    0  0.12371953335E+01 -0.63223236141E+02 -0.29073960766E+04  0.29080836739E+04  0.00000000000E+00 0. -1.
          1    1    1    2  502    0 -0.76421247885E+02 -0.26067926567E+02  0.59155619530E+03  0.59704143585E+03  0.00000000000E+00 0. -1.
         22    1    3    3    0    0  0.21728316646E+02  0.25851917944E+01 -0.59885600479E+02  0.63758043458E+02  0.00000000000E+00 0. -1.
         22    1    3    3    0    0  0.53455735905E+02  0.86705970914E+02  0.37892023316E+02  0.10867955891E+03  0.00000000000E+00 0. -1.
</event>
<event>
 7    1  0.6089676E-006  0.1585285E+03  0.7818608E-02  0.1227784E+00
          2   -1    0    0  502    0  0.00000000000E+00  0.00000000000E+00  0.58427193636E+03  0.58427193636E+03  0.00000000000E+00 0. -1.
          1   -1    0    0  501    0 -0.00000000000E+00 -0.00000000000E+00 -0.48221311204E+03  0.48221311204E+03  0.00000000000E+00 0. -1.
         25    2    1    2    0    0 -0.13264403924E+03  0.20878844729E+03  0.15190620506E+03  0.31604951269E+03  0.12499896987E+03 0.  0.
          2    1    1    2  501    0  0.45057417991E+02 -0.96216194653E+02 -0.37798848593E+03  0.39263599239E+03  0.00000000000E+00 0. -1.
          1    1    1    2  502    0  0.87586621247E+02 -0.11257225263E+03  0.32814110518E+03  0.35779954331E+03  0.00000000000E+00 0. -1.
         22    1    3    3    0    0 -0.12385104859E+03  0.11602970556E+03  0.47752751805E+02  0.17630173032E+03  0.00000000000E+00 0.  1.
         22    1    3    3    0    0 -0.87929906509E+01  0.92758741723E+02  0.10415345326E+03  0.13974778237E+03  0.00000000000E+00 0.  1.
</event>
<event>
 7    1  0.6089676E-006  0.1701996E+03  0.7818608E-02  0.1320652E+00
          2   -1    0    0  502    0  0.00000000000E+00  0.00000000000E+00  0.79536948049E+03  0.79536948049E+03  0.00000000000E+00 0. -1.
          1   -1    0    0  501    0 -0.00000000000E+00 -0.00000000000E+00 -0.15071677312E+04  0.15071677312E+04  0.00000000000E+00 0. -1.
         25    2    1    2    0    0  0.13130853052E+03 -0.67532960246E+02 -0.38167578838E+03  0.42790697607E+03  0.12500136727E+03 0.  0.
          2    1    1    2  501    0 -0.14221301810E+03  0.10654815850E+03 -0.10946754887E+04  0.11090047242E+04  0.00000000000E+00 0. -1.
          1    1    1    2  502    0  0.10904487580E+02 -0.39015198258E+02  0.76455302643E+03  0.76562551144E+03  0.00000000000E+00 0. -1.
         22    1    3    3    0    0  0.67754971662E+02 -0.95890569503E+02 -0.18331930911E+03  0.21769636331E+03  0.00000000000E+00 0.  1.
         22    1    3    3    0    0  0.63553558858E+02  0.28357609257E+02 -0.19835647928E+03  0.21021061276E+03  0.00000000000E+00 0.  1.
</event>
<event>
 7    1  0.6089676E-006  0.1068016E+03  0.7818608E-02  0.1320694E+00
          2   -1    0    0  502    0  0.00000000000E+00  0.00000000000E+00  0.87948291499E+03  0.87948291499E+03  0.00000000000E+00 0. -1.
          1   -1    0    0  501    0 -0.00000000000E+00 -0.00000000000E+00 -0.15113185992E+04  0.15113185992E+04  0.00000000000E+00 0. -1.
         25    2    1    2    0    0 -0.64629872798E+01 -0.92951977552E+02 -0.21111354718E+03  0.26244340236E+03  0.12500307716E+03 0.  0.
          2    1    1    2  501    0  0.64475046802E+02  0.27386404885E+01 -0.12703495000E+04  0.12719875722E+04  0.00000000000E+00 0. -1.
          1    1    1    2  502    0 -0.58012059522E+02  0.90213337063E+02  0.84962736295E+03  0.85637053961E+03  0.00000000000E+00 0. -1.
         22    1    3    3    0    0 -0.26383104842E+02 -0.62754021511E+02 -0.21550528020E+03  0.22600146290E+03  0.00000000000E+00 0.  1.
         22    1    3    3    0    0  0.19920117562E+02 -0.30197956041E+02  0.43917330165E+01  0.36441939460E+02  0.00000000000E+00 0.  1.
</event>
<event>
 7    1  0.6089676E-006  0.1294300E+03  0.7818608E-02  0.1362351E+00
          2   -1    0    0  502    0  0.00000000000E+00  0.00000000000E+00  0.31036618200E+04  0.31036618200E+04  0.00000000000E+00 0. -1.
          1   -1    0    0  501    0 -0.00000000000E+00 -0.00000000000E+00 -0.65867814976E+03  0.65867814976E+03  0.00000000000E+00 0. -1.
         25    2    1    2    0    0 -0.74477028488E+02 -0.61605548289E+02  0.21373992779E+03  0.26580506121E+03  0.12500200991E+03 0.  0.
          2    1    1    2  501    0 -0.16227717517E+02 -0.33416257349E+02 -0.63059228425E+03  0.63168553412E+03  0.00000000000E+00 0. -1.
          1    1    1    2  502    0  0.90704746005E+02  0.95021805639E+02  0.28618360267E+04  0.28648493744E+04  0.00000000000E+00 0. -1.
         22    1    3    3    0    0 -0.82116794857E+02 -0.20917538845E+02  0.53295275316E+02  0.10010543342E+03  0.00000000000E+00 0. -1.
         22    1    3    3    0    0  0.76397663689E+01 -0.40688009444E+02  0.16044465248E+03  0.16569962779E+03  0.00000000000E+00 0. -1.
</event>
<event>
 7    1  0.6089676E-006  0.7784982E+02  0.7818608E-02  0.1455476E+00
          2   -1    0    0  502    0  0.00000000000E+00  0.00000000000E+00  0.34100675621E+03  0.34100675621E+03  0.00000000000E+00 0. -1.
          1   -1    0    0  501    0 -0.00000000000E+00 -0.00000000000E+00 -0.86227583708E+03  0.86227583708E+03  0.00000000000E+00 0. -1.
         25    2    1    2    0    0  0.45305426550E+02  0.55031679975E+02 -0.16550650950E+02  0.14484628310E+03  0.12500181681E+03 0.  0.
          2    1    1    2  501    0 -0.22967040167E+02 -0.74761857568E+02 -0.77881095998E+03  0.78272813395E+03  0.00000000000E+00 0. -1.
          1    1    1    2  502    0 -0.22338386383E+02  0.19730177593E+02  0.27409253006E+03  0.27570817625E+03  0.00000000000E+00 0. -1.
         22    1    3    3    0    0  0.19847044098E+01  0.32294143222E+02  0.51628571301E+02  0.60929140094E+02  0.00000000000E+00 0. -1.
         22    1    3    3    0    0  0.43320722140E+02  0.22737536752E+02 -0.68179222251E+02  0.83917143010E+02  0.00000000000E+00 0. -1.
</event>
<event>
 7    1  0.6089676E-006  0.7468852E+02  0.7818608E-02  0.1399646E+00
          2   -1    0    0  502    0  0.00000000000E+00  0.00000000000E+00  0.23191609501E+04  0.23191609501E+04  0.00000000000E+00 0. -1.
          1   -1    0    0  501    0 -0.00000000000E+00 -0.00000000000E+00 -0.16276928524E+04  0.16276928524E+04  0.00000000000E+00 0. -1.
         25    2    1    2    0    0  0.50713648811E+02  0.18217437359E+02 -0.63126609171E+02  0.15004709500E+03  0.12500165092E+03 0.  0.
          2    1    1    2  501    0 -0.39295874247E+02 -0.64336678074E+02 -0.15199236763E+04  0.15217921526E+04  0.00000000000E+00 0. -1.
          1    1    1    2  502    0 -0.11417774564E+02  0.46119240715E+02  0.22745183832E+04  0.22750145550E+04  0.00000000000E+00 0. -1.
         22    1    3    3    0    0  0.85494459308E+02  0.11368748158E+02 -0.73278147434E+02  0.11317348585E+03  0.00000000000E+00 0. -1.
         22    1    3    3    0    0 -0.34780810497E+02  0.68486892011E+01  0.10151538263E+02  0.36873609150E+02  0.00000000000E+00 0. -1.
</event>
<event>
 7    1  0.6089676E-006  0.9972327E+02  0.7818608E-02  0.1428297E+00
          2   -1    0    0  502    0  0.00000000000E+00  0.00000000000E+00  0.63800492704E+02  0.63800492704E+02  0.00000000000E+00 0. -1.
          1   -1    0    0  501    0 -0.00000000000E+00 -0.00000000000E+00 -0.12358279834E+04  0.12358279834E+04  0.00000000000E+00 0. -1.
         25    2    1    2    0    0 -0.60371427919E+02 -0.81407280988E+02 -0.80300253382E+03  0.81896851368E+03  0.12499800946E+03 0.  0.
          2    1    1    2  501    0 -0.19180384085E+02  0.21068199976E+02 -0.37922515781E+03  0.38029393434E+03  0.00000000000E+00 0. -1.
          1    1    1    2  502    0  0.79551812003E+02  0.60339081012E+02  0.10200200949E+02  0.10036602807E+03  0.00000000000E+00 0. -1.
         22    1    3    3    0    0  0.50652915612E+01  0.77855728094E+01 -0.42525336700E+03  0.42535479128E+03  0.00000000000E+00 0.  1.
         22    1    3    3    0    0 -0.65436719480E+02 -0.89192853798E+02 -0.37774916683E+03  0.39361372240E+03  0.00000000000E+00 0.  1.
</event>
<event>
 7    1  0.6089676E-006  0.1261930E+03  0.7818608E-02  0.1278348E+00
          2   -1    0    0  502    0  0.00000000000E+00  0.00000000000E+00  0.93951524487E+03  0.93951524487E+03  0.00000000000E+00 0. -1.
          1   -1    0    0  501    0 -0.00000000000E+00 -0.00000000000E+00 -0.82069380998E+03  0.82069380998E+03  0.00000000000E+00 0. -1.
         25    2    1    2    0    0 -0.13196208261E+02 -0.74079315801E+02 -0.44039380366E+03  0.46393265076E+03  0.12499966876E+03 0.  0.
          2    1    1    2  501    0 -0.79807494077E+02 -0.12153058200E+02 -0.35970119164E+03  0.36864872196E+03  0.00000000000E+00 0. -1.
          1    1    1    2  502    0  0.93003702338E+02  0.86232374001E+02  0.91891643020E+03  0.92762768213E+03  0.00000000000E+00 0. -1.
         22    1    3    3    0    0  0.40153312309E+02 -0.23679400507E+02 -0.57273652970E+02  0.73846285095E+02  0.00000000000E+00 0. -1.
         22    1    3    3    0    0 -0.53349520569E+02 -0.50399915293E+02 -0.38312015069E+03  0.39008636566E+03  0.00000000000E+00 0. -1.
</event>
<event>
 7    1  0.6089676E-006  0.1060879E+03  0.7818608E-02  0.1361896E+00
          2   -1    0    0  502    0  0.00000000000E+00  0.00000000000E+00  0.22432609643E+04  0.22432609643E+04  0.00000000000E+00 0. -1.
          1   -1    0    0  501    0 -0.00000000000E+00 -0.00000000000E+00 -0.21988962045E+02  0.21988962045E+02  0.00000000000E+00 0. -1.
         25    2    1    2    0    0 -0.78384442447E+02 -0.40815577088E+02  0.35954476318E+03  0.39075955419E+03  0.12494222787E+03 0.  0.
          2    1    1    2  501    0  0.10613665937E+02 -0.44239120770E+02  0.10540123479E+03  0.11480056623E+03  0.00000000000E+00 0. -1.
          1    1    1    2  502    0  0.67770776510E+02  0.85054697858E+02  0.17563260043E+04  0.17596898059E+04  0.00000000000E+00 0. -1.
         22    1    3    3    0    0 -0.57215438068E+02 -0.30529488868E+02  0.36137963216E+03  0.36715241329E+03  0.00000000000E+00 0.  1.
         22    1    3    3    0    0 -0.21169004379E+02 -0.10286088220E+02 -0.18348689765E+01  0.23607140899E+02  0.00000000000E+00 0.  1.
</event>
<event>
 7    1  0.6089676E-006  0.1004729E+03  0.7818608E-02  0.1284053E+00
          2   -1    0    0  502    0  0.00000000000E+00  0.00000000000E+00  0.46155281879E+03  0.46155281879E+03  0.00000000000E+00 0. -1.
          1   -1    0    0  501    0 -0.00000000000E+00 -0.00000000000E+00 -0.15008683073E+04  0.15008683073E+04  0.00000000000E+00 0. -1.
         25    2    1    2    0    0 -0.10803418412E+02  0.19002981262E+02 -0.98888992538E+02  0.16087440760E+03  0.12499486001E+03 0.  0.
          2    1    1    2  501    0  0.95401500719E+02  0.35200039201E+02 -0.13632055519E+04  0.13669930014E+04  0.00000000000E+00 0. -1.
          1    1    1    2  502    0 -0.84598082307E+02 -0.54203020463E+02  0.42277905591E+03  0.43455371713E+03  0.00000000000E+00 0. -1.
         22    1    3    3    0    0  0.23155445588E+02  0.65259009177E+02 -0.59214546287E+02  0.91111335360E+02  0.00000000000E+00 0. -1.
         22    1    3    3    0    0 -0.33958864000E+02 -0.46256027914E+02 -0.39674446251E+02  0.69763072237E+02  0.00000000000E+00 0. -1.
</event>
<event>
 7    1  0.6089676E-006  0.7827717E+02  0.7818608E-02  0.1341659E+00
          2   -1    0    0  502    0  0.00000000000E+00  0.00000000000E+00  0.38673474312E+03  0.38673474312E+03  0.00000000000E+00 0. -1.
          1   -1    0    0  501    0 -0.00000000000E+00 -0.00000000000E+00 -0.24175149748E+04  0.24175149748E+04  0.00000000000E+00 0. -1.
         25    2    1    2    0    0  0.56066544014E+02 -0.62618976355E+02  0.28251754038E+03  0.32016685284E+03  0.12500423785E+03 0.  0.
          2    1    1    2  501    0  0.25079678686E+02  0.74150694867E+02 -0.23782298700E+04  0.23795177306E+04  0.00000000000E+00 0. -1.
          1    1    1    2  502    0 -0.81146222700E+02 -0.11531718512E+02  0.64932097969E+02  0.10456513442E+03  0.00000000000E+00 0. -1.
         22    1    3    3    0    0  0.35880128243E+01 -0.50355668886E+02  0.25443834641E+03  0.25939822541E+03  0.00000000000E+00 0. -1.
         22    1    3    3    0    0  0.52478531189E+02 -0.12263307468E+02  0.28079193972E+02  0.60768627432E+02  0.00000000000E+00 0. -1.
</event>
<event>
 7    1  0.6089676E-006  0.1344933E+03  0.7818608E-02  0.1306903E+00
          2   -1    0    0  502    0  0.00000000000E+00  0.00000000000E+00  0.19627435753E+03  0.19627435753E+03  0.00000000000E+00 0. -1.
          1   -1    0    0  501    0 -0.00000000000E+00 -0.00000000000E+00 -0.16850582796E+04  0.16850582796E+04  0.00000000000E+00 0. -1.
         25    2    1    2    0    0  0.14611157182E+03 -0.10969441562E+03 -0.96293734357E+03  0.98805466812E+03  0.12498897280E+03 0.  0.
          2    1    1    2  501    0 -0.57101027561E+02  0.10368645656E+02 -0.68396386225E+03  0.68642159131E+03  0.00000000000E+00 0. -1.
          1    1    1    2  502    0 -0.89010544255E+02  0.99325769966E+02  0.15811728376E+03  0.20685637769E+03  0.00000000000E+00 0. -1.
         22    1    3    3    0    0  0.49601285889E+02 -0.66000925138E+02 -0.69574055368E+03  0.70062210050E+03  0.00000000000E+00 0. -1.
         22    1    3    3    0    0  0.96510285927E+02 -0.43693490485E+02 -0.26719678989E+03  0.28743256762E+03  0.00000000000E+00 0. -1.
</event>
<event>
 7    1  0.6089676E-006  0.4750794E+02  0.7818608E-02  0.1464303E+00
          2   -1    0    0  502    0  0.00000000000E+00  0.00000000000E+00  0.14116311713E+04  0.14116311713E+04  0.00000000000E+00 0. -1.
          1   -1    0    0  501    0 -0.00000000000E+00 -0.00000000000E+00 -0.26429562440E+04  0.26429562440E+04  0.00000000000E+00 0. -1.
         25    2    1    2    0    0 -0.70510630920E+02  0.13205484173E+02  0.30240138017E+03  0.33498867910E+03  0.12499874604E+03 0.  0.
          2    1    1    2  501    0  0.30849802956E+02 -0.36121466464E+02 -0.26259677668E+04  0.26263973772E+04  0.00000000000E+00 0. -1.
          1    1    1    2  502    0  0.39660827964E+02  0.22915982290E+02  0.10922413139E+04  0.10932013590E+04  0.00000000000E+00 0. -1.
         22    1    3    3    0    0 -0.78937246096E+02  0.43643458144E+02  0.12133617967E+03  0.15118964501E+03  0.00000000000E+00 0.  1.
         22    1    3    3    0    0  0.84266151761E+01 -0.30437973971E+02  0.18106520050E+03  0.18379903409E+03  0.00000000000E+00 0.  1.
</event>
<event>
 7    1  0.6089676E-006  0.9075231E+02  0.7818608E-02  0.1361793E+00
          2   -1    0    0  502    0  0.00000000000E+00  0.00000000000E+00  0.13973783164E+03  0.13973783164E+03  0.00000000000E+00 0. -1.
          1   -1    0    0  501    0 -0.00000000000E+00 -0.00000000000E+00 -0.42349772415E+03  0.42349772415E+03  0.00000000000E+00 0. -1.
         25    2    1    2    0    0  0.41638148515E+02 -0.21028523594E+02 -0.71296253608E+02  0.15127358643E+03  0.12499843181E+03 0.  0.
          2    1    1    2  501    0 -0.86841575592E+02  0.49134166724E+02 -0.29630359461E+03  0.31265227613E+03  0.00000000000E+00 0. -1.
          1    1    1    2  502    0  0.45203427077E+02 -0.28105643130E+02  0.83839955713E+02  0.99309693229E+02  0.00000000000E+00 0. -1.
         22    1    3    3    0    0  0.45032042027E+02  0.46925922913E+02 -0.29440300783E+02  0.71390884295E+02  0.00000000000E+00 0. -1.
         22    1    3    3    0    0 -0.33938935119E+01 -0.67954446506E+02 -0.41855952826E+02  0.79882702133E+02  0.00000000000E+00 0. -1.
</event>
<event>
 7    1  0.6089676E-006  0.6465369E+02  0.7818608E-02  0.1389775E+00
          2   -1    0    0  502    0  0.00000000000E+00  0.00000000000E+00  0.12018326126E+04  0.12018326126E+04  0.00000000000E+00 0. -1.
          1   -1    0    0  501    0 -0.00000000000E+00 -0.00000000000E+00 -0.24465939361E+02  0.24465939361E+02  0.00000000000E+00 0. -1.
         25    2    1    2    0    0  0.46160816369E+02 -0.37212608767E+01  0.38339745647E+03  0.40590502093E+03  0.12498242930E+03 0.  0.
          2    1    1    2  501    0 -0.40529755396E+02  0.62837429231E+02  0.10518739146E+03  0.12905654151E+03  0.00000000000E+00 0. -1.
          1    1    1    2  502    0 -0.56310609724E+01 -0.59116168354E+02  0.68878182534E+03  0.69133698955E+03  0.00000000000E+00 0. -1.
         22    1    3    3    0    0 -0.20888208921E+02 -0.77998453683E+01  0.29002366116E+03  0.29087949204E+03  0.00000000000E+00 0. -1.
         22    1    3    3    0    0  0.67049025289E+02  0.40785844917E+01  0.93373795316E+02  0.11502552889E+03  0.00000000000E+00 0. -1.
</event>
<event>
 7    1  0.6089676E-006  0.5210707E+02  0.7818608E-02  0.1434624E+00
          2   -1    0    0  502    0  0.00000000000E+00  0.00000000000E+00  0.52287281729E+03  0.52287281729E+03  0.00000000000E+00 0. -1.
          1   -1    0    0  501    0 -0.00000000000E+00 -0.00000000000E+00 -0.31244433588E+03  0.31244433588E+03  0.00000000000E+00 0. -1.
         25    2    1    2    0    0 -0.23632210998E+02 -0.33169718510E+02  0.18213937127E+03  0.22462832225E+03  0.12499768384E+03 0.  0.
          2    1    1    2  501    0  0.51410071230E+02 -0.10764450666E+02 -0.28668379030E+03  0.29145576756E+03  0.00000000000E+00 0. -1.
          1    1    1    2  502    0 -0.27777860232E+02  0.43934169176E+02  0.31497290044E+03  0.31923306337E+03  0.00000000000E+00 0. -1.
         22    1    3    3    0    0 -0.18600464029E+02 -0.42793114760E+02  0.19909693620E+03  0.20449160848E+03  0.00000000000E+00 0. -1.
         22    1    3    3    0    0 -0.50317469689E+01  0.96233962493E+01 -0.16957564931E+02  0.20136713766E+02  0.00000000000E+00 0. -1.
</event>
<event>
 7    1  0.6155994E-006  0.1359727E+03  0.7818608E-02  0.1308699E+00
          2   -1    0    0  502    0  0.00000000000E+00  0.00000000000E+00  0.38422737738E+04  0.38422737738E+04  0.00000000000E+00 0. -1.
          1   -1    0    0  501    0 -0.00000000000E+00 -0.00000000000E+00 -0.81865626846E+03  0.81865626846E+03  0.00000000000E+00 0. -1.
         25    2    1    2    0    0 -0.16172394046E+02 -0.17122358938E+03 -0.37914565147E+03  0.43470691075E+03  0.12505842371E+03 0.  0.
          2    1    1    2  501    0 -0.34131125275E+02  0.44991292273E+02 -0.40857703707E+03  0.41246132584E+03  0.00000000000E+00 0. -1.
          1    1    1    2  502    0  0.50303519321E+02  0.12623229711E+03  0.38113401939E+04  0.38137618057E+04  0.00000000000E+00 0. -1.
         22    1    3    3    0    0 -0.24340537473E+02 -0.13302710628E+03 -0.37090084287E+03  0.39478615479E+03  0.00000000000E+00 0.  1.
         22    1    3    3    0    0  0.81681434268E+01 -0.38196483099E+02 -0.82448085987E+01  0.39920755967E+02  0.00000000000E+00 0.  1.
</event>
<event>
 7    1  0.6089676E-006  0.9420260E+02  0.7818608E-02  0.1364127E+00
          2   -1    0    0  502    0  0.00000000000E+00  0.00000000000E+00  0.34493366241E+03  0.34493366241E+03  0.00000000000E+00 0. -1.
          1   -1    0    0  501    0 -0.00000000000E+00 -0.00000000000E+00 -0.55274775758E+03  0.55274775758E+03  0.00000000000E+00 0. -1.
         25    2    1    2    0    0  0.63146799487E+02 -0.76745552134E+02  0.92170762936E+01  0.15996187369E+03  0.12500179391E+03 0.  0.
          2    1    1    2  501    0 -0.15665250224E+02  0.93307452390E+02 -0.47018989610E+03  0.47961465692E+03  0.00000000000E+00 0. -1.
          1    1    1    2  502    0 -0.47481549264E+02 -0.16561900256E+02  0.25315872464E+03  0.25810488938E+03  0.00000000000E+00 0. -1.
         22    1    3    3    0    0  0.97238712592E+02 -0.49185605449E+02  0.27621524074E+02  0.11241681192E+03  0.00000000000E+00 0.  1.
         22    1    3    3    0    0 -0.34091913105E+02 -0.27559946685E+02 -0.18404447780E+02  0.47545061768E+02  0.00000000000E+00 0.  1.
</event>
<event>
 7    1  0.6089676E-006  0.3231178E+02  0.7818608E-02  0.1587083E+00
          2   -1    0    0  502    0  0.00000000000E+00  0.00000000000E+00  0.22917549843E+02  0.22917549843E+02  0.00000000000E+00 0. -1.
          1   -1    0    0  501    0 -0.00000000000E+00 -0.00000000000E+00 -0.70691163541E+03  0.70691163541E+03  0.00000000000E+00 0. -1.
         25    2    1    2    0    0 -0.13598130191E+02 -0.11500704661E+02 -0.52153258235E+03  0.53659872596E+03  0.12499913159E+03 0.  0.
          2    1    1    2  501    0 -0.94821263163E+01  0.34113815651E+02 -0.15639652034E+03  0.16035440347E+03  0.00000000000E+00 0. -1.
          1    1    1    2  502    0  0.23080256507E+02 -0.22613110989E+02 -0.60649828756E+01  0.32876055821E+02  0.00000000000E+00 0. -1.
         22    1    3    3    0    0 -0.69342470467E+02 -0.62728221817E+00 -0.27496484201E+03  0.28357439242E+03  0.00000000000E+00 0.  1.
         22    1    3    3    0    0  0.55744340276E+02 -0.10873422443E+02 -0.24656774035E+03  0.25302433355E+03  0.00000000000E+00 0.  1.
</event>
<event>
 7    1  0.6089676E-006  0.8606076E+02  0.7818608E-02  0.1352698E+00
          2   -1    0    0  502    0  0.00000000000E+00  0.00000000000E+00  0.29701963069E+04  0.29701963069E+04  0.00000000000E+00 0. -1.
          1   -1    0    0  501    0 -0.00000000000E+00 -0.00000000000E+00 -0.11303630851E+03  0.11303630851E+03  0.00000000000E+00 0. -1.
         25    2    1    2    0    0 -0.91666448020E+01  0.68709854504E+02  0.17658436686E+03  0.22718322260E+03  0.12500042613E+03 0.  0.
          2    1    1    2  501    0 -0.51219975042E+02 -0.73879814640E+02 -0.64285959644E+02  0.11051876520E+03  0.00000000000E+00 0. -1.
          1    1    1    2  502    0  0.60386619844E+02  0.51699601359E+01  0.27448615912E+04  0.27455306276E+04  0.00000000000E+00 0. -1.
         22    1    3    3    0    0  0.49476436327E+02  0.23236432138E-02  0.40965100941E+02  0.64234393063E+02  0.00000000000E+00 0. -1.
         22    1    3    3    0    0 -0.58643081129E+02  0.68707530861E+02  0.13561926592E+03  0.16294882954E+03  0.00000000000E+00 0. -1.
</event>
<event>
 7    1  0.6089676E-006  0.5474133E+02  0.7818608E-02  0.1422474E+00
          2   -1    0    0  502    0  0.00000000000E+00  0.00000000000E+00  0.27728736897E+03  0.27728736897E+03  0.00000000000E+00 0. -1.
          1   -1    0    0  501    0 -0.00000000000E+00 -0.00000000000E+00 -0.82498962508E+03  0.82498962508E+03  0.00000000000E+00 0. -1.
         25    2    1    2    0    0  0.72430464498E+01  0.48057231926E+00 -0.13287869483E+03  0.18257953758E+03  0.12500338928E+03 0.  0.
          2    1    1    2  501    0  0.11390331690E+02 -0.53052657833E+02 -0.66305764978E+03  0.66527420744E+03  0.00000000000E+00 0. -1.
          1    1    1    2  502    0 -0.18633378140E+02  0.52572085513E+02  0.24823408849E+03  0.25442324903E+03  0.00000000000E+00 0. -1.
         22    1    3    3    0    0 -0.30025707137E+02 -0.34214519393E+02 -0.60628327849E+01  0.45923135430E+02  0.00000000000E+00 0. -1.
         22    1    3    3    0    0  0.37268753587E+02  0.34695091712E+02 -0.12681586204E+03  0.13665640215E+03  0.00000000000E+00 0. -1.
</event>
<event>
 7    1  0.6089676E-006  0.4296189E+02  0.7818608E-02  0.1549322E+00
          2   -1    0    0  502    0  0.00000000000E+00  0.00000000000E+00  0.33768328349E+03  0.33768328349E+03  0.00000000000E+00 0. -1.
          1   -1    0    0  501    0 -0.00000000000E+00 -0.00000000000E+00 -0.60919425396E+02  0.60919425396E+02  0.00000000000E+00 0. -1.
         25    2    1    2    0    0 -0.50669554390E+02 -0.40540364188E+02  0.22857627989E+03  0.26848340392E+03  0.12500119032E+03 0.  0.
          2    1    1    2  501    0  0.16540369773E+02  0.23063677754E+02 -0.31065272562E+02  0.42078120480E+02  0.00000000000E+00 0. -1.
          1    1    1    2  502    0  0.34129184618E+02  0.17476686434E+02  0.79252850775E+02  0.88041184495E+02  0.00000000000E+00 0. -1.
         22    1    3    3    0    0 -0.98475200456E+01 -0.64044265307E+02  0.44824717097E+02  0.78790207720E+02  0.00000000000E+00 0.  1.
         22    1    3    3    0    0 -0.40822034345E+02  0.23503901119E+02  0.18375156279E+03  0.18969319620E+03  0.00000000000E+00 0.  1.
</event>
<event>
 7    1  0.6089676E-006  0.3491864E+02  0.7818608E-02  0.1566851E+00
          2   -1    0    0  502    0  0.00000000000E+00  0.00000000000E+00  0.23695499180E+04  0.23695499180E+04  0.00000000000E+00 0. -1.
          1   -1    0    0  501    0 -0.00000000000E+00 -0.00000000000E+00 -0.81503923047E+01  0.81503923047E+01  0.00000000000E+00 0. -1.
         25    2    1    2    0    0 -0.12427489012E+02  0.20982899039E+01  0.16694358578E+04  0.16741565358E+04  0.12500071220E+03 0.  0.
          2    1    1    2  501    0 -0.63831517257E+01 -0.34330257161E+02  0.52864195910E+02  0.63355618472E+02  0.00000000000E+00 0. -1.
          1    1    1    2  502    0  0.18810640737E+02  0.32231967257E+02  0.63909947202E+03  0.64018815598E+03  0.00000000000E+00 0. -1.
         22    1    3    3    0    0  0.15696724937E+02  0.55140522589E+02  0.51937370598E+03  0.52252838284E+03  0.00000000000E+00 0.  1.
         22    1    3    3    0    0 -0.28124213949E+02 -0.53042232685E+02  0.11500621518E+04  0.11516281530E+04  0.00000000000E+00 0.  1.
</event>
<event>
 7    1  0.6089676E-006  0.2014513E+03  0.7818608E-02  0.1168684E+00
          2   -1    0    0  502    0  0.00000000000E+00  0.00000000000E+00  0.18890693468E+04  0.18890693468E+04  0.00000000000E+00 0. -1.
          1   -1    0    0  501    0 -0.00000000000E+00 -0.00000000000E+00 -0.51209135771E+04  0.51209135771E+04  0.00000000000E+00 0. -1.
         25    2    1    2    0    0 -0.93671892933E+02  0.66609099486E+02  0.85517746315E+03  0.87187419971E+03  0.12499972392E+03 0.  0.
          2    1    1    2  501    0  0.91608782351E+01 -0.20154466827E+03 -0.51043807836E+04  0.51083664080E+04  0.00000000000E+00 0. -1.
          1    1    1    2  502    0  0.84511014698E+02  0.13493556878E+03  0.10173590901E+04  0.10297423161E+04  0.00000000000E+00 0. -1.
         22    1    3    3    0    0 -0.28252817738E+02  0.94102448476E+02  0.45997768759E+03  0.47035408535E+03  0.00000000000E+00 0.  1.
         22    1    3    3    0    0 -0.65419075195E+02 -0.27493348990E+02  0.39519977556E+03  0.40152011437E+03  0.00000000000E+00 0.  1.
</event>
<event>
 7    1  0.6089676E-006  0.1241842E+03  0.7818608E-02  0.1421161E+00
          2   -1    0    0  502    0  0.00000000000E+00  0.00000000000E+00  0.14409697678E+04  0.14409697678E+04  0.00000000000E+00 0. -1.
          1   -1    0    0  501    0 -0.00000000000E+00 -0.00000000000E+00 -0.52357618555E+03  0.52357618555E+03  0.00000000000E+00 0. -1.
         25    2    1    2    0    0 -0.97048952249E+01 -0.10128470396E+03  0.96254092062E+03  0.97594473329E+03  0.12502128753E+03 0.  0.
          2    1    1    2  501    0  0.21191032940E+02  0.12254090452E+03 -0.50907514667E+03  0.52404469095E+03  0.00000000000E+00 0. -1.
          1    1    1    2  502    0 -0.11486137715E+02 -0.21256200563E+02  0.46392780827E+03  0.46455652907E+03  0.00000000000E+00 0. -1.
         22    1    3    3    0    0  0.21592520880E+02 -0.12110169976E+03  0.78508073014E+03  0.79465943113E+03  0.00000000000E+00 0. -1.
         22    1    3    3    0    0 -0.31297416104E+02  0.19816995802E+02  0.17746019048E+03  0.18128530217E+03  0.00000000000E+00 0. -1.
</event>
<event>
 7    1  0.6089676E-006  0.6772530E+02  0.7818608E-02  0.1435882E+00
          2   -1    0    0  502    0  0.00000000000E+00  0.00000000000E+00  0.11994743565E+03  0.11994743565E+03  0.00000000000E+00 0. -1.
          1   -1    0    0  501    0 -0.00000000000E+00 -0.00000000000E+00 -0.24948597561E+04  0.24948597561E+04  0.00000000000E+00 0. -1.
         25    2    1    2    0    0 -0.68449976342E+01 -0.88534408221E+02 -0.41400097928E+03  0.44148433175E+03  0.12500563549E+03 0.  0.
          2    1    1    2  501    0  0.32829592932E+02  0.58631912895E+02 -0.20628567348E+04  0.20639509180E+04  0.00000000000E+00 0. -1.
          1    1    1    2  502    0 -0.25984595298E+02  0.29902495326E+02  0.10194539365E+03  0.10937194204E+03  0.00000000000E+00 0. -1.
         22    1    3    3    0    0 -0.29959644365E+02 -0.11305217720E+03 -0.28289673330E+03  0.30611915453E+03  0.00000000000E+00 0.  1.
         22    1    3    3    0    0  0.23114646731E+02  0.24517768978E+02 -0.13110424598E+03  0.13536517722E+03  0.00000000000E+00 0.  1.
</event>
<event>
 7    1  0.6089676E-006  0.4268363E+02  0.7818608E-02  0.1551481E+00
          2   -1    0    0  502    0  0.00000000000E+00  0.00000000000E+00  0.32471494820E+03  0.32471494820E+03  0.00000000000E+00 0. -1.
          1   -1    0    0  501    0 -0.00000000000E+00 -0.00000000000E+00 -0.71498871755E+03  0.71498871755E+03  0.00000000000E+00 0. -1.
         25    2    1    2    0    0 -0.66665909763E+02 -0.14678685513E+02  0.43030731935E+02  0.14875451244E+03  0.12496581032E+03 0.  0.
          2    1    1    2  501    0  0.24895494137E+02  0.13189348484E+02 -0.65991508376E+03  0.66051620897E+03  0.00000000000E+00 0. -1.
          1    1    1    2  502    0  0.41770415626E+02  0.14893370296E+01  0.22661058248E+03  0.23043294434E+03  0.00000000000E+00 0. -1.
         22    1    3    3    0    0 -0.52708517277E+02 -0.40440745428E+02 -0.27865292473E+02  0.72042461153E+02  0.00000000000E+00 0. -1.
         22    1    3    3    0    0 -0.13957392486E+02  0.25762059915E+02  0.70896024408E+02  0.76712051289E+02  0.00000000000E+00 0. -1.
</event>
<event>
 7    1  0.6089676E-006  0.8410688E+02  0.7818608E-02  0.1331663E+00
          2   -1    0    0  502    0  0.00000000000E+00  0.00000000000E+00  0.42177003091E+03  0.42177003091E+03  0.00000000000E+00 0. -1.
          1   -1    0    0  501    0 -0.00000000000E+00 -0.00000000000E+00 -0.54271555768E+03  0.54271555768E+03  0.00000000000E+00 0. -1.
         25    2    1    2    0    0  0.14687475949E+03 -0.32089358940E+02 -0.47361838251E+02  0.20115977973E+03  0.12498076382E+03 0.  0.
          2    1    1    2  501    0 -0.72597498506E+02  0.35724305434E+02 -0.41044986111E+03  0.41834879141E+03  0.00000000000E+00 0. -1.
          1    1    1    2  502    0 -0.74277260989E+02 -0.36349464943E+01  0.33686617259E+03  0.34497701745E+03  0.00000000000E+00 0. -1.
         22    1    3    3    0    0  0.14110738013E+03  0.19759545782E+02 -0.42891522247E+02  0.14879991618E+03  0.00000000000E+00 0. -1.
         22    1    3    3    0    0  0.57673793678E+01 -0.51848904722E+02 -0.44703160043E+01  0.52359863549E+02  0.00000000000E+00 0. -1.
</event>
<event>
 7    1  0.6089676E-006  0.2939807E+02  0.7818608E-02  0.1649162E+00
          2   -1    0    0  502    0  0.00000000000E+00  0.00000000000E+00  0.28689332544E+02  0.28689332544E+02  0.00000000000E+00 0. -1.
          1   -1    0    0  501    0 -0.00000000000E+00 -0.00000000000E+00 -0.14031530644E+04  0.14031530644E+04  0.00000000000E+00 0. -1.
         25    2    1    2    0    0  0.36139908283E+01  0.51158068371E+02 -0.42320270243E+03  0.44424734459E+03  0.12499986778E+03 0.  0.
          2    1    1    2  501    0  0.95309809885E+00 -0.22700238400E+02 -0.95777638889E+03  0.95804583415E+03  0.00000000000E+00 0. -1.
          1    1    1    2  502    0 -0.45670889271E+01 -0.28457829971E+02  0.65153594549E+01  0.29549218209E+02  0.00000000000E+00 0. -1.
         22    1    3    3    0    0  0.58314262418E+02  0.37617548610E+02 -0.31149287212E+03  0.31912919413E+03  0.00000000000E+00 0. -1.
         22    1    3    3    0    0 -0.54700271590E+02  0.13540519761E+02 -0.11170983030E+03  0.12511815046E+03  0.00000000000E+00 0. -1.
</event>
<event>
 7    1  0.6089676E-006  0.7961355E+02  0.7818608E-02  0.1340220E+00
          2   -1    0    0  502    0  0.00000000000E+00  0.00000000000E+00  0.34806723197E+03  0.34806723197E+03  0.00000000000E+00 0. -1.
          1   -1    0    0  501    0 -0.00000000000E+00 -0.00000000000E+00 -0.98873908915E+02  0.98873908915E+02  0.00000000000E+00 0. -1.
         25    2    1    2    0    0  0.88626047098E+01 -0.45226319963E+02  0.17736374379E+03  0.22182695214E+03  0.12500133322E+03 0.  0.
          2    1    1    2  501    0  0.70449754220E+02  0.38307688735E+02 -0.38584254594E+02  0.88990963521E+02  0.00000000000E+00 0. -1.
          1    1    1    2  502    0 -0.79312358930E+02  0.69186312273E+01  0.11041383386E+03  0.13612322522E+03  0.00000000000E+00 0. -1.
         22    1    3    3    0    0 -0.20777238411E+02  0.15108090571E+02 -0.61273719980E+01  0.26410087548E+02  0.00000000000E+00 0.  1.
         22    1    3    3    0    0  0.29639843121E+02 -0.60334410534E+02  0.18349111579E+03  0.19541686459E+03  0.00000000000E+00 0.  1.
</event>
<event>
 7    1  0.6089676E-006  0.3120069E+02  0.7818608E-02  0.1653158E+00
          2   -1    0    0  502    0  0.00000000000E+00  0.00000000000E+00  0.45400345708E+03  0.45400345708E+03  0.00000000000E+00 0. -1.
          1   -1    0    0  501    0 -0.00000000000E+00 -0.00000000000E+00 -0.10622019355E+03  0.10622019355E+03  0.00000000000E+00 0. -1.
         25    2    1    2    0    0  0.10487009445E+02 -0.12744219911E+02 -0.31410916096E+02  0.12993716363E+03  0.12499851332E+03 0.  0.
          2    1    1    2  501    0 -0.10032704335E+02  0.33669924082E+02 -0.13054441825E+02  0.37479826512E+02  0.00000000000E+00 0. -1.
          1    1    1    2  502    0 -0.45430511031E+00 -0.20925704171E+02  0.39224862146E+03  0.39280666049E+03  0.00000000000E+00 0. -1.
         22    1    3    3    0    0  0.53072371915E+01  0.16880570176E+02 -0.74955879427E+02  0.77016259821E+02  0.00000000000E+00 0.  1.
         22    1    3    3    0    0  0.51797722536E+01 -0.29624790087E+02  0.43544963331E+02  0.52920903807E+02  0.00000000000E+00 0.  1.
</event>
<event>
 7    1  0.6089676E-006  0.9829626E+02  0.7818608E-02  0.1374193E+00
          2   -1    0    0  502    0  0.00000000000E+00  0.00000000000E+00  0.16342361709E+03  0.16342361709E+03  0.00000000000E+00 0. -1.
          1   -1    0    0  501    0 -0.00000000000E+00 -0.00000000000E+00 -0.89026145491E+03  0.89026145491E+03  0.00000000000E+00 0. -1.
         25    2    1    2    0    0  0.16480243139E+02  0.86164502557E+02 -0.54140301425E+03  0.56252673103E+03  0.12499271729E+03 0.  0.
          2    1    1    2  501    0  0.43663579877E+02 -0.76898318258E+01 -0.32062244226E+03  0.32367328003E+03  0.00000000000E+00 0. -1.
          1    1    1    2  502    0 -0.60143823016E+02 -0.78474670731E+02  0.13518761869E+03  0.16748506095E+03  0.00000000000E+00 0. -1.
         22    1    3    3    0    0 -0.45029100544E+02  0.80583301174E+01 -0.98517865236E+02  0.10862010104E+03  0.00000000000E+00 0. -1.
         22    1    3    3    0    0  0.61509343683E+02  0.78106172440E+02 -0.44288514901E+03  0.45390662999E+03  0.00000000000E+00 0. -1.
</event>
<event>
 7    1  0.6089676E-006  0.5620692E+02  0.7818608E-02  0.1424460E+00
          2   -1    0    0  502    0  0.00000000000E+00  0.00000000000E+00  0.71673591537E+03  0.71673591537E+03  0.00000000000E+00 0. -1.
          1   -1    0    0  501    0 -0.00000000000E+00 -0.00000000000E+00 -0.89868550163E+03  0.89868550163E+03  0.00000000000E+00 0. -1.
         25    2    1    2    0    0  0.10111724902E+03 -0.37904499962E+02 -0.20699314869E+03  0.26482565844E+03  0.12500006639E+03 0.  0.
          2    1    1    2  501    0 -0.49077737004E+02  0.17336197901E+02 -0.66061266311E+03  0.66265998723E+03  0.00000000000E+00 0. -1.
          1    1    1    2  502    0 -0.52039512015E+02  0.20568302060E+02  0.68565622554E+03  0.68793577133E+03  0.00000000000E+00 0. -1.
         22    1    3    3    0    0  0.91223468613E+02 -0.37332070576E+02 -0.55715554771E+02  0.11322379504E+03  0.00000000000E+00 0.  1.
         22    1    3    3    0    0  0.98937804070E+01 -0.57242938579E+00 -0.15127759392E+03  0.15160186340E+03  0.00000000000E+00 0.  1.
</event>
<event>
 7    1  0.6089676E-006  0.1028190E+03  0.7818608E-02  0.1359461E+00
          2   -1    0    0  502    0  0.00000000000E+00  0.00000000000E+00  0.18737604521E+03  0.18737604521E+03  0.00000000000E+00 0. -1.
          1   -1    0    0  501    0 -0.00000000000E+00 -0.00000000000E+00 -0.48003290572E+03  0.48003290572E+03  0.00000000000E+00 0. -1.
         25    2    1    2    0    0  0.46089596813E+02  0.53586846821E+02 -0.46957543139E+02  0.15107873710E+03  0.12499589137E+03 0.  0.
          2    1    1    2  501    0 -0.38872534967E+02 -0.10095037029E+03 -0.36874564295E+03  0.38428557146E+03  0.00000000000E+00 0. -1.
          1    1    1    2  502    0 -0.72170618462E+01  0.47363523465E+02  0.12304632558E+03  0.13204464236E+03  0.00000000000E+00 0. -1.
         22    1    3    3    0    0  0.53053703986E+02  0.88322103349E+02 -0.51804607751E+02  0.11532218707E+03  0.00000000000E+00 0. -1.
         22    1    3    3    0    0 -0.69641071731E+01 -0.34735256528E+02  0.48470646111E+01  0.35756550031E+02  0.00000000000E+00 0. -1.
</event>
<event>
 7    1  0.6089676E-006  0.7349242E+02  0.7818608E-02  0.1422990E+00
          2   -1    0    0  502    0  0.00000000000E+00  0.00000000000E+00  0.14909004423E+04  0.14909004423E+04  0.00000000000E+00 0. -1.
          1   -1    0    0  501    0 -0.00000000000E+00 -0.00000000000E+00 -0.80829199931E+02  0.80829199931E+02  0.00000000000E+00 0. -1.
         25    2    1    2    0    0 -0.29118669158E+02  0.23509489191E+02  0.23163170121E+03  0.26585355532E+03  0.12499709955E+03 0.  0.
          2    1    1    2  501    0  0.66244399476E+02 -0.39077096582E+02 -0.40055168239E+02  0.86716529231E+02  0.00000000000E+00 0. -1.
          1    1    1    2  502    0 -0.37125730319E+02  0.15567607390E+02  0.12184947094E+04  0.12191595577E+04  0.00000000000E+00 0. -1.
         22    1    3    3    0    0  0.41896121959E+02  0.34102744246E+02  0.13546869218E+03  0.14584254784E+03  0.00000000000E+00 0.  1.
         22    1    3    3    0    0 -0.71014791116E+02 -0.10593255055E+02  0.96163009026E+02  0.12001100747E+03  0.00000000000E+00 0.  1.
</event>
<event>
 7    1  0.6089676E-006  0.6002670E+02  0.7818608E-02  0.1399453E+00
          2   -1    0    0  502    0  0.00000000000E+00  0.00000000000E+00  0.20031406365E+04  0.20031406365E+04  0.00000000000E+00 0. -1.
          1   -1    0    0  501    0 -0.00000000000E+00 -0.00000000000E+00 -0.32828415656E+03  0.32828415656E+03  0.00000000000E+00 0. -1.
         25    2    1    2    0    0 -0.91198386768E+01 -0.51216122062E+02 -0.17432348283E+03  0.22072466574E+03  0.12499775511E+03 0.  0.
          2    1    1    2  501    0 -0.48472732787E+02  0.33997393990E+02 -0.12357670687E+03  0.13702784791E+03  0.00000000000E+00 0. -1.
          1    1    1    2  502    0  0.57592571464E+02  0.17218728072E+02  0.19727566696E+04  0.19736722794E+04  0.00000000000E+00 0. -1.
         22    1    3    3    0    0  0.66532314490E+01 -0.91628454742E+02 -0.11366332419E+03  0.14614852196E+03  0.00000000000E+00 0. -1.
         22    1    3    3    0    0 -0.15773070126E+02  0.40412332680E+02 -0.60660158647E+02  0.74576143779E+02  0.00000000000E+00 0. -1.
</event>
<event>
 7    1  0.6089676E-006  0.6962472E+02  0.7818608E-02  0.1384319E+00
          2   -1    0    0  502    0  0.00000000000E+00  0.00000000000E+00  0.92623425334E+03  0.92623425334E+03  0.00000000000E+00 0. -1.
          1   -1    0    0  501    0 -0.00000000000E+00 -0.00000000000E+00 -0.33779151083E+03  0.33779151083E+03  0.00000000000E+00 0. -1.
         25    2    1    2    0    0  0.87906531676E+02 -0.57319249487E+02 -0.14491090801E+03  0.21826010189E+03  0.12500098457E+03 0.  0.
          2    1    1    2  501    0 -0.57400721715E+02 -0.50941657514E+01 -0.14947987994E+03  0.16020308326E+03  0.00000000000E+00 0. -1.
          1    1    1    2  502    0 -0.30505809962E+02  0.62413415238E+02  0.88283353046E+03  0.88556257902E+03  0.00000000000E+00 0. -1.
         22    1    3    3    0    0  0.15495065888E+02  0.11040529896E+02  0.18731792311E+02  0.26699633152E+02  0.00000000000E+00 0. -1.
         22    1    3    3    0    0  0.72411465788E+02 -0.68359779383E+02 -0.16364270032E+03  0.19156046874E+03  0.00000000000E+00 0. -1.
</event>
<event>
 7    1  0.6089676E-006  0.1245059E+03  0.7818608E-02  0.1342389E+00
          2   -1    0    0  502    0  0.00000000000E+00  0.00000000000E+00  0.49062442366E+02  0.49062442366E+02  0.00000000000E+00 0. -1.
          1   -1    0    0  501    0 -0.00000000000E+00 -0.00000000000E+00 -0.30247188485E+04  0.30247188485E+04  0.00000000000E+00 0. -1.
         25    2    1    2    0    0  0.39385235940E+02  0.12287983866E+03 -0.40645722913E+03  0.44439014691E+03  0.12499788800E+03 0.  0.
          2    1    1    2  501    0  0.38373200155E+02 -0.24928252439E+02 -0.24682360490E+04  0.24686601860E+04  0.00000000000E+00 0. -1.
          1    1    1    2  502    0 -0.77758436095E+02 -0.97951586217E+02 -0.10096312794E+03  0.16073095791E+03  0.00000000000E+00 0. -1.
         22    1    3    3    0    0  0.61497805776E+02  0.79847631770E+02 -0.37089647869E+03  0.38434596696E+03  0.00000000000E+00 0.  1.
         22    1    3    3    0    0 -0.22112569836E+02  0.43032206886E+02 -0.35560750436E+02  0.60044179949E+02  0.00000000000E+00 0.  1.
</event>
<event>
 7    1  0.6089676E-006  0.1446358E+03  0.7818608E-02  0.1215517E+00
          2   -1    0    0  502    0  0.00000000000E+00  0.00000000000E+00  0.12533350760E+04  0.12533350760E+04  0.00000000000E+00 0. -1.
          1   -1    0    0  501    0 -0.00000000000E+00 -0.00000000000E+00 -0.63287133486E+02  0.63287133486E+02  0.00000000000E+00 0. -1.
         25    2    1    2    0    0 -0.68359791637E+02  0.36056317711E+02  0.66724853917E+03  0.68323980045E+03  0.12499157066E+03 0.  0.
          2    1    1    2  501    0  0.15206030255E+03  0.66539786788E+02  0.10815282948E+03  0.19810833744E+03  0.00000000000E+00 0. -1.
          1    1    1    2  502    0 -0.83700510916E+02 -0.10259610450E+03  0.41464657382E+03  0.43527407155E+03  0.00000000000E+00 0. -1.
         22    1    3    3    0    0 -0.88709947252E+02  0.66073921324E+02  0.49275807134E+03  0.50502052898E+03  0.00000000000E+00 0.  1.
         22    1    3    3    0    0  0.20350155615E+02 -0.30017603613E+02  0.17449046783E+03  0.17821927147E+03  0.00000000000E+00 0.  1.
</event>
<event>
 7    1  0.6089676E-006  0.2106726E+03  0.7818608E-02  0.1242101E+00
          2   -1    0    0  502    0  0.00000000000E+00  0.00000000000E+00  0.35305463741E+03  0.35305463741E+03  0.00000000000E+00 0. -1.
          1   -1    0    0  501    0 -0.00000000000E+00 -0.00000000000E+00 -0.50194648733E+03  0.50194648733E+03  0.00000000000E+00 0. -1.
         25    2    1    2    0    0  0.76318755295E+02  0.13443029434E+03 -0.13350516508E+03  0.23946725399E+03  0.12499952073E+03 0.  0.
          2    1    1    2  501    0  0.27735371439E+02  0.63229076426E+02 -0.26891588641E+03  0.27763811140E+03  0.00000000000E+00 0. -1.
          1    1    1    2  502    0 -0.10405412673E+03 -0.19765937077E+03  0.25352920157E+03  0.33789575936E+03  0.00000000000E+00 0. -1.
         22    1    3    3    0    0  0.36150134195E+02  0.10603710878E+03 -0.15032670736E+03  0.18748018452E+03  0.00000000000E+00 0.  1.
         22    1    3    3    0    0  0.40168621100E+02  0.28393185561E+02  0.16821542280E+02  0.51987069470E+02  0.00000000000E+00 0.  1.
</event>
<event>
 7    1  0.6089676E-006  0.3903877E+02  0.7818608E-02  0.1535412E+00
          2   -1    0    0  502    0  0.00000000000E+00  0.00000000000E+00  0.10079304118E+04  0.10079304118E+04  0.00000000000E+00 0. -1.
          1   -1    0    0  501    0 -0.00000000000E+00 -0.00000000000E+00 -0.10769460454E+04  0.10769460454E+04  0.00000000000E+00 0. -1.
         25    2    1    2    0    0 -0.33286538346E+02 -0.41297591504E+02  0.30009605086E+02  0.13906609422E+03  0.12500126985E+03 0.  0.
          2    1    1    2  501    0 -0.50154422404E+01  0.33814086557E+02 -0.10217194762E+04  0.10222911695E+04  0.00000000000E+00 0. -1.
          1    1    1    2  502    0  0.38301980587E+02  0.74835049465E+01  0.92269423759E+03  0.92351919344E+03  0.00000000000E+00 0. -1.
         22    1    3    3    0    0 -0.22246193989E+02 -0.79887612979E+02  0.47180527910E+02  0.95409255675E+02  0.00000000000E+00 0. -1.
         22    1    3    3    0    0 -0.11040344357E+02  0.38590021476E+02 -0.17170922825E+02  0.43656838544E+02  0.00000000000E+00 0. -1.
</event>
<event>
 7    1  0.6089676E-006  0.9775338E+02  0.7818608E-02  0.1369469E+00
          2   -1    0    0  502    0  0.00000000000E+00  0.00000000000E+00  0.78183507146E+03  0.78183507146E+03  0.00000000000E+00 0. -1.
          1   -1    0    0  501    0 -0.00000000000E+00 -0.00000000000E+00 -0.48119120684E+02  0.48119120684E+02  0.00000000000E+00 0. -1.
         25    2    1    2    0    0 -0.89387738851E+02  0.24332192619E+02  0.36203328866E+03  0.39405025081E+03  0.12500109844E+03 0.  0.
          2    1    1    2  501    0 -0.11640910549E+02 -0.44868894790E+02 -0.38146856099E+01  0.46511077653E+02  0.00000000000E+00 0. -1.
          1    1    1    2  502    0  0.10102864940E+03  0.20536702171E+02  0.37549734772E+03  0.38939286368E+03  0.00000000000E+00 0. -1.
         22    1    3    3    0    0 -0.77868659296E+02  0.24951882127E+02  0.89330266936E+02  0.12110334889E+03  0.00000000000E+00 0.  1.
         22    1    3    3    0    0 -0.11519079555E+02 -0.61968950809E+00  0.27270302173E+03  0.27294690192E+03  0.00000000000E+00 0.  1.
</event>
<event>
 7    1  0.6089676E-006  0.1209179E+03  0.7818608E-02  0.1403271E+00
          2   -1    0    0  502    0  0.00000000000E+00  0.00000000000E+00  0.16392478925E+04  0.16392478925E+04  0.00000000000E+00 0. -1.
          1   -1    0    0  501    0 -0.00000000000E+00 -0.00000000000E+00 -0.75885042273E+03  0.75885042273E+03  0.00000000000E+00 0. -1.
         25    2    1    2    0    0  0.10977492086E+03 -0.51731759608E+02 -0.15754325255E+03  0.23488017266E+03  0.12498844300E+03 0.  0.
          2    1    1    2  501    0 -0.94650658298E+02  0.75909232929E+02 -0.55596863907E+03  0.56905367620E+03  0.00000000000E+00 0. -1.
          1    1    1    2  502    0 -0.15124262565E+02 -0.24177473321E+02  0.15939093614E+04  0.15941644664E+04  0.00000000000E+00 0. -1.
         22    1    3    3    0    0  0.12241691984E+03 -0.15618983614E+01 -0.11314171901E+03  0.16670150081E+03  0.00000000000E+00 0. -1.
         22    1    3    3    0    0 -0.12641998980E+02 -0.50169861246E+02 -0.44401533536E+02  0.68178671856E+02  0.00000000000E+00 0. -1.
</event>
<event>
 7    1  0.6089676E-006  0.1167433E+03  0.7818608E-02  0.1251950E+00
          2   -1    0    0  502    0  0.00000000000E+00  0.00000000000E+00  0.90302990554E+03  0.90302990554E+03  0.00000000000E+00 0. -1.
          1   -1    0    0  501    0 -0.00000000000E+00 -0.00000000000E+00 -0.13189010531E+03  0.13189010531E+03  0.00000000000E+00 0. -1.
         25    2    1    2    0    0 -0.96761605566E+02 -0.84884377401E+01  0.29304055466E+02  0.16099673161E+03  0.12500543203E+03 0.  0.
          2    1    1    2  501    0  0.84529226540E+02  0.12458916181E+03  0.31193014061E+02  0.15375517392E+03  0.00000000000E+00 0. -1.
          1    1    1    2  502    0  0.12232379026E+02 -0.11610072407E+03  0.71064273070E+03  0.72016810532E+03  0.00000000000E+00 0. -1.
         22    1    3    3    0    0 -0.51966357009E+02  0.26401912791E+02 -0.40528447709E+02  0.70993790809E+02  0.00000000000E+00 0. -1.
         22    1    3    3    0    0 -0.44795248557E+02 -0.34890350531E+02  0.69832503174E+02  0.90002940803E+02  0.00000000000E+00 0. -1.
</event>
<event>
 7    1  0.6089676E-006  0.1617908E+03  0.7818608E-02  0.1311503E+00
          2   -1    0    0  502    0  0.00000000000E+00  0.00000000000E+00  0.45438061652E+03  0.45438061652E+03  0.00000000000E+00 0. -1.
          1   -1    0    0  501    0 -0.00000000000E+00 -0.00000000000E+00 -0.16121036494E+03  0.16121036494E+03  0.00000000000E+00 0. -1.
         25    2    1    2    0    0  0.16625402113E+03  0.66953742388E+02  0.16564266540E+03  0.27419497681E+03  0.12498875769E+03 0.  0.
          2    1    1    2  501    0 -0.12796051686E+03 -0.92922602568E+02 -0.43667231168E+02  0.16405892545E+03  0.00000000000E+00 0. -1.
          1    1    1    2  502    0 -0.38293504264E+02  0.25968860180E+02  0.17119481735E+03  0.17733707919E+03  0.00000000000E+00 0. -1.
         22    1    3    3    0    0  0.88553939736E+02  0.73047340692E+02  0.31472592468E+02  0.11903040915E+03  0.00000000000E+00 0.  1.
         22    1    3    3    0    0  0.77700081389E+02 -0.60935983042E+01  0.13417007293E+03  0.15516456766E+03  0.00000000000E+00 0.  1.
</event>
<event>
 7    1  0.6089676E-006  0.5247630E+02  0.7818608E-02  0.1483339E+00
          2   -1    0    0  502    0  0.00000000000E+00  0.00000000000E+00  0.14664734191E+03  0.14664734191E+03  0.00000000000E+00 0. -1.
          1   -1    0    0  501    0 -0.00000000000E+00 -0.00000000000E+00 -0.10240836145E+04  0.10240836145E+04  0.00000000000E+00 0. -1.
         25    2    1    2    0    0  0.13175062843E+02 -0.15671023534E+02 -0.39468619346E+03  0.41451328454E+03  0.12499963396E+03 0.  0.
          2    1    1    2  501    0 -0.35760525586E+02  0.43972626225E+02 -0.61576220330E+03  0.61836518180E+03  0.00000000000E+00 0. -1.
          1    1    1    2  502    0  0.22585462743E+02 -0.28301602691E+02  0.13301212417E+03  0.13785249007E+03  0.00000000000E+00 0. -1.
         22    1    3    3    0    0  0.64101992504E+02  0.13189132895E+02 -0.25025886310E+03  0.25867453920E+03  0.00000000000E+00 0. -1.
         22    1    3    3    0    0 -0.50926929661E+02 -0.28860156430E+02 -0.14442733036E+03  0.15583874534E+03  0.00000000000E+00 0. -1.
</event>
<event>
 7    1  0.6089676E-006  0.9053641E+02  0.7818608E-02  0.1337665E+00
          2   -1    0    0  502    0  0.00000000000E+00  0.00000000000E+00  0.20186281500E+04  0.20186281500E+04  0.00000000000E+00 0. -1.
          1   -1    0    0  501    0 -0.00000000000E+00 -0.00000000000E+00 -0.30341877602E+02  0.30341877602E+02  0.00000000000E+00 0. -1.
         25    2    1    2    0    0  0.52679896309E+02 -0.12550090727E+03  0.48314377248E+03  0.51727941120E+03  0.12499774062E+03 0.  0.
          2    1    1    2  501    0 -0.53190141579E+02  0.59946008804E+02  0.11594218311E+03  0.14094433283E+03  0.00000000000E+00 0. -1.
          1    1    1    2  502    0  0.51024527039E+00  0.65554898463E+02  0.13892003169E+04  0.13907462836E+04  0.00000000000E+00 0. -1.
         22    1    3    3    0    0  0.61511197282E+02 -0.14518938964E+03  0.37165273973E+03  0.40371938918E+03  0.00000000000E+00 0. -1.
         22    1    3    3    0    0 -0.88313009735E+01  0.19688482374E+02  0.11149103275E+03  0.11356002201E+03  0.00000000000E+00 0. -1.
</event>
<event>
 7    1  0.6089676E-006  0.2335425E+03  0.7818608E-02  0.1247055E+00
          2   -1    0    0  502    0  0.00000000000E+00  0.00000000000E+00  0.90908061158E+03  0.90908061158E+03  0.00000000000E+00 0. -1.
          1   -1    0    0  501    0 -0.00000000000E+00 -0.00000000000E+00 -0.76248301299E+03  0.76248301299E+03  0.00000000000E+00 0. -1.
         25    2    1    2    0    0  0.51672564057E+01 -0.19811626923E+03  0.24987283182E+03  0.34254491958E+03  0.12499533262E+03 0.  0.
          2    1    1    2  501    0 -0.21133442642E+02 -0.55352655534E+02 -0.68850875533E+03  0.69105343139E+03  0.00000000000E+00 0. -1.
          1    1    1    2  502    0  0.15966186237E+02  0.25346892476E+03  0.58523352209E+03  0.63796527359E+03  0.00000000000E+00 0. -1.
         22    1    3    3    0    0 -0.38120892003E+02 -0.10629724595E+02  0.62444764872E+02  0.73929304826E+02  0.00000000000E+00 0.  1.
         22    1    3    3    0    0  0.43288148409E+02 -0.18748654463E+03  0.18742806695E+03  0.26861561476E+03  0.00000000000E+00 0.  1.
</event>
<event>
 7    1  0.6089676E-006  0.6169768E+02  0.7818608E-02  0.1458283E+00
          2   -1    0    0  502    0  0.00000000000E+00  0.00000000000E+00  0.72632894222E+03  0.72632894222E+03  0.00000000000E+00 0. -1.
          1   -1    0    0  501    0 -0.00000000000E+00 -0.00000000000E+00 -0.59803060350E+03  0.59803060350E+03  0.00000000000E+00 0. -1.
         25    2    1    2    0    0 -0.51703426327E+02  0.57868131502E+02  0.41657072746E+02  0.15291006003E+03  0.12499683921E+03 0.  0.
          2    1    1    2  501    0  0.14906699435E+02 -0.59737260939E+02 -0.54011415790E+03  0.54361204328E+03  0.00000000000E+00 0. -1.
          1    1    1    2  502    0  0.36796726892E+02  0.18691294369E+01  0.62675542386E+03  0.62783744242E+03  0.00000000000E+00 0. -1.
         22    1    3    3    0    0 -0.81948512187E+02  0.71775897184E+02  0.47963080051E+02  0.11902854748E+03  0.00000000000E+00 0.  1.
         22    1    3    3    0    0  0.30245085860E+02 -0.13907765681E+02 -0.63060073052E+01  0.33881512556E+02  0.00000000000E+00 0.  1.
</event>
<event>
 7    1  0.8312313E-006  0.7897630E+02  0.7818608E-02  0.1388516E+00
          2   -1    0    0  502    0  0.00000000000E+00  0.00000000000E+00  0.29365163808E+04  0.29365163808E+04  0.00000000000E+00 0. -1.
          1   -1    0    0  501    0 -0.00000000000E+00 -0.00000000000E+00 -0.43066296970E+03  0.43066296970E+03  0.00000000000E+00 0. -1.
         25    2    1    2    0    0 -0.23735879101E+02 -0.10780899970E+03 -0.19534071269E+03  0.25684367493E+03  0.12499802776E+03 0.  0.
          2    1    1    2  501    0 -0.22341506211E+02  0.43733069989E+02 -0.20107927855E+03  0.20698937309E+03  0.00000000000E+00 0. -1.
          1    1    1    2  502    0  0.46077385313E+02  0.64075929715E+02  0.29022734024E+04  0.29033463025E+04  0.00000000000E+00 0. -1.
         22    1    3    3    0    0  0.45672246219E+01  0.90789080485E+01  0.12867673995E+02  0.16397046873E+02  0.00000000000E+00 0. -1.
         22    1    3    3    0    0 -0.28303103723E+02 -0.11688790775E+03 -0.20820838669E+03  0.24044662806E+03  0.00000000000E+00 0. -1.
</event>
<event>
 7    1  0.6089676E-006  0.1488807E+03  0.7818608E-02  0.1420054E+00
          2   -1    0    0  502    0  0.00000000000E+00  0.00000000000E+00  0.51140207869E+03  0.51140207869E+03  0.00000000000E+00 0. -1.
          1   -1    0    0  501    0 -0.00000000000E+00 -0.00000000000E+00 -0.19674939197E+04  0.19674939197E+04  0.00000000000E+00 0. -1.
         25    2    1    2    0    0 -0.16792185526E+03  0.13486188808E+02  0.50671576067E+02  0.21581219173E+03  0.12501066641E+03 0.  0.
          2    1    1    2  501    0  0.14767021372E+03 -0.15215076823E+02 -0.18817250179E+04  0.18875717294E+04  0.00000000000E+00 0. -1.
          1    1    1    2  502    0  0.20251641548E+02  0.17288880151E+01  0.37496160085E+03  0.37551207724E+03  0.00000000000E+00 0. -1.
         22    1    3    3    0    0 -0.95196976823E+02 -0.25336259432E+02 -0.27423092790E+02  0.10225662060E+03  0.00000000000E+00 0.  1.
         22    1    3    3    0    0 -0.72724878441E+02  0.38822448241E+02  0.78094668857E+02  0.11355557113E+03  0.00000000000E+00 0.  1.
</event>
<event>
 7    1  0.6089676E-006  0.5034390E+02  0.7818608E-02  0.1482349E+00
          2   -1    0    0  502    0  0.00000000000E+00  0.00000000000E+00  0.95145046771E+02  0.95145046771E+02  0.00000000000E+00 0. -1.
          1   -1    0    0  501    0 -0.00000000000E+00 -0.00000000000E+00 -0.62523217990E+03  0.62523217990E+03  0.00000000000E+00 0. -1.
         25    2    1    2    0    0  0.86878385553E+02  0.28992152993E+01 -0.20673373970E+03  0.25674838149E+03  0.12499853176E+03 0.  0.
          2    1    1    2  501    0 -0.38005330085E+02  0.29601572978E+00 -0.38388649368E+03  0.38576331185E+03  0.00000000000E+00 0. -1.
          1    1    1    2  502    0 -0.48873055468E+02 -0.31952310291E+01  0.60533100260E+02  0.77865533320E+02  0.00000000000E+00 0. -1.
         22    1    3    3    0    0  0.38626042657E+02  0.50153923216E+02 -0.16651640706E+03  0.17814348432E+03  0.00000000000E+00 0. -1.
         22    1    3    3    0    0  0.48252342896E+02 -0.47254707917E+02 -0.40217332646E+02  0.78604897179E+02  0.00000000000E+00 0. -1.
</event>
<event>
 7    1  0.6089676E-006  0.4958737E+02  0.7818608E-02  0.1492129E+00
          2   -1    0    0  502    0  0.00000000000E+00  0.00000000000E+00  0.15429908525E+03  0.15429908525E+03  0.00000000000E+00 0. -1.
          1   -1    0    0  501    0 -0.00000000000E+00 -0.00000000000E+00 -0.41881620043E+03  0.41881620043E+03  0.00000000000E+00 0. -1.
         25    2    1    2    0    0 -0.53238184046E+01  0.18284327028E+02  0.49345821159E+02  0.13573153294E+03  0.12500151724E+03 0.  0.
          2    1    1    2  501    0 -0.15335896863E+02 -0.47809377280E+02 -0.36851561622E+03  0.37192026791E+03  0.00000000000E+00 0. -1.
          1    1    1    2  502    0  0.20659715267E+02  0.29525050252E+02  0.54652679881E+02  0.65463484826E+02  0.00000000000E+00 0. -1.
         22    1    3    3    0    0  0.39033695839E+02 -0.22167112915E+02  0.59822841734E+02  0.74791595109E+02  0.00000000000E+00 0.  1.
         22    1    3    3    0    0 -0.44357514244E+02  0.40451439943E+02 -0.10477020575E+02  0.60939937836E+02  0.00000000000E+00 0.  1.
</event>
<event>
 7    1  0.6089676E-006  0.5570883E+02  0.7818608E-02  0.1447998E+00
          2   -1    0    0  502    0  0.00000000000E+00  0.00000000000E+00  0.11006916051E+04  0.11006916051E+04  0.00000000000E+00 0. -1.
          1   -1    0    0  501    0 -0.00000000000E+00 -0.00000000000E+00 -0.39507208045E+03  0.39507208045E+03  0.00000000000E+00 0. -1.
         25    2    1    2    0    0 -0.16330665206E+02  0.24249581713E+02 -0.78660018706E+02  0.15055600787E+03  0.12499992049E+03 0.  0.
          2    1    1    2  501    0  0.57900072876E+02 -0.98207267251E+01 -0.27692887590E+03  0.28308738478E+03  0.00000000000E+00 0. -1.
          1    1    1    2  502    0 -0.41569407670E+02 -0.14428854988E+02  0.10612084193E+04  0.10621202929E+04  0.00000000000E+00 0. -1.
         22    1    3    3    0    0  0.39905325880E+02  0.46627118623E+02 -0.15968332009E+02  0.63415383400E+02  0.00000000000E+00 0.  1.
         22    1    3    3    0    0 -0.56235991086E+02 -0.22377536909E+02 -0.62691686697E+02  0.87140624467E+02  0.00000000000E+00 0.  1.
</event>
<event>
 7    1  0.6089676E-006  0.4889445E+02  0.7818608E-02  0.1528836E+00
          2   -1    0    0  502    0  0.00000000000E+00  0.00000000000E+00  0.22698723657E+04  0.22698723657E+04  0.00000000000E+00 0. -1.
          1   -1    0    0  501    0 -0.00000000000E+00 -0.00000000000E+00 -0.28348822027E+02  0.28348822027E+02  0.00000000000E+00 0. -1.
         25    2    1    2    0    0  0.61739908434E+02 -0.37523044285E+02  0.12903573653E+04  0.12984096186E+04  0.12500244937E+03 0.  0.
          2    1    1    2  501    0 -0.33332024013E+02  0.35232827672E+02  0.28374685986E+00  0.48502128642E+02  0.00000000000E+00 0. -1.
          1    1    1    2  502    0 -0.28407884421E+02  0.22902166136E+01  0.95088243150E+03  0.95130944047E+03  0.00000000000E+00 0. -1.
         22    1    3    3    0    0  0.90033650515E+02 -0.18407943475E+02  0.58026010826E+03  0.58749187555E+03  0.00000000000E+00 0.  1.
         22    1    3    3    0    0 -0.28293742081E+02 -0.19115100811E+02  0.71009725707E+03  0.71091774307E+03  0.00000000000E+00 0.  1.
</event>
<event>
 7    1  0.6089676E-006  0.4627123E+02  0.7818608E-02  0.1524434E+00
          2   -1    0    0  502    0  0.00000000000E+00  0.00000000000E+00  0.33571673278E+03  0.33571673278E+03  0.00000000000E+00 0. -1.
          1   -1    0    0  501    0 -0.00000000000E+00 -0.00000000000E+00 -0.32848339421E+03  0.32848339421E+03  0.00000000000E+00 0. -1.
         25    2    1    2    0    0 -0.12262367526E+02 -0.44583771049E+02  0.67863004023E+01  0.13345230860E+03  0.12500154599E+03 0.  0.
          2    1    1    2  501    0  0.30949218501E+02  0.18979383682E+01 -0.26218598126E+03  0.26401315321E+03  0.00000000000E+00 0. -1.
          1    1    1    2  502    0 -0.18686850976E+02  0.42685832681E+02  0.26263301943E+03  0.26673466518E+03  0.00000000000E+00 0. -1.
         22    1    3    3    0    0 -0.89248384384E+01 -0.32827426040E+02 -0.58153276788E+02  0.67372815310E+02  0.00000000000E+00 0. -1.
         22    1    3    3    0    0 -0.33375290872E+01 -0.11756345009E+02  0.64939577191E+02  0.66079493295E+02  0.00000000000E+00 0. -1.
</event>
<event>
 7    1  0.6089676E-006  0.1033099E+03  0.7818608E-02  0.1358559E+00
          2   -1    0    0  502    0  0.00000000000E+00  0.00000000000E+00  0.30501353183E+04  0.30501353183E+04  0.00000000000E+00 0. -1.
          1   -1    0    0  501    0 -0.00000000000E+00 -0.00000000000E+00 -0.15942847513E+04  0.15942847513E+04  0.00000000000E+00 0. -1.
         25    2    1    2    0    0  0.26197117276E+02  0.12544352762E+03 -0.62522225763E+02  0.18962543440E+03  0.12500563620E+03 0.  0.
          2    1    1    2  501    0  0.15542096393E+02 -0.10164681240E+03 -0.14662169050E+04  0.14698182350E+04  0.00000000000E+00 0. -1.
          1    1    1    2  502    0 -0.41739213669E+02 -0.23796715216E+02  0.29845896978E+04  0.29849764003E+04  0.00000000000E+00 0. -1.
         22    1    3    3    0    0  0.41343714925E+02  0.14502818461E+03 -0.66014474149E+02  0.16462195447E+03  0.00000000000E+00 0. -1.
         22    1    3    3    0    0 -0.15146597649E+02 -0.19584656995E+02  0.34922483863E+01  0.25003479933E+02  0.00000000000E+00 0. -1.
</event>
<event>
 7    1  0.6089676E-006  0.4420236E+02  0.7818608E-02  0.1537533E+00
          2   -1    0    0  502    0  0.00000000000E+00  0.00000000000E+00  0.98400132952E+03  0.98400132952E+03  0.00000000000E+00 0. -1.
          1   -1    0    0  501    0 -0.00000000000E+00 -0.00000000000E+00 -0.13966684627E+04  0.13966684627E+04  0.00000000000E+00 0. -1.
         25    2    1    2    0    0 -0.43168530992E+02  0.50068253329E+02  0.38024224677E+02  0.14643153336E+03  0.12500400089E+03 0.  0.
          2    1    1    2  501    0  0.42572379206E+01 -0.29468978122E+02 -0.13417561275E+04  0.13420864542E+04  0.00000000000E+00 0. -1.
          1    1    1    2  502    0  0.38911293071E+02 -0.20599275207E+02  0.89106476967E+03  0.89215180469E+03  0.00000000000E+00 0. -1.
         22    1    3    3    0    0  0.28137443673E+02  0.62928862318E+02  0.17338158059E+02  0.71080019513E+02  0.00000000000E+00 0.  1.
         22    1    3    3    0    0 -0.71305974665E+02 -0.12860608989E+02  0.20686066618E+02  0.75351513844E+02  0.00000000000E+00 0.  1.
</event>
<event>
 7    1  0.6089676E-006  0.1019761E+03  0.7818608E-02  0.1357656E+00
          2   -1    0    0  502    0  0.00000000000E+00  0.00000000000E+00  0.45421642791E+03  0.45421642791E+03  0.00000000000E+00 0. -1.
          1   -1    0    0  501    0 -0.00000000000E+00 -0.00000000000E+00 -0.13451361230E+04  0.13451361230E+04  0.00000000000E+00 0. -1.
         25    2    1    2    0    0  0.51981364674E+02  0.13979715212E+03  0.14682499353E+03  0.24377423496E+03  0.12499197131E+03 0.  0.
          2    1    1    2  501    0 -0.26230950072E+02 -0.98054143997E+02 -0.12923308169E+04  0.12963107722E+04  0.00000000000E+00 0. -1.
          1    1    1    2  502    0 -0.25750414602E+02 -0.41743008127E+02  0.25458612821E+03  0.25926754378E+03  0.00000000000E+00 0. -1.
         22    1    3    3    0    0  0.86339227976E+02  0.13029837160E+03  0.13402182861E+03  0.20589798074E+03  0.00000000000E+00 0. -1.
         22    1    3    3    0    0 -0.34357863302E+02  0.94987805258E+01  0.12803164920E+02  0.37876254225E+02  0.00000000000E+00 0. -1.
</event>
<event>
 7    1  0.6089676E-006  0.1258402E+03  0.7818608E-02  0.1361265E+00
          2   -1    0    0  502    0  0.00000000000E+00  0.00000000000E+00  0.17526193403E+04  0.17526193403E+04  0.00000000000E+00 0. -1.
          1   -1    0    0  501    0 -0.00000000000E+00 -0.00000000000E+00 -0.12367817271E+04  0.12367817271E+04  0.00000000000E+00 0. -1.
         25    2    1    2    0    0 -0.13022623432E+03 -0.22371257420E+02 -0.55207982681E+03  0.58127148693E+03  0.12500024432E+03 0.  0.
          2    1    1    2  501    0  0.12396028589E+03 -0.15673199637E+02 -0.66406526746E+03  0.67571775255E+03  0.00000000000E+00 0. -1.
          1    1    1    2  502    0  0.62659484332E+01  0.38044457057E+02  0.17319827074E+04  0.17324118279E+04  0.00000000000E+00 0. -1.
         22    1    3    3    0    0 -0.87450147400E+02 -0.73666416526E+02 -0.37348547246E+03  0.39059655316E+03  0.00000000000E+00 0. -1.
         22    1    3    3    0    0 -0.42776086919E+02  0.51295159106E+02 -0.17859435435E+03  0.19067493377E+03  0.00000000000E+00 0. -1.
</event>
<event>
 7    1  0.6089676E-006  0.9905787E+02  0.7818608E-02  0.1336672E+00
          2   -1    0    0  502    0  0.00000000000E+00  0.00000000000E+00  0.13043439622E+04  0.13043439622E+04  0.00000000000E+00 0. -1.
          1   -1    0    0  501    0 -0.00000000000E+00 -0.00000000000E+00 -0.57328653839E+02  0.57328653839E+02  0.00000000000E+00 0. -1.
         25    2    1    2    0    0  0.43917556609E+02 -0.12433899003E+03  0.10740318889E+04  0.10892925914E+04  0.12499966039E+03 0.  0.
          2    1    1    2  501    0 -0.24146866266E+02  0.55403890919E+02 -0.22241568621E+02  0.64399919675E+02  0.00000000000E+00 0. -1.
          1    1    1    2  502    0 -0.19770690343E+02  0.68935099115E+02  0.19522498809E+03  0.20798010496E+03  0.00000000000E+00 0. -1.
         22    1    3    3    0    0  0.38674802631E+02 -0.11777198281E+03  0.49787922585E+03  0.51307865267E+03  0.00000000000E+00 0. -1.
         22    1    3    3    0    0  0.52427539780E+01 -0.65670072229E+01  0.57615266303E+03  0.57621393871E+03  0.00000000000E+00 0. -1.
</event>
<event>
 7    1  0.6089676E-006  0.8082482E+02  0.7818608E-02  0.1355786E+00
          2   -1    0    0  502    0  0.00000000000E+00  0.00000000000E+00  0.77230283263E+03  0.77230283263E+03  0.00000000000E+00 0. -1.
          1   -1    0    0  501    0 -0.00000000000E+00 -0.00000000000E+00 -0.73796944208E+03  0.73796944208E+03  0.00000000000E+00 0. -1.
         25    2    1    2    0    0 -0.81783404715E+01  0.13956076570E+03  0.55441102285E+02  0.19555169322E+03  0.12499062493E+03 0.  0.
          2    1    1    2  501    0 -0.93653097273E+01 -0.79191703291E+02 -0.66399524729E+03  0.66876656864E+03  0.00000000000E+00 0. -1.
          1    1    1    2  502    0  0.17543650199E+02 -0.60369062412E+02  0.64288753555E+03  0.64595401286E+03  0.00000000000E+00 0. -1.
         22    1    3    3    0    0 -0.60899950362E+02  0.10707939328E+03  0.21868211658E+02  0.12511202620E+03  0.00000000000E+00 0. -1.
         22    1    3    3    0    0  0.52721609890E+02  0.32481372420E+02  0.33572890627E+02  0.70439667011E+02  0.00000000000E+00 0. -1.
</event>
<event>
 7    1  0.6089676E-006  0.3959274E+02  0.7818608E-02  0.1533825E+00
          2   -1    0    0  502    0  0.00000000000E+00  0.00000000000E+00  0.40597775127E+02  0.40597775127E+02  0.00000000000E+00 0. -1.
          1   -1    0    0  501    0 -0.00000000000E+00 -0.00000000000E+00 -0.28480831597E+04  0.28480831597E+04  0.00000000000E+00 0. -1.
         25    2    1    2    0    0  0.35645044146E+02  0.11506248649E+02 -0.13531274450E+04  0.13594055234E+04  0.12500612627E+03 0.  0.
          2    1    1    2  501    0 -0.14593327912E+02 -0.38279074160E+02 -0.14837335016E+04  0.14842989444E+04  0.00000000000E+00 0. -1.
          1    1    1    2  502    0 -0.21051716233E+02  0.26772825511E+02  0.29375562014E+02  0.44976467023E+02  0.00000000000E+00 0. -1.
         22    1    3    3    0    0  0.21909363708E+01 -0.55526035347E+02 -0.58507689789E+03  0.58770989208E+03  0.00000000000E+00 0. -1.
         22    1    3    3    0    0  0.33454107775E+02  0.67032283995E+02 -0.76805054714E+03  0.77169563131E+03  0.00000000000E+00 0. -1.
</event>
<event>
 7    1  0.6089676E-006  0.5608244E+02  0.7818608E-02  0.1473492E+00
          2   -1    0    0  502    0  0.00000000000E+00  0.00000000000E+00  0.19468429271E+04  0.19468429271E+04  0.00000000000E+00 0. -1.
          1   -1    0    0  501    0 -0.00000000000E+00 -0.00000000000E+00 -0.52855426762E+02  0.52855426762E+02  0.00000000000E+00 0. -1.
         25    2    1    2    0    0  0.37085803476E+02 -0.37296283707E+02  0.40393587455E+03  0.42609446058E+03  0.12500371590E+03 0.  0.
          2    1    1    2  501    0 -0.56385246953E+02  0.65203713156E+01 -0.22176594357E+02  0.60939417895E+02  0.00000000000E+00 0. -1.
          1    1    1    2  502    0  0.19299443478E+02  0.30775912391E+02  0.15122282202E+04  0.15126644754E+04  0.00000000000E+00 0. -1.
         22    1    3    3    0    0  0.28977751564E+02 -0.83607079867E+02  0.27208254913E+03  0.28610971223E+03  0.00000000000E+00 0.  1.
         22    1    3    3    0    0  0.81080519119E+01  0.46310796160E+02  0.13185332542E+03  0.13998474835E+03  0.00000000000E+00 0.  1.
</event>
<event>
 7    1  0.6089676E-006  0.8202694E+02  0.7818608E-02  0.1408692E+00
          2   -1    0    0  502    0  0.00000000000E+00  0.00000000000E+00  0.16873612674E+04  0.16873612674E+04  0.00000000000E+00 0. -1.
          1   -1    0    0  501    0 -0.00000000000E+00 -0.00000000000E+00 -0.64831063072E+03  0.64831063072E+03  0.00000000000E+00 0. -1.
         25    2    1    2    0    0  0.56391054542E+01 -0.12022585073E+03 -0.39835224813E+02  0.17803822250E+03  0.12499883536E+03 0.  0.
          2    1    1    2  501    0 -0.77771535613E+01  0.79994333976E+02 -0.53612727548E+03  0.54211809885E+03  0.00000000000E+00 0. -1.
          1    1    1    2  502    0  0.21380481071E+01  0.40231516755E+02  0.16150131369E+04  0.16155155767E+04  0.00000000000E+00 0. -1.
         22    1    3    3    0    0  0.57116289873E+02 -0.19620533456E+02 -0.17060920835E+02  0.62755963236E+02  0.00000000000E+00 0.  1.
         22    1    3    3    0    0 -0.51477184418E+02 -0.10060531727E+03 -0.22774303978E+02  0.11528225927E+03  0.00000000000E+00 0.  1.
</event>
<event>
 7    1  0.6089676E-006  0.1131877E+03  0.7818608E-02  0.1268472E+00
          2   -1    0    0  502    0  0.00000000000E+00  0.00000000000E+00  0.15804324106E+04  0.15804324106E+04  0.00000000000E+00 0. -1.
          1   -1    0    0  501    0 -0.00000000000E+00 -0.00000000000E+00 -0.51773280947E+03  0.51773280947E+03  0.00000000000E+00 0. -1.
         25    2    1    2    0    0 -0.90434386445E+02  0.18599638781E+03  0.18370284575E+03  0.30355216438E+03  0.12499658569E+03 0.  0.
          2    1    1    2  501    0  0.63214269860E+02 -0.90842109085E+02 -0.44925147753E+03  0.46268263719E+03  0.00000000000E+00 0. -1.
          1    1    1    2  502    0  0.27220116585E+02 -0.95154278721E+02  0.13282482329E+04  0.13319304185E+04  0.00000000000E+00 0. -1.
         22    1    3    3    0    0 -0.10091457572E+03  0.18601117753E+03  0.12896977958E+03  0.24782476431E+03  0.00000000000E+00 0. -1.
         22    1    3    3    0    0  0.10480189276E+02 -0.14789725101E-01  0.54733066177E+02  0.55727400075E+02  0.00000000000E+00 0. -1.
</event>
<event>
 7    1  0.6089676E-006  0.4826123E+02  0.7818608E-02  0.1478851E+00
          2   -1    0    0  502    0  0.00000000000E+00  0.00000000000E+00  0.68684709330E+03  0.68684709330E+03  0.00000000000E+00 0. -1.
          1   -1    0    0  501    0 -0.00000000000E+00 -0.00000000000E+00 -0.11187441067E+03  0.11187441067E+03  0.00000000000E+00 0. -1.
         25    2    1    2    0    0 -0.13484573221E+01  0.88312098222E+02 -0.16381482751E+02  0.15392307751E+03  0.12499246290E+03 0.  0.
          2    1    1    2  501    0  0.30174986593E+01 -0.40525450358E+02 -0.97537079482E+01  0.41791772439E+02  0.00000000000E+00 0. -1.
          1    1    1    2  502    0 -0.16690413372E+01 -0.47786647864E+02  0.60110787334E+03  0.60300665403E+03  0.00000000000E+00 0. -1.
         22    1    3    3    0    0  0.57847917177E+02  0.70486715816E+02 -0.11523197670E+02  0.91910514702E+02  0.00000000000E+00 0. -1.
         22    1    3    3    0    0 -0.59196374499E+02  0.17825382406E+02 -0.48582850809E+01  0.62012562805E+02  0.00000000000E+00 0. -1.
</event>
<event>
 7    1  0.6089676E-006  0.7988853E+02  0.7818608E-02  0.1390776E+00
          2   -1    0    0  502    0  0.00000000000E+00  0.00000000000E+00  0.11592325231E+04  0.11592325231E+04  0.00000000000E+00 0. -1.
          1   -1    0    0  501    0 -0.00000000000E+00 -0.00000000000E+00 -0.72818739254E+03  0.72818739254E+03  0.00000000000E+00 0. -1.
         25    2    1    2    0    0  0.35067539515E+02  0.91863455450E+02  0.20842894879E+02  0.16039848557E+03  0.12499848452E+03 0.  0.
          2    1    1    2  501    0 -0.60698443835E+02 -0.51665258768E+02 -0.65546223193E+03  0.66029110061E+03  0.00000000000E+00 0. -1.
          1    1    1    2  502    0  0.25630904321E+02 -0.40198196683E+02  0.10656644676E+04  0.10667303294E+04  0.00000000000E+00 0. -1.
         22    1    3    3    0    0 -0.57939327607E+01  0.92196915179E+02 -0.28177147166E+02  0.96580497243E+02  0.00000000000E+00 0. -1.
         22    1    3    3    0    0  0.40861472276E+02 -0.33345972878E+00  0.49020042045E+02  0.63817988326E+02  0.00000000000E+00 0. -1.
</event>
<event>
 7    1  0.6089676E-006  0.1661009E+03  0.7818608E-02  0.1404661E+00
          2   -1    0    0  502    0  0.00000000000E+00  0.00000000000E+00  0.11197147981E+04  0.11197147981E+04  0.00000000000E+00 0. -1.
          1   -1    0    0  501    0 -0.00000000000E+00 -0.00000000000E+00 -0.17291544773E+04  0.17291544773E+04  0.00000000000E+00 0. -1.
         25    2    1    2    0    0  0.16577997484E+03  0.17890075212E+02  0.30650720356E+03  0.37064104415E+03  0.12500025170E+03 0.  0.
          2    1    1    2  501    0 -0.16169962566E+03 -0.38015443483E+02 -0.16928869676E+04  0.17010168218E+04  0.00000000000E+00 0. -1.
          1    1    1    2  502    0 -0.40803491878E+01  0.20125368270E+02  0.77694008479E+03  0.77721140950E+03  0.00000000000E+00 0. -1.
         22    1    3    3    0    0  0.44548046143E+02 -0.45741324323E+02  0.54960345334E+02  0.84246286121E+02  0.00000000000E+00 0.  1.
         22    1    3    3    0    0  0.12123192870E+03  0.63631399535E+02  0.25154685822E+03  0.28639475803E+03  0.00000000000E+00 0.  1.
</event>
<event>
 7    1  0.6089676E-006  0.2283125E+03  0.7818608E-02  0.1292740E+00
          2   -1    0    0  502    0  0.00000000000E+00  0.00000000000E+00  0.63917471804E+03  0.63917471804E+03  0.00000000000E+00 0. -1.
          1   -1    0    0  501    0 -0.00000000000E+00 -0.00000000000E+00 -0.19950142616E+03  0.19950142616E+03  0.00000000000E+00 0. -1.
         25    2    1    2    0    0  0.23918006326E+03  0.57185040293E+02  0.29206676458E+03  0.40175302223E+03  0.12500105763E+03 0.  0.
          2    1    1    2  501    0 -0.24993453979E+02 -0.29881475619E+02 -0.10063782747E+03  0.10791453861E+03  0.00000000000E+00 0. -1.
          1    1    1    2  502    0 -0.21418660928E+03 -0.27303564674E+02  0.24824435477E+03  0.32900858335E+03  0.00000000000E+00 0. -1.
         22    1    3    3    0    0  0.92672516539E+02  0.68304596093E+02  0.67691532399E+02  0.13355095180E+03  0.00000000000E+00 0.  1.
         22    1    3    3    0    0  0.14650754672E+03 -0.11119555800E+02  0.22437523218E+03  0.26820207043E+03  0.00000000000E+00 0.  1.
</event>
<event>
 7    1  0.6089676E-006  0.7021712E+02  0.7818608E-02  0.1388380E+00
          2   -1    0    0  502    0  0.00000000000E+00  0.00000000000E+00  0.20708753726E+04  0.20708753726E+04  0.00000000000E+00 0. -1.
          1   -1    0    0  501    0 -0.00000000000E+00 -0.00000000000E+00 -0.30347364060E+03  0.30347364060E+03  0.00000000000E+00 0. -1.
         25    2    1    2    0    0  0.87174707021E+02 -0.59039929160E+02  0.69324664607E+02  0.17751287696E+03  0.12497907659E+03 0.  0.
          2    1    1    2  501    0 -0.31934697469E+02  0.61522818902E+02 -0.24416159542E+03  0.25381049393E+03  0.00000000000E+00 0. -1.
          1    1    1    2  502    0 -0.55240009552E+02 -0.24828897413E+01  0.19422386629E+04  0.19430256424E+04  0.00000000000E+00 0. -1.
         22    1    3    3    0    0  0.86336351824E+01 -0.72750498188E+02  0.22065006496E+01  0.73294224112E+02  0.00000000000E+00 0.  1.
         22    1    3    3    0    0  0.78541071838E+02  0.13710569027E+02  0.67118163957E+02  0.10421865285E+03  0.00000000000E+00 0.  1.
</event>
<event>
 7    1  0.6089676E-006  0.1843819E+03  0.7818608E-02  0.1285643E+00
          2   -1    0    0  502    0  0.00000000000E+00  0.00000000000E+00  0.20109086303E+03  0.20109086303E+03  0.00000000000E+00 0. -1.
          1   -1    0    0  501    0 -0.00000000000E+00 -0.00000000000E+00 -0.40840512607E+03  0.40840512607E+03  0.00000000000E+00 0. -1.
         25    2    1    2    0    0  0.12265499085E+03 -0.16909429839E+03 -0.40052372184E+02  0.24671934174E+03  0.12501644909E+03 0.  0.
          2    1    1    2  501    0  0.30871324529E+01  0.51464532638E+02 -0.18276199474E+03  0.18989490575E+03  0.00000000000E+00 0. -1.
          1    1    1    2  502    0 -0.12574212330E+03  0.11762976575E+03  0.15500103888E+02  0.17288174161E+03  0.00000000000E+00 0. -1.
         22    1    3    3    0    0 -0.11790073774E+02 -0.43838007019E+02  0.24960949728E+02  0.51805653266E+02  0.00000000000E+00 0.  1.
         22    1    3    3    0    0  0.13444506462E+03 -0.12525629137E+03 -0.65013321912E+02  0.19491368847E+03  0.00000000000E+00 0.  1.
</event>
<event>
 7    1  0.6089676E-006  0.3002820E+03  0.7818608E-02  0.1170467E+00
          2   -1    0    0  502    0  0.00000000000E+00  0.00000000000E+00  0.10568886656E+04  0.10568886656E+04  0.00000000000E+00 0. -1.
          1   -1    0    0  501    0 -0.00000000000E+00 -0.00000000000E+00 -0.46479725770E+03  0.46479725770E+03  0.00000000000E+00 0. -1.
         25    2    1    2    0    0 -0.31541522828E+02 -0.30955597406E+03  0.81855569214E+02  0.34517285335E+03  0.12499678291E+03 0.  0.
          2    1    1    2  501    0  0.12923398277E+03  0.27201861066E+03 -0.26081213451E+03  0.39839492511E+03  0.00000000000E+00 0. -1.
          1    1    1    2  502    0 -0.97692459945E+02  0.37537363397E+02  0.77104797324E+03  0.77811814489E+03  0.00000000000E+00 0. -1.
         22    1    3    3    0    0  0.66167609362E+01  0.10085788530E+02 -0.26590489545E+01  0.12352133294E+02  0.00000000000E+00 0.  1.
         22    1    3    3    0    0 -0.38158283764E+02 -0.31964176259E+03  0.84514618169E+02  0.33282072005E+03  0.00000000000E+00 0.  1.
</event>
<event>
 7    1  0.6089676E-006  0.5662424E+02  0.7818608E-02  0.1486411E+00
          2   -1    0    0  502    0  0.00000000000E+00  0.00000000000E+00  0.50119908506E+03  0.50119908506E+03  0.00000000000E+00 0. -1.
          1   -1    0    0  501    0 -0.00000000000E+00 -0.00000000000E+00 -0.12064598543E+04  0.12064598543E+04  0.00000000000E+00 0. -1.
         25    2    1    2    0    0  0.41249419061E+02 -0.10418074867E+02 -0.98660377552E+02  0.16483105616E+03  0.12500142448E+03 0.  0.
          2    1    1    2  501    0 -0.39898862963E+01 -0.32597691582E+02 -0.10727323000E+04  0.10732348840E+04  0.00000000000E+00 0. -1.
          1    1    1    2  502    0 -0.37259532765E+02  0.43015766449E+02  0.46613190833E+03  0.46959299921E+03  0.00000000000E+00 0. -1.
         22    1    3    3    0    0 -0.27661254138E+02  0.34995048063E+02 -0.14368202480E+02  0.46864097259E+02  0.00000000000E+00 0.  1.
         22    1    3    3    0    0  0.68910673199E+02 -0.45413122930E+02 -0.84292175072E+02  0.11796695891E+03  0.00000000000E+00 0.  1.
</event>
<event>
 7    1  0.6089676E-006  0.7436925E+02  0.7818608E-02  0.1368764E+00
          2   -1    0    0  502    0  0.00000000000E+00  0.00000000000E+00  0.10320982623E+04  0.10320982623E+04  0.00000000000E+00 0. -1.
          1   -1    0    0  501    0 -0.00000000000E+00 -0.00000000000E+00 -0.28196642360E+03  0.28196642360E+03  0.00000000000E+00 0. -1.
         25    2    1    2    0    0  0.87087440545E+02 -0.80590908609E+02  0.32416142908E+03  0.36712710090E+03  0.12499023666E+03 0.  0.
          2    1    1    2  501    0 -0.26949471325E+02  0.68779740208E+02 -0.25383991883E+03  0.26437025373E+03  0.00000000000E+00 0. -1.
          1    1    1    2  502    0 -0.60137969220E+02  0.11811168401E+02  0.67981032842E+03  0.68256733123E+03  0.00000000000E+00 0. -1.
         22    1    3    3    0    0  0.15781939222E+02 -0.47382625840E+01 -0.85106651254E+01  0.18545947234E+02  0.00000000000E+00 0.  1.
         22    1    3    3    0    0  0.71305501323E+02 -0.75852646025E+02  0.33267209420E+03  0.34858115366E+03  0.00000000000E+00 0.  1.
</event>
<event>
 7    1  0.6089676E-006  0.5489876E+02  0.7818608E-02  0.1436430E+00
          2   -1    0    0  502    0  0.00000000000E+00  0.00000000000E+00  0.24413982650E+02  0.24413982650E+02  0.00000000000E+00 0. -1.
          1   -1    0    0  501    0 -0.00000000000E+00 -0.00000000000E+00 -0.12294372176E+04  0.12294372176E+04  0.00000000000E+00 0. -1.
         25    2    1    2    0    0 -0.24005170819E+02  0.26233972946E+02 -0.20408865507E+03  0.24195412089E+03  0.12500059170E+03 0.  0.
          2    1    1    2  501    0 -0.15669520311E+02 -0.54424382893E+02 -0.87582221187E+03  0.87765146506E+03  0.00000000000E+00 0. -1.
          1    1    1    2  502    0  0.39674691130E+02  0.28190409947E+02 -0.12511236800E+03  0.13424561429E+03  0.00000000000E+00 0. -1.
         22    1    3    3    0    0 -0.27103713500E+02  0.49084954980E+02 -0.21064511267E+03  0.21798006235E+03  0.00000000000E+00 0. -1.
         22    1    3    3    0    0  0.30985426808E+01 -0.22850982034E+02  0.65564575973E+01  0.23974058540E+02  0.00000000000E+00 0. -1.
</event>
<event>
 7    1  0.6089676E-006  0.5243431E+02  0.7818608E-02  0.1529321E+00
          2   -1    0    0  502    0  0.00000000000E+00  0.00000000000E+00  0.64935312055E+03  0.64935312055E+03  0.00000000000E+00 0. -1.
          1   -1    0    0  501    0 -0.00000000000E+00 -0.00000000000E+00 -0.71837816852E+03  0.71837816852E+03  0.00000000000E+00 0. -1.
         25    2    1    2    0    0  0.62480872853E+01  0.44838082490E+02  0.46221176423E+02  0.14075247439E+03  0.12500147864E+03 0.  0.
          2    1    1    2  501    0 -0.26181687765E+02  0.40362710060E+01 -0.66959699636E+03  0.67012081731E+03  0.00000000000E+00 0. -1.
          1    1    1    2  502    0  0.19933600479E+02 -0.48874353496E+02  0.55435077196E+03  0.55685799737E+03  0.00000000000E+00 0. -1.
         22    1    3    3    0    0 -0.53187246222E+02 -0.69319403370E+01  0.12826822282E+02  0.55149454461E+02  0.00000000000E+00 0.  1.
         22    1    3    3    0    0  0.59435333507E+02  0.51770022827E+02  0.33394354141E+02  0.85603019930E+02  0.00000000000E+00 0.  1.
</event>
<event>
 7    1  0.6089676E-006  0.8162158E+02  0.7818608E-02  0.1336678E+00
          2   -1    0    0  502    0  0.00000000000E+00  0.00000000000E+00  0.11865252873E+04  0.11865252873E+04  0.00000000000E+00 0. -1.
          1   -1    0    0  501    0 -0.00000000000E+00 -0.00000000000E+00 -0.32621037457E+03  0.32621037457E+03  0.00000000000E+00 0. -1.
         25    2    1    2    0    0 -0.39675398587E+02  0.11001888978E+03 -0.87524302241E+01  0.17141389719E+03  0.12501130251E+03 0.  0.
          2    1    1    2  501    0  0.68398516389E+02 -0.42532782032E+02 -0.22799837666E+03  0.24180706018E+03  0.00000000000E+00 0. -1.
          1    1    1    2  502    0 -0.28723117802E+02 -0.67486107751E+02  0.10970657196E+04  0.10995147045E+04  0.00000000000E+00 0. -1.
         22    1    3    3    0    0 -0.82646076238E+02  0.75672464107E+02  0.11829064566E+02  0.11267929051E+03  0.00000000000E+00 0. -1.
         22    1    3    3    0    0  0.42970677651E+02  0.34346425676E+02 -0.20581494790E+02  0.58734606684E+02  0.00000000000E+00 0. -1.
</event>
<event>
 7    1  0.6089676E-006  0.8305060E+02  0.7818608E-02  0.1370801E+00
          2   -1    0    0  502    0  0.00000000000E+00  0.00000000000E+00  0.57296573731E+03  0.57296573731E+03  0.00000000000E+00 0. -1.
          1   -1    0    0  501    0 -0.00000000000E+00 -0.00000000000E+00 -0.12768089184E+04  0.12768089184E+04  0.00000000000E+00 0. -1.
         25    2    1    2    0    0 -0.45923185123E+02  0.48603148584E+02 -0.37421240051E+03  0.40016794174E+03  0.12501302298E+03 0.  0.
          2    1    1    2  501    0  0.84790165277E+01 -0.87460922481E+02 -0.88614063464E+03  0.89048668213E+03  0.00000000000E+00 0. -1.
          1    1    1    2  502    0  0.37444168596E+02  0.38857773897E+02  0.55650985406E+03  0.55912003185E+03  0.00000000000E+00 0. -1.
         22    1    3    3    0    0 -0.45382597272E+02  0.51664339979E+02 -0.38389151718E+03  0.39000189887E+03  0.00000000000E+00 0.  1.
         22    1    3    3    0    0 -0.54058785124E+00 -0.30611913959E+01  0.96791166718E+01  0.10166042865E+02  0.00000000000E+00 0.  1.
</event>
<event>
 7    1  0.6089676E-006  0.2457218E+03  0.7818608E-02  0.1319179E+00
          2   -1    0    0  502    0  0.00000000000E+00  0.00000000000E+00  0.18753789108E+04  0.18753789108E+04  0.00000000000E+00 0. -1.
          1   -1    0    0  501    0 -0.00000000000E+00 -0.00000000000E+00 -0.27642109222E+03  0.27642109222E+03  0.00000000000E+00 0. -1.
         25    2    1    2    0    0  0.26179930467E+03  0.42275048964E+02  0.10634311561E+04  0.11031033204E+04  0.12500022481E+03 0.  0.
          2    1    1    2  501    0 -0.24387702317E+03 -0.20203864668E+02 -0.19789954758E+03  0.31471960459E+03  0.00000000000E+00 0. -1.
          1    1    1    2  502    0 -0.17922281494E+02 -0.22071184296E+02  0.73342621008E+03  0.73397707797E+03  0.00000000000E+00 0. -1.
         22    1    3    3    0    0  0.27512854348E+03  0.34900065061E+02  0.10219883269E+04  0.10589494182E+04  0.00000000000E+00 0. -1.
         22    1    3    3    0    0 -0.13329238810E+02  0.73749839037E+01  0.41442829168E+02  0.44153902255E+02  0.00000000000E+00 0. -1.
</event>
<event>
 7    1  0.6089676E-006  0.7894210E+02  0.7818608E-02  0.1453116E+00
          2   -1    0    0  502    0  0.00000000000E+00  0.00000000000E+00  0.37019682761E+03  0.37019682761E+03  0.00000000000E+00 0. -1.
          1   -1    0    0  501    0 -0.00000000000E+00 -0.00000000000E+00 -0.28536205733E+03  0.28536205733E+03  0.00000000000E+00 0. -1.
         25    2    1    2    0    0  0.37800926336E+02 -0.42823981462E+02  0.80577873081E+02  0.15931278455E+03  0.12499986509E+03 0.  0.
          2    1    1    2  501    0  0.29294960977E+02 -0.60043122640E+01 -0.23815460811E+03  0.24002471512E+03  0.00000000000E+00 0. -1.
          1    1    1    2  502    0 -0.67095887312E+02  0.48828293726E+02  0.24241150530E+03  0.25622138526E+03  0.00000000000E+00 0. -1.
         22    1    3    3    0    0 -0.32434084178E+02 -0.17099881814E+02 -0.13546055357E+02  0.39087995475E+02  0.00000000000E+00 0.  1.
         22    1    3    3    0    0  0.70235010514E+02 -0.25724099648E+02  0.94123928438E+02  0.12022478908E+03  0.00000000000E+00 0.  1.
</event>
<event>
 7    1  0.6089676E-006  0.7529899E+02  0.7818608E-02  0.1486788E+00
          2   -1    0    0  502    0  0.00000000000E+00  0.00000000000E+00  0.27879967295E+03  0.27879967295E+03  0.00000000000E+00 0. -1.
          1   -1    0    0  501    0 -0.00000000000E+00 -0.00000000000E+00 -0.14102474385E+04  0.14102474385E+04  0.00000000000E+00 0. -1.
         25    2    1    2    0    0  0.50525184595E+02 -0.19251516598E+02  0.35195516359E+02  0.14066590377E+03  0.12499902777E+03 0.  0.
          2    1    1    2  501    0  0.21710566761E+02 -0.11633533754E+02 -0.13493111477E+04  0.13495359429E+04  0.00000000000E+00 0. -1.
          1    1    1    2  502    0 -0.72235751357E+02  0.30885050352E+02  0.18266786583E+03  0.19884526476E+03  0.00000000000E+00 0. -1.
         22    1    3    3    0    0  0.76097981976E+01 -0.24787084183E+02  0.76543447257E+02  0.80815888839E+02  0.00000000000E+00 0. -1.
         22    1    3    3    0    0  0.42915386398E+02  0.55355675850E+01 -0.41347930898E+02  0.59850014935E+02  0.00000000000E+00 0. -1.
</event>
<event>
 7    1  0.6089676E-006  0.8666797E+02  0.7818608E-02  0.1363909E+00
          2   -1    0    0  502    0  0.00000000000E+00  0.00000000000E+00  0.18087872775E+04  0.18087872775E+04  0.00000000000E+00 0. -1.
          1   -1    0    0  501    0 -0.00000000000E+00 -0.00000000000E+00 -0.24724969404E+02  0.24724969404E+02  0.00000000000E+00 0. -1.
         25    2    1    2    0    0 -0.10505659289E+03  0.27831733944E+02  0.56279453971E+03  0.58666387845E+03  0.12500127691E+03 0.  0.
          2    1    1    2  501    0  0.44293527908E+02  0.32196022429E+02  0.55537144231E+02  0.77992787257E+02  0.00000000000E+00 0. -1.
          1    1    1    2  502    0  0.60763064980E+02 -0.60027756373E+02  0.11657306241E+04  0.11688555812E+04  0.00000000000E+00 0. -1.
         22    1    3    3    0    0  0.63132295721E+01  0.39342832199E+02  0.27475091780E+03  0.27762525488E+03  0.00000000000E+00 0.  1.
         22    1    3    3    0    0 -0.11136982246E+03 -0.11511098256E+02  0.28804362191E+03  0.30903862357E+03  0.00000000000E+00 0.  1.
</event>
<event>
 7    1  0.6089676E-006  0.1062734E+03  0.7818608E-02  0.1385963E+00
          2   -1    0    0  502    0  0.00000000000E+00  0.00000000000E+00  0.17376098247E+04  0.17376098247E+04  0.00000000000E+00 0. -1.
          1   -1    0    0  501    0 -0.00000000000E+00 -0.00000000000E+00 -0.13988133058E+04  0.13988133058E+04  0.00000000000E+00 0. -1.
         25    2    1    2    0    0 -0.47397800911E+02  0.13120706220E+03  0.28484564969E+03  0.34091469940E+03  0.12499577358E+03 0.  0.
          2    1    1    2  501    0  0.21507035981E+02 -0.30419554092E+02 -0.13686248793E+04  0.13691318279E+04  0.00000000000E+00 0. -1.
          1    1    1    2  502    0  0.25890764930E+02 -0.10078750811E+03  0.14225757486E+04  0.14263766031E+04  0.00000000000E+00 0. -1.
         22    1    3    3    0    0 -0.38181861396E+02  0.15602378269E+03  0.24996489742E+03  0.29712577345E+03  0.00000000000E+00 0. -1.
         22    1    3    3    0    0 -0.92159395145E+01 -0.24816720486E+02  0.34880752272E+02  0.43788925950E+02  0.00000000000E+00 0. -1.
</event>
<event>
 7    1  0.6089676E-006  0.7227706E+02  0.7818608E-02  0.1448214E+00
          2   -1    0    0  502    0  0.00000000000E+00  0.00000000000E+00  0.42571223886E+03  0.42571223886E+03  0.00000000000E+00 0. -1.
          1   -1    0    0  501    0 -0.00000000000E+00 -0.00000000000E+00 -0.49123202873E+03  0.49123202873E+03  0.00000000000E+00 0. -1.
         25    2    1    2    0    0  0.76536885518E+01  0.38603703834E+02  0.97664220053E+02  0.16343988195E+03  0.12500188093E+03 0.  0.
          2    1    1    2  501    0 -0.92244790821E+01 -0.72428916265E+02 -0.45444932956E+03  0.46027734255E+03  0.00000000000E+00 0. -1.
          1    1    1    2  502    0  0.15707905303E+01  0.33825212432E+02  0.29126531963E+03  0.29322704309E+03  0.00000000000E+00 0. -1.
         22    1    3    3    0    0 -0.15409435239E+02 -0.31365322575E+02 -0.68088435632E+01  0.35603293461E+02  0.00000000000E+00 0. -1.
         22    1    3    3    0    0  0.23063123790E+02  0.69969026408E+02  0.10447306362E+03  0.12783658849E+03  0.00000000000E+00 0. -1.
</event>
<event>
 7    1  0.6089676E-006  0.4089279E+02  0.7818608E-02  0.1536987E+00
          2   -1    0    0  502    0  0.00000000000E+00  0.00000000000E+00  0.11276496184E+03  0.11276496184E+03  0.00000000000E+00 0. -1.
          1   -1    0    0  501    0 -0.00000000000E+00 -0.00000000000E+00 -0.50631028128E+03  0.50631028128E+03  0.00000000000E+00 0. -1.
         25    2    1    2    0    0 -0.64272339271E+01 -0.71671373921E+02 -0.57666268779E+02  0.15533357626E+03  0.12500010474E+03 0.  0.
          2    1    1    2  501    0  0.81483200319E+01  0.39417668609E+02 -0.39464065593E+03  0.39668803238E+03  0.00000000000E+00 0. -1.
          1    1    1    2  502    0 -0.17210861048E+01  0.32253705311E+02  0.58761605271E+02  0.67053634486E+02  0.00000000000E+00 0. -1.
         22    1    3    3    0    0  0.42059404449E+02  0.15219541561E+02 -0.18122151509E+02  0.48260131819E+02  0.00000000000E+00 0.  1.
         22    1    3    3    0    0 -0.48486638376E+02 -0.86890915482E+02 -0.39544117269E+02  0.10707344444E+03  0.00000000000E+00 0.  1.
</event>
<event>
 7    1  0.6089676E-006  0.2344537E+03  0.7818608E-02  0.1271487E+00
          2   -1    0    0  502    0  0.00000000000E+00  0.00000000000E+00  0.14792960314E+04  0.14792960314E+04  0.00000000000E+00 0. -1.
          1   -1    0    0  501    0 -0.00000000000E+00 -0.00000000000E+00 -0.61128521200E+03  0.61128521200E+03  0.00000000000E+00 0. -1.
         25    2    1    2    0    0 -0.21302154064E+03 -0.16999738911E+03  0.25973952173E+03  0.39669529867E+03  0.12500100700E+03 0.  0.
          2    1    1    2  501    0  0.42759306847E+02  0.18035202495E+02 -0.53047283144E+03  0.53249887488E+03  0.00000000000E+00 0. -1.
          1    1    1    2  502    0  0.17026223380E+03  0.15196218662E+03  0.11387441291E+04  0.11613870698E+04  0.00000000000E+00 0. -1.
         22    1    3    3    0    0  0.13269604116E+01 -0.10961940970E+02  0.65927659770E+02  0.66845951983E+02  0.00000000000E+00 0. -1.
         22    1    3    3    0    0 -0.21434850106E+03 -0.15903544814E+03  0.19381186196E+03  0.32984934668E+03  0.00000000000E+00 0. -1.
</event>
<event>
 7    1  0.6089676E-006  0.5489601E+02  0.7818608E-02  0.1432251E+00
          2   -1    0    0  502    0  0.00000000000E+00  0.00000000000E+00  0.32025844020E+03  0.32025844020E+03  0.00000000000E+00 0. -1.
          1   -1    0    0  501    0 -0.00000000000E+00 -0.00000000000E+00 -0.40288424140E+03  0.40288424140E+03  0.00000000000E+00 0. -1.
         25    2    1    2    0    0  0.82505470170E+01 -0.31993285339E+01  0.37894992673E+01  0.12537117153E+03  0.12500105246E+03 0.  0.
          2    1    1    2  501    0  0.25459236842E+02 -0.43298903111E+02 -0.33698311980E+03  0.34070601811E+03  0.00000000000E+00 0. -1.
          1    1    1    2  502    0 -0.33709783859E+02  0.46498231645E+02  0.25056781933E+03  0.25706549196E+03  0.00000000000E+00 0. -1.
         22    1    3    3    0    0  0.36181845017E+02 -0.37719749907E+02 -0.37821538374E+02  0.64516464618E+02  0.00000000000E+00 0. -1.
         22    1    3    3    0    0 -0.27931298000E+02  0.34520421373E+02  0.41611037641E+02  0.60854706911E+02  0.00000000000E+00 0. -1.
</event>
<event>
 7    1  0.6089676E-006  0.7982915E+02  0.7818608E-02  0.1404914E+00
          2   -1    0    0  502    0  0.00000000000E+00  0.00000000000E+00  0.45956402416E+03  0.45956402416E+03  0.00000000000E+00 0. -1.
          1   -1    0    0  501    0 -0.00000000000E+00 -0.00000000000E+00 -0.89020157178E+02  0.89020157178E+02  0.00000000000E+00 0. -1.
         25    2    1    2    0    0 -0.21289614443E+02  0.55131085356E+02  0.28218192188E+03  0.31424111401E+03  0.12501262512E+03 0.  0.
          2    1    1    2  501    0 -0.11956319402E+02  0.40931284243E+02 -0.48036042736E+02  0.64232273860E+02  0.00000000000E+00 0. -1.
          1    1    1    2  502    0  0.33245933845E+02 -0.96062369599E+02  0.13639798783E+03  0.17011079347E+03  0.00000000000E+00 0. -1.
         22    1    3    3    0    0  0.16063767199E+01  0.88090620798E+02  0.24161522364E+03  0.25717786494E+03  0.00000000000E+00 0.  1.
         22    1    3    3    0    0 -0.22895991163E+02 -0.32959535442E+02  0.40566698239E+02  0.57063249065E+02  0.00000000000E+00 0.  1.
</event>
<event>
 7    1  0.6089676E-006  0.9059565E+02  0.7818608E-02  0.1402148E+00
          2   -1    0    0  502    0  0.00000000000E+00  0.00000000000E+00  0.82153249358E+03  0.82153249358E+03  0.00000000000E+00 0. -1.
          1   -1    0    0  501    0 -0.00000000000E+00 -0.00000000000E+00 -0.10310897541E+03  0.10310897541E+03  0.00000000000E+00 0. -1.
         25    2    1    2    0    0 -0.75070489368E+02  0.98679453094E+02  0.23578852869E+03  0.29426857163E+03  0.12499819659E+03 0.  0.
          2    1    1    2  501    0  0.28997187797E+02 -0.25176940806E+02 -0.65223483519E+02  0.75688955938E+02  0.00000000000E+00 0. -1.
          1    1    1    2  502    0  0.46073301571E+02 -0.73502512288E+02  0.54785847299E+03  0.55468394141E+03  0.00000000000E+00 0. -1.
         22    1    3    3    0    0 -0.10347511196E+03  0.10359610398E+03  0.20678721786E+03  0.25337759377E+03  0.00000000000E+00 0. -1.
         22    1    3    3    0    0  0.28404622591E+02 -0.49166508886E+01  0.29001310834E+02  0.40890977863E+02  0.00000000000E+00 0. -1.
</event>
<event>
 7    1  0.6089676E-006  0.1307274E+03  0.7818608E-02  0.1320199E+00
          2   -1    0    0  502    0  0.00000000000E+00  0.00000000000E+00  0.82330439810E+03  0.82330439810E+03  0.00000000000E+00 0. -1.
          1   -1    0    0  501    0 -0.00000000000E+00 -0.00000000000E+00 -0.50873084407E+03  0.50873084407E+03  0.00000000000E+00 0. -1.
         25    2    1    2    0    0  0.13572344971E+02  0.83388617215E+02  0.55319444795E+02  0.16069120731E+03  0.12499421229E+03 0.  0.
          2    1    1    2  501    0  0.20742901348E+02  0.48724491202E+02 -0.44795934242E+03  0.45107861450E+03  0.00000000000E+00 0. -1.
          1    1    1    2  502    0 -0.34315246319E+02 -0.13211310842E+03  0.70721345166E+03  0.72026542035E+03  0.00000000000E+00 0. -1.
         22    1    3    3    0    0  0.51338164057E+02  0.96469417825E+02  0.50668836228E+02  0.12045450024E+03  0.00000000000E+00 0. -1.
         22    1    3    3    0    0 -0.37765819086E+02 -0.13080800610E+02  0.46506085667E+01  0.40236707071E+02  0.00000000000E+00 0. -1.
</event>
<event>
 7    1  0.6089676E-006  0.2513959E+03  0.7818608E-02  0.1261381E+00
          2   -1    0    0  502    0  0.00000000000E+00  0.00000000000E+00  0.22343923234E+03  0.22343923234E+03  0.00000000000E+00 0. -1.
          1   -1    0    0  501    0 -0.00000000000E+00 -0.00000000000E+00 -0.13948198153E+04  0.13948198153E+04  0.00000000000E+00 0. -1.
         25    2    1    2    0    0 -0.13410535592E+02 -0.21727487043E+03 -0.27697820678E+03  0.37380458337E+03  0.12499891091E+03 0.  0.
          2    1    1    2  501    0  0.17531042785E+02 -0.44415260674E+02 -0.97067163557E+03  0.97184539766E+03  0.00000000000E+00 0. -1.
          1    1    1    2  502    0 -0.41205071935E+01  0.26169013110E+03  0.76269259358E+02  0.27260906665E+03  0.00000000000E+00 0. -1.
         22    1    3    3    0    0 -0.18819638303E+02 -0.21705739297E+03 -0.19726392914E+03  0.29390670010E+03  0.00000000000E+00 0. -1.
         22    1    3    3    0    0  0.54091027117E+01 -0.21747745822E+00 -0.79714277648E+02  0.79897883260E+02  0.00000000000E+00 0. -1.
</event>
<event>
 7    1  0.6089676E-006  0.7658434E+02  0.7818608E-02  0.1412083E+00
          2   -1    0    0  502    0  0.00000000000E+00  0.00000000000E+00  0.38137251138E+03  0.38137251138E+03  0.00000000000E+00 0. -1.
          1   -1    0    0  501    0 -0.00000000000E+00 -0.00000000000E+00 -0.12632074556E+04  0.12632074556E+04  0.00000000000E+00 0. -1.
         25    2    1    2    0    0  0.43265649318E+02  0.38961448378E+02 -0.12901578374E+03  0.18883351443E+03  0.12499245117E+03 0.  0.
          2    1    1    2  501    0 -0.76652881477E+02 -0.13438609368E+02 -0.11016489660E+04  0.11043942705E+04  0.00000000000E+00 0. -1.
          1    1    1    2  502    0  0.33387232159E+02 -0.25522839010E+02  0.34882980553E+03  0.35135218202E+03  0.00000000000E+00 0. -1.
         22    1    3    3    0    0  0.75102035370E+02  0.52883359534E+02 -0.54982770940E+02  0.10705171896E+03  0.00000000000E+00 0. -1.
         22    1    3    3    0    0 -0.31836386052E+02 -0.13921911155E+02 -0.74033012796E+02  0.81781795473E+02  0.00000000000E+00 0. -1.
</event>
<event>
 7    1  0.6089676E-006  0.1390899E+03  0.7818608E-02  0.1238312E+00
          2   -1    0    0  502    0  0.00000000000E+00  0.00000000000E+00  0.59329741572E+03  0.59329741572E+03  0.00000000000E+00 0. -1.
          1   -1    0    0  501    0 -0.00000000000E+00 -0.00000000000E+00 -0.17058128723E+04  0.17058128723E+04  0.00000000000E+00 0. -1.
         25    2    1    2    0    0 -0.83142158121E+02  0.14005668938E+03 -0.49461457757E+03  0.53553422983E+03  0.12499934511E+03 0.  0.
          2    1    1    2  501    0 -0.49338398336E+02 -0.96833886784E+02 -0.11797286698E+04  0.11847239398E+04  0.00000000000E+00 0. -1.
          1    1    1    2  502    0  0.13248055646E+03 -0.43222802596E+02  0.56182779077E+03  0.57885211841E+03  0.00000000000E+00 0. -1.
         22    1    3    3    0    0 -0.19775952257E+02  0.13198350907E+03 -0.39740265805E+03  0.41921308135E+03  0.00000000000E+00 0.  1.
         22    1    3    3    0    0 -0.63366205864E+02  0.80731803119E+01 -0.97211919527E+02  0.11632114848E+03  0.00000000000E+00 0.  1.
</event>
<event>
 7    1  0.6089676E-006  0.8909114E+02  0.7818608E-02  0.1363044E+00
          2   -1    0    0  502    0  0.00000000000E+00  0.00000000000E+00  0.27890137149E+03  0.27890137149E+03  0.00000000000E+00 0. -1.
          1   -1    0    0  501    0 -0.00000000000E+00 -0.00000000000E+00 -0.17823444370E+04  0.17823444370E+04  0.00000000000E+00 0. -1.
         25    2    1    2    0    0  0.36595740047E+01  0.41318437402E+02 -0.35157815552E+02  0.13631400560E+03  0.12499932150E+03 0.  0.
          2    1    1    2  501    0 -0.70061757617E+01  0.53196745559E+02 -0.16863700146E+04  0.16872234014E+04  0.00000000000E+00 0. -1.
          1    1    1    2  502    0  0.33466017570E+01 -0.94515182961E+02  0.21808476464E+03  0.23770840145E+03  0.00000000000E+00 0. -1.
         22    1    3    3    0    0 -0.17935430207E+02  0.31205382058E+02  0.42141714463E+02  0.55420029086E+02  0.00000000000E+00 0.  1.
         22    1    3    3    0    0  0.21595004211E+02  0.10113055343E+02 -0.77299530015E+02  0.80893976511E+02  0.00000000000E+00 0.  1.
</event>
<event>
 7    1  0.6089676E-006  0.1190561E+03  0.7818608E-02  0.1307471E+00
          2   -1    0    0  502    0  0.00000000000E+00  0.00000000000E+00  0.70714674381E+03  0.70714674381E+03  0.00000000000E+00 0. -1.
          1   -1    0    0  501    0 -0.00000000000E+00 -0.00000000000E+00 -0.71482928090E+03  0.71482928090E+03  0.00000000000E+00 0. -1.
         25    2    1    2    0    0 -0.15006331835E+03  0.73902955073E+02  0.17337978200E+02  0.20953726105E+03  0.12499844799E+03 0.  0.
          2    1    1    2  501    0  0.11555432824E+03 -0.18558874331E+02 -0.61137088339E+03  0.62247216135E+03  0.00000000000E+00 0. -1.
          1    1    1    2  502    0  0.34508990104E+02 -0.55344080743E+02  0.58635036810E+03  0.58996660231E+03  0.00000000000E+00 0. -1.
         22    1    3    3    0    0  0.21391946019E+01  0.43939173849E+02 -0.22454843892E+02  0.49390759928E+02  0.00000000000E+00 0.  1.
         22    1    3    3    0    0 -0.15220251295E+03  0.29963781224E+02  0.39792822092E+02  0.16014650113E+03  0.00000000000E+00 0.  1.
</event>
<event>
 7    1  0.6089676E-006  0.6540747E+02  0.7818608E-02  0.1484610E+00
          2   -1    0    0  502    0  0.00000000000E+00  0.00000000000E+00  0.67958316604E+02  0.67958316604E+02  0.00000000000E+00 0. -1.
          1   -1    0    0  501    0 -0.00000000000E+00 -0.00000000000E+00 -0.12450373941E+04  0.12450373941E+04  0.00000000000E+00 0. -1.
         25    2    1    2    0    0 -0.59167072103E+02  0.94494631508E+01 -0.24373303304E+03  0.28039260697E+03  0.12499675144E+03 0.  0.
          2    1    1    2  501    0  0.46848698723E+01  0.28408525426E+02 -0.96048963330E+03  0.96092108313E+03  0.00000000000E+00 0. -1.
          1    1    1    2  502    0  0.54482202230E+02 -0.37857988577E+02  0.27143588867E+02  0.71682020587E+02  0.00000000000E+00 0. -1.
         22    1    3    3    0    0 -0.11162571630E+02 -0.45198315223E+02 -0.31945767043E+02  0.56462578194E+02  0.00000000000E+00 0.  1.
         22    1    3    3    0    0 -0.48004500472E+02  0.54647778374E+02 -0.21178726600E+03  0.22393002877E+03  0.00000000000E+00 0.  1.
</event>
<event>
 7    1  0.6089676E-006  0.8912277E+02  0.7818608E-02  0.1360763E+00
          2   -1    0    0  502    0  0.00000000000E+00  0.00000000000E+00  0.27124897104E+02  0.27124897104E+02  0.00000000000E+00 0. -1.
          1   -1    0    0  501    0 -0.00000000000E+00 -0.00000000000E+00 -0.15478049656E+04  0.15478049656E+04  0.00000000000E+00 0. -1.
         25    2    1    2    0    0  0.10266114355E+03 -0.34174154554E+02 -0.61927689974E+03  0.64096493447E+03  0.12499994173E+03 0.  0.
          2    1    1    2  501    0 -0.44633271155E+02 -0.31573550340E+02 -0.79139696457E+03  0.79328316098E+03  0.00000000000E+00 0. -1.
          1    1    1    2  502    0 -0.58027872398E+02  0.65747704894E+02 -0.11000620415E+03  0.14068176721E+03  0.00000000000E+00 0. -1.
         22    1    3    3    0    0  0.14567095181E+02  0.86225811168E+01 -0.32948498659E+01  0.17245440057E+02  0.00000000000E+00 0. -1.
         22    1    3    3    0    0  0.88094048372E+02 -0.42796735671E+02 -0.61598204988E+03  0.62371949441E+03  0.00000000000E+00 0. -1.
</event>
<event>
 7    1  0.6089676E-006  0.1091727E+03  0.7818608E-02  0.1342663E+00
          2   -1    0    0  502    0  0.00000000000E+00  0.00000000000E+00  0.10178013754E+03  0.10178013754E+03  0.00000000000E+00 0. -1.
          1   -1    0    0  501    0 -0.00000000000E+00 -0.00000000000E+00 -0.12578646618E+04  0.12578646618E+04  0.00000000000E+00 0. -1.
         25    2    1    2    0    0  0.79649839640E+02 -0.21411559034E+02 -0.64566582885E+03  0.66280596677E+03  0.12499934089E+03 0.  0.
          2    1    1    2  501    0  0.36084955735E+01 -0.51937900685E+02 -0.56899137044E+03  0.57136831064E+03  0.00000000000E+00 0. -1.
          1    1    1    2  502    0 -0.83258335214E+02  0.73349459719E+02  0.58572675003E+02  0.12547052196E+03  0.00000000000E+00 0. -1.
         22    1    3    3    0    0  0.41843634773E+01 -0.43372463856E+02 -0.74888717656E+02  0.86642942879E+02  0.00000000000E+00 0.  1.
         22    1    3    3    0    0  0.75465476163E+02  0.21960904823E+02 -0.57077711119E+03  0.57616302389E+03  0.00000000000E+00 0.  1.
</event>
<event>
 7    1  0.6089676E-006  0.4728023E+02  0.7818608E-02  0.1516605E+00
          2   -1    0    0  502    0  0.00000000000E+00  0.00000000000E+00  0.23367002183E+04  0.23367002183E+04  0.00000000000E+00 0. -1.
          1   -1    0    0  501    0 -0.00000000000E+00 -0.00000000000E+00 -0.70105826903E+03  0.70105826903E+03  0.00000000000E+00 0. -1.
         25    2    1    2    0    0 -0.75942844038E+02  0.17698103815E+02 -0.90830269462E+01  0.14760642128E+03  0.12499846313E+03 0.  0.
          2    1    1    2  501    0  0.44001752319E+02 -0.16220721791E+02 -0.62171767651E+03  0.62348386932E+03  0.00000000000E+00 0. -1.
          1    1    1    2  502    0  0.31941091719E+02 -0.14773820244E+01  0.22664426527E+04  0.22666681967E+04  0.00000000000E+00 0. -1.
         22    1    3    3    0    0 -0.59033141117E+02  0.71973507481E+01 -0.65090293714E+02  0.88167227152E+02  0.00000000000E+00 0. -1.
         22    1    3    3    0    0 -0.16909702921E+02  0.10500753067E+02  0.56007266768E+02  0.59439194129E+02  0.00000000000E+00 0. -1.
</event>
<event>
 7    1  0.6089676E-006  0.1572866E+03  0.7818608E-02  0.1299230E+00
          2   -1    0    0  502    0  0.00000000000E+00  0.00000000000E+00  0.15780143513E+04  0.15780143513E+04  0.00000000000E+00 0. -1.
          1   -1    0    0  501    0 -0.00000000000E+00 -0.00000000000E+00 -0.13723048701E+04  0.13723048701E+04  0.00000000000E+00 0. -1.
         25    2    1    2    0    0 -0.46606794215E+00  0.20612812937E+03 -0.70148131552E+01  0.24116749641E+03  0.12499412298E+03 0.  0.
          2    1    1    2  501    0  0.14103896297E+02 -0.15466054872E+03 -0.12428944399E+04  0.12525595371E+04  0.00000000000E+00 0. -1.
          1    1    1    2  502    0 -0.13637828354E+02 -0.51467580656E+02  0.14556187343E+04  0.14565921879E+04  0.00000000000E+00 0. -1.
         22    1    3    3    0    0 -0.46849684954E+02  0.51599531849E+02 -0.34066890920E+02  0.77575496932E+02  0.00000000000E+00 0.  1.
         22    1    3    3    0    0  0.46383617012E+02  0.15452859753E+03  0.27052077765E+02  0.16359199947E+03  0.00000000000E+00 0.  1.
</event>
<event>
 7    1  0.6089676E-006  0.6606633E+02  0.7818608E-02  0.1384725E+00
          2   -1    0    0  502    0  0.00000000000E+00  0.00000000000E+00  0.10356631421E+04  0.10356631421E+04  0.00000000000E+00 0. -1.
          1   -1    0    0  501    0 -0.00000000000E+00 -0.00000000000E+00 -0.29083554849E+03  0.29083554849E+03  0.00000000000E+00 0. -1.
         25    2    1    2    0    0  0.43823928693E+02 -0.11447861944E+03  0.64825948616E+03  0.67148436533E+03  0.12500000180E+03 0.  0.
          2    1    1    2  501    0 -0.87134731915E+01  0.65171289251E+02 -0.27285480969E+03  0.28066522536E+03  0.00000000000E+00 0. -1.
          1    1    1    2  502    0 -0.35110455501E+02  0.49307330185E+02  0.36942291717E+03  0.37434909994E+03  0.00000000000E+00 0. -1.
         22    1    3    3    0    0  0.25770726378E+02 -0.13981185230E+03  0.49051779174E+03  0.51070459993E+03  0.00000000000E+00 0. -1.
         22    1    3    3    0    0  0.18053202315E+02  0.25333232864E+02  0.15774169442E+03  0.16077976539E+03  0.00000000000E+00 0. -1.
</event>
<event>
 7    1  0.6089676E-006  0.2142210E+03  0.7818608E-02  0.1236789E+00
          2   -1    0    0  502    0  0.00000000000E+00  0.00000000000E+00  0.24793193041E+03  0.24793193041E+03  0.00000000000E+00 0. -1.
          1   -1    0    0  501    0 -0.00000000000E+00 -0.00000000000E+00 -0.50403558490E+03  0.50403558490E+03  0.00000000000E+00 0. -1.
         25    2    1    2    0    0  0.22115754914E+03 -0.14243920361E+03 -0.14137354684E+03  0.32374473753E+03  0.12499834825E+03 0.  0.
          2    1    1    2  501    0 -0.15265184425E+03  0.12138685105E+03 -0.22433923847E+03  0.29726326224E+03  0.00000000000E+00 0. -1.
          1    1    1    2  502    0 -0.68505704893E+02  0.21052352559E+02  0.10960913082E+03  0.13095951554E+03  0.00000000000E+00 0. -1.
         22    1    3    3    0    0  0.23040696064E+03 -0.12744243675E+03 -0.15114050187E+03  0.30359906703E+03  0.00000000000E+00 0. -1.
         22    1    3    3    0    0 -0.92494114964E+01 -0.14996766861E+02  0.97669550330E+01  0.20145670500E+02  0.00000000000E+00 0. -1.
</event>
<event>
 7    1  0.6089676E-006  0.2879678E+02  0.7818608E-02  0.1660131E+00
          2   -1    0    0  502    0  0.00000000000E+00  0.00000000000E+00  0.12558371139E+04  0.12558371139E+04  0.00000000000E+00 0. -1.
          1   -1    0    0  501    0 -0.00000000000E+00 -0.00000000000E+00 -0.22284464263E+03  0.22284464263E+03  0.00000000000E+00 0. -1.
         25    2    1    2    0    0  0.48489510979E+02  0.88884242722E+01 -0.22301030494E+02  0.13620292265E+03  0.12499465356E+03 0.  0.
          2    1    1    2  501    0 -0.21745203470E+02  0.16730274817E+01 -0.14259101122E+03  0.14424926126E+03  0.00000000000E+00 0. -1.
          1    1    1    2  502    0 -0.26744307508E+02 -0.10561451754E+02  0.11978845130E+04  0.11982295726E+04  0.00000000000E+00 0. -1.
         22    1    3    3    0    0  0.54877741666E+02 -0.18029991397E+02  0.38489845256E+02  0.69412645159E+02  0.00000000000E+00 0. -1.
         22    1    3    3    0    0 -0.63882306872E+01  0.26918415669E+02 -0.60790875750E+02  0.66790277495E+02  0.00000000000E+00 0. -1.
</event>
<event>
 7    1  0.6089676E-006  0.9738061E+02  0.7818608E-02  0.1389132E+00
          2   -1    0    0  502    0  0.00000000000E+00  0.00000000000E+00  0.12954907396E+04  0.12954907396E+04  0.00000000000E+00 0. -1.
          1   -1    0    0  501    0 -0.00000000000E+00 -0.00000000000E+00 -0.18883365163E+04  0.18883365163E+04  0.00000000000E+00 0. -1.
         25    2    1    2    0    0  0.99162074312E+02  0.32902884222E+02  0.23505505635E+03  0.28599260808E+03  0.12500070234E+03 0.  0.
          2    1    1    2  501    0 -0.73891794253E+02 -0.63432022998E+02 -0.18612149082E+04  0.18637608627E+04  0.00000000000E+00 0. -1.
          1    1    1    2  502    0 -0.25270280059E+02  0.30529138776E+02  0.10333140751E+04  0.10340737852E+04  0.00000000000E+00 0. -1.
         22    1    3    3    0    0  0.37172768136E+02  0.43084353743E+02  0.17477318120E+02  0.59527580810E+02  0.00000000000E+00 0.  1.
         22    1    3    3    0    0  0.61989306176E+02 -0.10181469521E+02  0.21757773823E+03  0.22646502727E+03  0.00000000000E+00 0.  1.
</event>
<event>
 7    1  0.6089676E-006  0.3703885E+02  0.7818608E-02  0.1544807E+00
          2   -1    0    0  502    0  0.00000000000E+00  0.00000000000E+00  0.13011819934E+04  0.13011819934E+04  0.00000000000E+00 0. -1.
          1   -1    0    0  501    0 -0.00000000000E+00 -0.00000000000E+00 -0.35626579134E+02  0.35626579134E+02  0.00000000000E+00 0. -1.
         25    2    1    2    0    0  0.38421882643E+02 -0.30584602515E+02  0.84913137273E+03  0.85968566291E+03  0.12499476746E+03 0.  0.
          2    1    1    2  501    0 -0.16064446143E+01  0.33854749494E+02 -0.19855483723E+02  0.39280592683E+02  0.00000000000E+00 0. -1.
          1    1    1    2  502    0 -0.36815438029E+02 -0.32701469792E+01  0.43627952523E+03  0.43784231691E+03  0.00000000000E+00 0. -1.
         22    1    3    3    0    0  0.63478598706E+02  0.15136788468E+02  0.66857895631E+03  0.67175626211E+03  0.00000000000E+00 0.  1.
         22    1    3    3    0    0 -0.25056716063E+02 -0.45721390983E+02  0.18055241642E+03  0.18792940080E+03  0.00000000000E+00 0.  1.
</event>
<event>
 7    1  0.6089676E-006  0.5422333E+02  0.7818608E-02  0.1527176E+00
          2   -1    0    0  502    0  0.00000000000E+00  0.00000000000E+00  0.22486029239E+04  0.22486029239E+04  0.00000000000E+00 0. -1.
          1   -1    0    0  501    0 -0.00000000000E+00 -0.00000000000E+00 -0.43816278250E+02  0.43816278250E+02  0.00000000000E+00 0. -1.
         25    2    1    2    0    0  0.28172372367E+01 -0.77336868895E+02  0.48711188674E+03  0.50881409512E+03  0.12499946030E+03 0.  0.
          2    1    1    2  501    0 -0.91291044528E+01  0.24326327486E+02 -0.27372906161E+02  0.37741048591E+02  0.00000000000E+00 0. -1.
          1    1    1    2  502    0  0.63118672162E+01  0.53010541409E+02  0.17450476650E+04  0.17458640584E+04  0.00000000000E+00 0. -1.
         22    1    3    3    0    0  0.17205918877E+02 -0.71322107104E+01  0.23379317164E+01  0.18771734036E+02  0.00000000000E+00 0.  1.
         22    1    3    3    0    0 -0.14388681640E+02 -0.70204658184E+02  0.48477395503E+03  0.49004236109E+03  0.00000000000E+00 0.  1.
</event>
<event>
 7    1  0.6089676E-006  0.2352396E+03  0.7818608E-02  0.1298905E+00
          2   -1    0    0  502    0  0.00000000000E+00  0.00000000000E+00  0.24161857459E+04  0.24161857459E+04  0.00000000000E+00 0. -1.
          1   -1    0    0  501    0 -0.00000000000E+00 -0.00000000000E+00 -0.76597503879E+03  0.76597503879E+03  0.00000000000E+00 0. -1.
         25    2    1    2    0    0  0.14021864433E+03 -0.20860116800E+03  0.48199688518E+01  0.28075595963E+03  0.12499984505E+03 0.  0.
          2    1    1    2  501    0  0.14806763865E+02  0.32492119601E+02 -0.62143977389E+03  0.62246475456E+03  0.00000000000E+00 0. -1.
          1    1    1    2  502    0 -0.15502540819E+03  0.17610904840E+03  0.22668305121E+04  0.22789400705E+04  0.00000000000E+00 0. -1.
         22    1    3    3    0    0  0.89025056221E+02 -0.19020329301E+03  0.42912186603E+02  0.21434600315E+03  0.00000000000E+00 0. -1.
         22    1    3    3    0    0  0.51193588107E+02 -0.18397874996E+02 -0.38092217751E+02  0.66409956489E+02  0.00000000000E+00 0. -1.
</event>
<event>
 7    1  0.6089676E-006  0.6132478E+02  0.7818608E-02  0.1451467E+00
          2   -1    0    0  502    0  0.00000000000E+00  0.00000000000E+00  0.58341035256E+03  0.58341035256E+03  0.00000000000E+00 0. -1.
          1   -1    0    0  501    0 -0.00000000000E+00 -0.00000000000E+00 -0.10710064353E+04  0.10710064353E+04  0.00000000000E+00 0. -1.
         25    2    1    2    0    0  0.95235836752E+02 -0.22651260722E+02 -0.37215069630E+03  0.40460368464E+03  0.12500022660E+03 0.  0.
          2    1    1    2  501    0 -0.38942311882E+02 -0.12953841145E+01 -0.68042071440E+03  0.68153542113E+03  0.00000000000E+00 0. -1.
          1    1    1    2  502    0 -0.56293524870E+02  0.23946644837E+02  0.56497532797E+03  0.56827768208E+03  0.00000000000E+00 0. -1.
         22    1    3    3    0    0  0.11431706025E+02 -0.62436984052E+02 -0.18762037597E+03  0.19806682296E+03  0.00000000000E+00 0. -1.
         22    1    3    3    0    0  0.83804130727E+02  0.39785723329E+02 -0.18453032033E+03  0.20653686167E+03  0.00000000000E+00 0. -1.
</event>
<event>
 7    1  0.6089676E-006  0.3343370E+02  0.7818608E-02  0.1575694E+00
          2   -1    0    0  502    0  0.00000000000E+00  0.00000000000E+00  0.28923224082E+03  0.28923224082E+03  0.00000000000E+00 0. -1.
          1   -1    0    0  501    0 -0.00000000000E+00 -0.00000000000E+00 -0.20240872594E+03  0.20240872594E+03  0.00000000000E+00 0. -1.
         25    2    1    2    0    0 -0.36022753845E+02  0.13249369308E+02  0.33201976310E+02  0.13490768489E+03  0.12499811051E+03 0.  0.
          2    1    1    2  501    0  0.29106253695E+02  0.16838639060E+02 -0.14850407621E+03  0.15226350324E+03  0.00000000000E+00 0. -1.
          1    1    1    2  502    0  0.69165001504E+01 -0.30088008368E+02  0.20212561478E+03  0.20446977862E+03  0.00000000000E+00 0. -1.
         22    1    3    3    0    0 -0.28573229616E+02  0.38181971636E+02 -0.36792472814E+02  0.60232702616E+02  0.00000000000E+00 0.  1.
         22    1    3    3    0    0 -0.74495242292E+01 -0.24932602328E+02  0.69994449124E+02  0.74674982278E+02  0.00000000000E+00 0.  1.
</event>
<event>
 7    1  0.6089676E-006  0.8607384E+02  0.7818608E-02  0.1381608E+00
          2   -1    0    0  502    0  0.00000000000E+00  0.00000000000E+00  0.28957635682E+04  0.28957635682E+04  0.00000000000E+00 0. -1.
          1   -1    0    0  501    0 -0.00000000000E+00 -0.00000000000E+00 -0.25666848260E+02  0.25666848260E+02  0.00000000000E+00 0. -1.
         25    2    1    2    0    0 -0.91846499549E+02  0.54755062386E+02  0.40674596571E+03  0.43875004147E+03  0.12500168773E+03 0.  0.
          2    1    1    2  501    0  0.66216219644E+01 -0.47188611162E+02  0.54838846336E+02  0.72649225518E+02  0.00000000000E+00 0. -1.
          1    1    1    2  502    0  0.85224877584E+02 -0.75664512234E+01  0.24085119079E+04  0.24100311495E+04  0.00000000000E+00 0. -1.
         22    1    3    3    0    0 -0.10541322726E+03  0.29008713514E+02  0.39029682244E+03  0.40532093895E+03  0.00000000000E+00 0.  1.
         22    1    3    3    0    0  0.13566727716E+02  0.25746348871E+02  0.16449143263E+02  0.33429102519E+02  0.00000000000E+00 0.  1.
</event>
<event>
 7    1  0.6089676E-006  0.1503566E+03  0.7818608E-02  0.1329236E+00
          2   -1    0    0  502    0  0.00000000000E+00  0.00000000000E+00  0.24007659299E+04  0.24007659299E+04  0.00000000000E+00 0. -1.
          1   -1    0    0  501    0 -0.00000000000E+00 -0.00000000000E+00 -0.14409850451E+03  0.14409850451E+03  0.00000000000E+00 0. -1.
         25    2    1    2    0    0  0.44507039883E+02  0.11829538674E+03  0.24596662848E+03  0.30348356919E+03  0.12501207668E+03 0.  0.
          2    1    1    2  501    0  0.41725500608E+02  0.80567262677E+01 -0.10857292340E+03  0.11659334430E+03  0.00000000000E+00 0. -1.
          1    1    1    2  502    0 -0.86232540491E+02 -0.12635211301E+03  0.21192737203E+04  0.21247875209E+04  0.00000000000E+00 0. -1.
         22    1    3    3    0    0 -0.14989108938E+02  0.43834925572E+02  0.78328262475E+01  0.46984329873E+02  0.00000000000E+00 0.  1.
         22    1    3    3    0    0  0.59496148821E+02  0.74460461166E+02  0.23813380223E+03  0.25649923931E+03  0.00000000000E+00 0.  1.
</event>
<event>
 7    1  0.6089676E-006  0.3556075E+02  0.7818608E-02  0.1598565E+00
          2   -1    0    0  502    0  0.00000000000E+00  0.00000000000E+00  0.10982287943E+04  0.10982287943E+04  0.00000000000E+00 0. -1.
          1   -1    0    0  501    0 -0.00000000000E+00 -0.00000000000E+00 -0.34962523618E+03  0.34962523618E+03  0.00000000000E+00 0. -1.
         25    2    1    2    0    0  0.45049546709E+02 -0.36916523252E+02  0.39035453781E+02  0.14332273322E+03  0.12500139143E+03 0.  0.
          2    1    1    2  501    0 -0.23717704204E+02  0.86220095674E+01 -0.29663394278E+03  0.29770549970E+03  0.00000000000E+00 0. -1.
          1    1    1    2  502    0 -0.21331842504E+02  0.28294513684E+02  0.10062020471E+04  0.10068257976E+04  0.00000000000E+00 0. -1.
         22    1    3    3    0    0 -0.12929044560E+01  0.11841259737E+02 -0.38718402263E+02  0.40509279281E+02  0.00000000000E+00 0.  1.
         22    1    3    3    0    0  0.46342451165E+02 -0.48757782988E+02  0.77753856044E+02  0.10281345394E+03  0.00000000000E+00 0.  1.
</event>
<event>
 7    1  0.6089676E-006  0.1668809E+03  0.7818608E-02  0.1345538E+00
          2   -1    0    0  502    0  0.00000000000E+00  0.00000000000E+00  0.15845555308E+04  0.15845555308E+04  0.00000000000E+00 0. -1.
          1   -1    0    0  501    0 -0.00000000000E+00 -0.00000000000E+00 -0.26719362561E+04  0.26719362561E+04  0.00000000000E+00 0. -1.
         25    2    1    2    0    0  0.35666017671E+02  0.12976276340E+03 -0.62471935294E+03  0.65115980723E+03  0.12499754010E+03 0.  0.
          2    1    1    2  501    0  0.13143127533E+01  0.33200851458E+02 -0.20294174709E+04  0.20296894578E+04  0.00000000000E+00 0. -1.
          1    1    1    2  502    0 -0.36980330425E+02 -0.16296361486E+03  0.15667560985E+04  0.15756425219E+04  0.00000000000E+00 0. -1.
         22    1    3    3    0    0  0.29132870972E+02  0.18596269410E+02 -0.38821205516E+03  0.38974754031E+03  0.00000000000E+00 0.  1.
         22    1    3    3    0    0  0.65331466998E+01  0.11116649399E+03 -0.23650729778E+03  0.26141226692E+03  0.00000000000E+00 0.  1.
</event>
<event>
 7    1  0.6089676E-006  0.4534703E+02  0.7818608E-02  0.1569554E+00
          2   -1    0    0  502    0  0.00000000000E+00  0.00000000000E+00  0.41784904925E+03  0.41784904925E+03  0.00000000000E+00 0. -1.
          1   -1    0    0  501    0 -0.00000000000E+00 -0.00000000000E+00 -0.76168375869E+03  0.76168375869E+03  0.00000000000E+00 0. -1.
         25    2    1    2    0    0 -0.46645307148E+02  0.22940229398E+02 -0.15072802845E+03  0.20259661409E+03  0.12499764268E+03 0.  0.
          2    1    1    2  501    0  0.27124269461E+02 -0.36291661743E+02 -0.58378606838E+03  0.58554161623E+03  0.00000000000E+00 0. -1.
          1    1    1    2  502    0  0.19521037686E+02  0.13351432345E+02  0.39067938739E+03  0.39139457762E+03  0.00000000000E+00 0. -1.
         22    1    3    3    0    0 -0.11687232154E+02  0.72561694213E+02 -0.69143889818E+02  0.10090920851E+03  0.00000000000E+00 0. -1.
         22    1    3    3    0    0 -0.34958074994E+02 -0.49621464815E+02 -0.81584138632E+02  0.10168740558E+03  0.00000000000E+00 0. -1.
</event>
<event>
 7    1  0.6089676E-006  0.2783297E+02  0.7818608E-02  0.1652059E+00
          2   -1    0    0  502    0  0.00000000000E+00  0.00000000000E+00  0.26977002104E+02  0.26977002104E+02  0.00000000000E+00 0. -1.
          1   -1    0    0  501    0 -0.00000000000E+00 -0.00000000000E+00 -0.94107312120E+03  0.94107312120E+03  0.00000000000E+00 0. -1.
         25    2    1    2    0    0  0.12877235220E+02 -0.48607909086E+02 -0.35053397551E+03  0.37553666708E+03  0.12500067327E+03 0.  0.
          2    1    1    2  501    0 -0.10610877440E+02  0.25108210684E+02 -0.56786243265E+03  0.56851627538E+03  0.00000000000E+00 0. -1.
          1    1    1    2  502    0 -0.22663577803E+01  0.23499698402E+02  0.43002890612E+01  0.23997180847E+02  0.00000000000E+00 0. -1.
         22    1    3    3    0    0 -0.13855739539E+02 -0.46195107391E+02 -0.36820964541E+02  0.60677449640E+02  0.00000000000E+00 0.  1.
         22    1    3    3    0    0  0.26732974759E+02 -0.24128016948E+01 -0.31371301097E+03  0.31485921744E+03  0.00000000000E+00 0.  1.
</event>
<event>
 7    1  0.6089676E-006  0.2040243E+03  0.7818608E-02  0.1187738E+00
          2   -1    0    0  502    0  0.00000000000E+00  0.00000000000E+00  0.20896665640E+04  0.20896665640E+04  0.00000000000E+00 0. -1.
          1   -1    0    0  501    0 -0.00000000000E+00 -0.00000000000E+00 -0.17487183531E+04  0.17487183531E+04  0.00000000000E+00 0. -1.
         25    2    1    2    0    0  0.11089454206E+03 -0.68795769488E+02 -0.55211293133E+03  0.58093385369E+03  0.12499998427E+03 0.  0.
          2    1    1    2  501    0  0.93302114632E+02  0.85888368557E+02 -0.11737128633E+04  0.11805439347E+04  0.00000000000E+00 0. -1.
          1    1    1    2  502    0 -0.20419665669E+03 -0.17092599070E+02  0.20667740055E+04  0.20769071287E+04  0.00000000000E+00 0. -1.
         22    1    3    3    0    0  0.12683622781E+03 -0.80555457375E+02 -0.39562521926E+03  0.42319726430E+03  0.00000000000E+00 0.  1.
         22    1    3    3    0    0 -0.15941685752E+02  0.11759687887E+02 -0.15648771207E+03  0.15773658939E+03  0.00000000000E+00 0.  1.
</event>
<event>
 7    1  0.6089676E-006  0.4717990E+02  0.7818608E-02  0.1589421E+00
          2   -1    0    0  502    0  0.00000000000E+00  0.00000000000E+00  0.14168959260E+03  0.14168959260E+03  0.00000000000E+00 0. -1.
          1   -1    0    0  501    0 -0.00000000000E+00 -0.00000000000E+00 -0.38586819130E+03  0.38586819130E+03  0.00000000000E+00 0. -1.
         25    2    1    2    0    0  0.37191471874E+02 -0.34651098638E+01 -0.20978577183E+03  0.24704115004E+03  0.12499618868E+03 0.  0.
          2    1    1    2  501    0  0.77925528638E+01  0.18534087745E+02 -0.15219673999E+03  0.15351900192E+03  0.00000000000E+00 0. -1.
          1    1    1    2  502    0 -0.44984024738E+02 -0.15068977881E+02  0.11780391311E+03  0.12699763194E+03  0.00000000000E+00 0. -1.
         22    1    3    3    0    0  0.12699719889E+02 -0.30646616668E+02 -0.20776570490E+03  0.21039744802E+03  0.00000000000E+00 0. -1.
         22    1    3    3    0    0  0.24491751985E+02  0.27181506804E+02 -0.20200669273E+01  0.36643702021E+02  0.00000000000E+00 0. -1.
</event>
<event>
 7    1  0.6089676E-006  0.2709481E+03  0.7818608E-02  0.1307599E+00
          2   -1    0    0  502    0  0.00000000000E+00  0.00000000000E+00  0.15824054115E+04  0.15824054115E+04  0.00000000000E+00 0. -1.
          1   -1    0    0  501    0 -0.00000000000E+00 -0.00000000000E+00 -0.11863713965E+04  0.11863713965E+04  0.00000000000E+00 0. -1.
         25    2    1    2    0    0  0.28977438771E+03 -0.52672746431E+02 -0.18137746019E+03  0.36778850307E+03  0.12500794349E+03 0.  0.
          2    1    1    2  501    0 -0.26125129805E+03  0.50257457617E+02 -0.89223969352E+03  0.93105838886E+03  0.00000000000E+00 0. -1.
          1    1    1    2  502    0 -0.28523089659E+02  0.24152888138E+01  0.14696511688E+04  0.14699299161E+04  0.00000000000E+00 0. -1.
         22    1    3    3    0    0  0.66252966110E+02  0.39535974183E+02 -0.56672190086E+02  0.95730276831E+02  0.00000000000E+00 0.  1.
         22    1    3    3    0    0  0.22352142160E+03 -0.92208720614E+02 -0.12470527011E+03  0.27205822624E+03  0.00000000000E+00 0.  1.
</event>
<event>
 7    1  0.6089676E-006  0.4551657E+02  0.7818608E-02  0.1482656E+00
          2   -1    0    0  502    0  0.00000000000E+00  0.00000000000E+00  0.13935239448E+04  0.13935239448E+04  0.00000000000E+00 0. -1.
          1   -1    0    0  501    0 -0.00000000000E+00 -0.00000000000E+00 -0.34914972639E+03  0.34914972639E+03  0.00000000000E+00 0. -1.
         25    2    1    2    0    0 -0.46838905455E+02 -0.33624051435E+02 -0.63761854113E+02  0.15170746914E+03  0.12500048902E+03 0.  0.
          2    1    1    2  501    0  0.40354263312E+02 -0.11448051233E+02 -0.23920542467E+03  0.24285542950E+03  0.00000000000E+00 0. -1.
          1    1    1    2  502    0  0.64846421428E+01  0.45072102668E+02  0.13473414972E+04  0.13481107726E+04  0.00000000000E+00 0. -1.
         22    1    3    3    0    0  0.20663293656E+02  0.29983383075E+02 -0.43574494540E+02  0.56786543650E+02  0.00000000000E+00 0.  1.
         22    1    3    3    0    0 -0.67502199110E+02 -0.63607434510E+02 -0.20187359574E+02  0.94920925492E+02  0.00000000000E+00 0.  1.
</event>
<event>
 7    1  0.6089676E-006  0.8351203E+02  0.7818608E-02  0.1356016E+00
          2   -1    0    0  502    0  0.00000000000E+00  0.00000000000E+00  0.51780440373E+03  0.51780440373E+03  0.00000000000E+00 0. -1.
          1   -1    0    0  501    0 -0.00000000000E+00 -0.00000000000E+00 -0.68731555117E+03  0.68731555117E+03  0.00000000000E+00 0. -1.
         25    2    1    2    0    0 -0.13157487814E+03  0.73742140297E+01  0.12042013074E+03  0.21792719937E+03  0.12499971499E+03 0.  0.
          2    1    1    2  501    0  0.57145100762E+02  0.20542197700E+02 -0.63255760299E+03  0.63546570759E+03  0.00000000000E+00 0. -1.
          1    1    1    2  502    0  0.74429777375E+02 -0.27916411730E+02  0.34262632481E+03  0.35172704794E+03  0.00000000000E+00 0. -1.
         22    1    3    3    0    0 -0.14383702943E+02  0.52282159982E+02  0.22337439591E+02  0.58645343978E+02  0.00000000000E+00 0.  1.
         22    1    3    3    0    0 -0.11719117519E+03 -0.44907945953E+02  0.98082691148E+02  0.15928185539E+03  0.00000000000E+00 0.  1.
</event>
<event>
 7    1  0.6089676E-006  0.3412255E+02  0.7818608E-02  0.1616013E+00
          2   -1    0    0  502    0  0.00000000000E+00  0.00000000000E+00  0.14342835541E+04  0.14342835541E+04  0.00000000000E+00 0. -1.
          1   -1    0    0  501    0 -0.00000000000E+00 -0.00000000000E+00 -0.31606721595E+02  0.31606721595E+02  0.00000000000E+00 0. -1.
         25    2    1    2    0    0 -0.32475836807E+02 -0.73717199342E+01  0.39250356226E+03  0.41327147607E+03  0.12500097726E+03 0.  0.
          2    1    1    2  501    0  0.20373533602E+02  0.27751260137E+02 -0.70317166813E+01  0.35137705533E+02  0.00000000000E+00 0. -1.
          1    1    1    2  502    0  0.12102303205E+02 -0.20379540203E+02  0.10172049869E+04  0.10174810941E+04  0.00000000000E+00 0. -1.
         22    1    3    3    0    0 -0.20015899369E+02 -0.61376261983E+02  0.13204632674E+03  0.14698270024E+03  0.00000000000E+00 0. -1.
         22    1    3    3    0    0 -0.12459937438E+02  0.54004542049E+02  0.26045723552E+03  0.26628877584E+03  0.00000000000E+00 0. -1.
</event>
<event>
 7    1  0.6089676E-006  0.4906309E+02  0.7818608E-02  0.1558721E+00
          2   -1    0    0  502    0  0.00000000000E+00  0.00000000000E+00  0.91442882777E+03  0.91442882777E+03  0.00000000000E+00 0. -1.
          1   -1    0    0  501    0 -0.00000000000E+00 -0.00000000000E+00 -0.19415052414E+02  0.19415052414E+02  0.00000000000E+00 0. -1.
         25    2    1    2    0    0  0.51179470070E+02  0.42712666676E+02  0.55241217307E+03  0.57028864323E+03  0.12500487027E+03 0.  0.
          2    1    1    2  501    0 -0.22457916011E+02 -0.65863368096E+01  0.64861417199E+01  0.24285960111E+02  0.00000000000E+00 0. -1.
          1    1    1    2  502    0 -0.28721554059E+02 -0.36126329867E+02  0.33611546057E+03  0.33926927685E+03  0.00000000000E+00 0. -1.
         22    1    3    3    0    0  0.38905995197E+02 -0.14409813383E+02  0.52217421395E+02  0.66693165176E+02  0.00000000000E+00 0. -1.
         22    1    3    3    0    0  0.12273474873E+02  0.57122480060E+02  0.50019475167E+03  0.50359547805E+03  0.00000000000E+00 0. -1.
</event>
<event>
 7    1  0.6089676E-006  0.7336688E+02  0.7818608E-02  0.1383746E+00
          2   -1    0    0  502    0  0.00000000000E+00  0.00000000000E+00  0.25727437405E+04  0.25727437405E+04  0.00000000000E+00 0. -1.
          1   -1    0    0  501    0 -0.00000000000E+00 -0.00000000000E+00 -0.46980750136E+02  0.46980750136E+02  0.00000000000E+00 0. -1.
         25    2    1    2    0    0  0.10661998706E+03  0.30800006879E+02  0.14890890703E+03  0.22386394179E+03  0.12499895911E+03 0.  0.
          2    1    1    2  501    0 -0.54296402064E+02 -0.14043021600E+02  0.76525851276E+02  0.94876296546E+02  0.00000000000E+00 0. -1.
          1    1    1    2  502    0 -0.52323585001E+02 -0.16756985279E+02  0.23003282321E+04  0.23009842523E+04  0.00000000000E+00 0. -1.
         22    1    3    3    0    0 -0.19499426736E+02  0.27379364218E+02  0.62433813632E+02  0.70907251481E+02  0.00000000000E+00 0. -1.
         22    1    3    3    0    0  0.12611941380E+03  0.34206426604E+01  0.86475093395E+02  0.15295669031E+03  0.00000000000E+00 0. -1.
</event>
<event>
 7    1  0.6089676E-006  0.5754755E+02  0.7818608E-02  0.1413411E+00
          2   -1    0    0  502    0  0.00000000000E+00  0.00000000000E+00  0.82906399860E+03  0.82906399860E+03  0.00000000000E+00 0. -1.
          1   -1    0    0  501    0 -0.00000000000E+00 -0.00000000000E+00 -0.39963306854E+03  0.39963306854E+03  0.00000000000E+00 0. -1.
         25    2    1    2    0    0 -0.10165402727E+03 -0.16335604523E+02  0.59777919631E+03  0.61932736750E+03  0.12500410939E+03 0.  0.
          2    1    1    2  501    0  0.55592995584E+02 -0.14361532328E+02 -0.38321243168E+03  0.38749013221E+03  0.00000000000E+00 0. -1.
          1    1    1    2  502    0  0.46061031682E+02  0.30697136851E+02  0.21486416544E+03  0.22187956743E+03  0.00000000000E+00 0. -1.
         22    1    3    3    0    0 -0.83203825455E+02 -0.40679222824E+02  0.20029415375E+03  0.22067039622E+03  0.00000000000E+00 0. -1.
         22    1    3    3    0    0 -0.18450201812E+02  0.24343618300E+02  0.39748504255E+03  0.39865697128E+03  0.00000000000E+00 0. -1.
</event>
<event>
 7    1  0.6089676E-006  0.8524969E+02  0.7818608E-02  0.1487884E+00
          2   -1    0    0  502    0  0.00000000000E+00  0.00000000000E+00  0.14319229173E+04  0.14319229173E+04  0.00000000000E+00 0. -1.
          1   -1    0    0  501    0 -0.00000000000E+00 -0.00000000000E+00 -0.25176465355E+03  0.25176465355E+03  0.00000000000E+00 0. -1.
         25    2    1    2    0    0 -0.98930040753E+02  0.15380823769E+02  0.40197790759E+03  0.43270588472E+03  0.12499768707E+03 0.  0.
          2    1    1    2  501    0  0.80646195319E+02 -0.26862565031E+02 -0.22864013333E+03  0.24392973740E+03  0.00000000000E+00 0. -1.
          1    1    1    2  502    0  0.18283845433E+02  0.11481741262E+02  0.10068204895E+04  0.10070519488E+04  0.00000000000E+00 0. -1.
         22    1    3    3    0    0 -0.32535119965E+02  0.25214306701E+02  0.33626240692E+03  0.33877234480E+03  0.00000000000E+00 0.  1.
         22    1    3    3    0    0 -0.66394920787E+02 -0.98334829320E+01  0.65715500678E+02  0.93933539922E+02  0.00000000000E+00 0.  1.
</event>
<event>
 7    1  0.6089676E-006  0.2613319E+03  0.7818608E-02  0.1176615E+00
          2   -1    0    0  502    0  0.00000000000E+00  0.00000000000E+00  0.52332399152E+03  0.52332399152E+03  0.00000000000E+00 0. -1.
          1   -1    0    0  501    0 -0.00000000000E+00 -0.00000000000E+00 -0.89489565033E+03  0.89489565033E+03  0.00000000000E+00 0. -1.
         25    2    1    2    0    0  0.11087105696E+02 -0.17657807325E+03 -0.44589307489E+03  0.49573427517E+03  0.12501638881E+03 0.  0.
          2    1    1    2  501    0 -0.73692838725E+02 -0.84523175875E+02 -0.37920465969E+03  0.39543770137E+03  0.00000000000E+00 0. -1.
          1    1    1    2  502    0  0.62605733029E+02  0.26110124913E+03  0.45352607577E+03  0.52704766531E+03  0.00000000000E+00 0. -1.
         22    1    3    3    0    0  0.42925971267E+00 -0.16995844019E+03 -0.45117201783E+03  0.48212264553E+03  0.00000000000E+00 0.  1.
         22    1    3    3    0    0  0.10657845983E+02 -0.66196330589E+01  0.52789429398E+01  0.13611629638E+02  0.00000000000E+00 0.  1.
</event>
<event>
 7    1  0.6612868E-006  0.6112071E+02  0.7818608E-02  0.1396708E+00
          2   -1    0    0  502    0  0.00000000000E+00  0.00000000000E+00  0.60100294601E+03  0.60100294601E+03  0.00000000000E+00 0. -1.
          1   -1    0    0  501    0 -0.00000000000E+00 -0.00000000000E+00 -0.16301337061E+04  0.16301337061E+04  0.00000000000E+00 0. -1.
         25    2    1    2    0    0 -0.92612076879E+02  0.76772945538E+02 -0.54678475970E+03  0.57364609549E+03  0.12500074988E+03 0.  0.
          2    1    1    2  501    0  0.44264088432E+02 -0.39653825882E+02 -0.10675087856E+04  0.10691617010E+04  0.00000000000E+00 0. -1.
          1    1    1    2  502    0  0.48347988447E+02 -0.37119119656E+02  0.58516278529E+03  0.58832885559E+03  0.00000000000E+00 0. -1.
         22    1    3    3    0    0  0.15536887607E+02 -0.11070655494E+02 -0.16060908385E+02  0.24938064635E+02  0.00000000000E+00 0. -1.
         22    1    3    3    0    0 -0.10814896449E+03  0.87843601032E+02 -0.53072385132E+03  0.54870803085E+03  0.00000000000E+00 0. -1.
</event>
<event>
 7    1  0.6089676E-006  0.8936834E+02  0.7818608E-02  0.1375642E+00
          2   -1    0    0  502    0  0.00000000000E+00  0.00000000000E+00  0.15419254187E+03  0.15419254187E+03  0.00000000000E+00 0. -1.
          1   -1    0    0  501    0 -0.00000000000E+00 -0.00000000000E+00 -0.25367951617E+03  0.25367951617E+03  0.00000000000E+00 0. -1.
         25    2    1    2    0    0  0.12853294272E+03  0.75640751994E+01 -0.30068695650E+02  0.18195346510E+03  0.12500001762E+03 0.  0.
          2    1    1    2  501    0 -0.48097752407E+02  0.29352752451E+01 -0.12069115845E+03  0.12995524367E+03  0.00000000000E+00 0. -1.
          1    1    1    2  502    0 -0.80435190313E+02 -0.10499350444E+02  0.51272879804E+02  0.95963349274E+02  0.00000000000E+00 0. -1.
         22    1    3    3    0    0  0.15256212139E+03  0.14875784573E+02 -0.18834020362E+02  0.15443837014E+03  0.00000000000E+00 0. -1.
         22    1    3    3    0    0 -0.24029178669E+02 -0.73117093737E+01 -0.11234675288E+02  0.27515094953E+02  0.00000000000E+00 0. -1.
</event>
<event>
 7    1  0.6089676E-006  0.8403240E+02  0.7818608E-02  0.1405417E+00
          2   -1    0    0  502    0  0.00000000000E+00  0.00000000000E+00  0.51303761598E+03  0.51303761598E+03  0.00000000000E+00 0. -1.
          1   -1    0    0  501    0 -0.00000000000E+00 -0.00000000000E+00 -0.78470798348E+03  0.78470798348E+03  0.00000000000E+00 0. -1.
         25    2    1    2    0    0 -0.49248617652E+02  0.76936746123E+02 -0.54264953730E+02  0.16405753810E+03  0.12500200542E+03 0.  0.
          2    1    1    2  501    0  0.39801542472E+02  0.66241989135E+01 -0.67107677416E+03  0.67228868770E+03  0.00000000000E+00 0. -1.
          1    1    1    2  502    0  0.94470751799E+01 -0.83560945036E+02  0.45367136040E+03  0.46139937366E+03  0.00000000000E+00 0. -1.
         22    1    3    3    0    0 -0.36615705353E+02  0.48146573125E+02 -0.94986721755E+02  0.11261118813E+03  0.00000000000E+00 0.  1.
         22    1    3    3    0    0 -0.12632912299E+02  0.28790172998E+02  0.40721768025E+02  0.51446349972E+02  0.00000000000E+00 0.  1.
</event>
<event>
 7    1  0.6089676E-006  0.9833529E+02  0.7818608E-02  0.1368677E+00
          2   -1    0    0  502    0  0.00000000000E+00  0.00000000000E+00  0.51416570157E+03  0.51416570157E+03  0.00000000000E+00 0. -1.
          1   -1    0    0  501    0 -0.00000000000E+00 -0.00000000000E+00 -0.65682864260E+03  0.65682864260E+03  0.00000000000E+00 0. -1.
         25    2    1    2    0    0  0.24731580266E+01  0.55751094362E+02 -0.39759792041E+02  0.14254792662E+03  0.12499907714E+03 0.  0.
          2    1    1    2  501    0 -0.23421773728E+01 -0.10213446959E+03 -0.55987860542E+03  0.56912299943E+03  0.00000000000E+00 0. -1.
          1    1    1    2  502    0 -0.13098065380E+00  0.46383375225E+02  0.45697545643E+03  0.45932341812E+03  0.00000000000E+00 0. -1.
         22    1    3    3    0    0 -0.44603534100E+02  0.24529727061E+02 -0.63404673462E+02  0.81310118563E+02  0.00000000000E+00 0. -1.
         22    1    3    3    0    0  0.47076692127E+02  0.31221367301E+02  0.23644881421E+02  0.61237808053E+02  0.00000000000E+00 0. -1.
</event>
<event>
 7    1  0.6089676E-006  0.2236726E+03  0.7818608E-02  0.1213530E+00
          2   -1    0    0  502    0  0.00000000000E+00  0.00000000000E+00  0.11165556464E+04  0.11165556464E+04  0.00000000000E+00 0. -1.
          1   -1    0    0  501    0 -0.00000000000E+00 -0.00000000000E+00 -0.28291635823E+03  0.28291635823E+03  0.00000000000E+00 0. -1.
         25    2    1    2    0    0 -0.12455023322E+02 -0.24084313423E+03  0.80215987445E+02  0.28323128842E+03  0.12499926074E+03 0.  0.
          2    1    1    2  501    0 -0.79120610240E+02  0.37226959480E+02 -0.15653061380E+03  0.17929793789E+03  0.00000000000E+00 0. -1.
          1    1    1    2  502    0  0.91575633562E+02  0.20361617475E+03  0.90995391449E+03  0.93694277828E+03  0.00000000000E+00 0. -1.
         22    1    3    3    0    0  0.43119783347E+02 -0.31113053812E+02  0.42252861444E+01  0.53340330674E+02  0.00000000000E+00 0.  1.
         22    1    3    3    0    0 -0.55574806669E+02 -0.20973008041E+03  0.75990701301E+02  0.22989095774E+03  0.00000000000E+00 0.  1.
</event>
<event>
 7    1  0.6089676E-006  0.1531410E+03  0.7818608E-02  0.1362232E+00
          2   -1    0    0  502    0  0.00000000000E+00  0.00000000000E+00  0.39982115789E+03  0.39982115789E+03  0.00000000000E+00 0. -1.
          1   -1    0    0  501    0 -0.00000000000E+00 -0.00000000000E+00 -0.32214283115E+03  0.32214283115E+03  0.00000000000E+00 0. -1.
         25    2    1    2    0    0  0.14481176957E+03  0.14751705235E+02 -0.23631157317E+02  0.19331744126E+03  0.12500056035E+03 0.  0.
          2    1    1    2  501    0  0.31107913550E+01  0.31273352586E+02 -0.19327374187E+03  0.19581225421E+03  0.00000000000E+00 0. -1.
          1    1    1    2  502    0 -0.14792256092E+03 -0.46025057821E+02  0.29458322593E+03  0.33283429357E+03  0.00000000000E+00 0. -1.
         22    1    3    3    0    0  0.67232732635E+01 -0.33169697778E+01 -0.50864543338E+02  0.51414068706E+02  0.00000000000E+00 0.  1.
         22    1    3    3    0    0  0.13808849630E+03  0.18068675013E+02  0.27233386021E+02  0.14190337255E+03  0.00000000000E+00 0.  1.
</event>
<event>
 7    1  0.6089676E-006  0.1062669E+03  0.7818608E-02  0.1399589E+00
          2   -1    0    0  502    0  0.00000000000E+00  0.00000000000E+00  0.11783834230E+03  0.11783834230E+03  0.00000000000E+00 0. -1.
          1   -1    0    0  501    0 -0.00000000000E+00 -0.00000000000E+00 -0.10481458076E+04  0.10481458076E+04  0.00000000000E+00 0. -1.
         25    2    1    2    0    0  0.87850624353E+02  0.44372446381E+02 -0.42832386099E+03  0.45691734701E+03  0.12500194363E+03 0.  0.
          2    1    1    2  501    0 -0.79215902961E+02 -0.76645364858E+02 -0.59765276953E+03  0.60773226355E+03  0.00000000000E+00 0. -1.
          1    1    1    2  502    0 -0.86347213915E+01  0.32272918477E+02  0.95669165239E+02  0.10133453931E+03  0.00000000000E+00 0. -1.
         22    1    3    3    0    0 -0.10267810728E+02  0.99063578969E+01  0.18175283500E+01  0.14382881257E+02  0.00000000000E+00 0.  1.
         22    1    3    3    0    0  0.98118435081E+02  0.34466088484E+02 -0.43014138934E+03  0.44253446576E+03  0.00000000000E+00 0.  1.
</event>
<event>
 7    1  0.6089676E-006  0.5294887E+02  0.7818608E-02  0.1440128E+00
          2   -1    0    0  502    0  0.00000000000E+00  0.00000000000E+00  0.26009838458E+04  0.26009838458E+04  0.00000000000E+00 0. -1.
          1   -1    0    0  501    0 -0.00000000000E+00 -0.00000000000E+00 -0.20238393584E+03  0.20238393584E+03  0.00000000000E+00 0. -1.
         25    2    1    2    0    0 -0.72949866633E+02 -0.57773878107E+02  0.23212319308E+02  0.15755495953E+03  0.12500099788E+03 0.  0.
          2    1    1    2  501    0  0.48859380857E+02  0.15008647081E+02 -0.13013329292E+03  0.13981120309E+03  0.00000000000E+00 0. -1.
          1    1    1    2  502    0  0.24090485776E+02  0.42765231026E+02  0.25055208836E+04  0.25060016190E+04  0.00000000000E+00 0. -1.
         22    1    3    3    0    0  0.30492424767E+02 -0.40329535214E+02  0.24609911447E+01  0.50619322952E+02  0.00000000000E+00 0.  1.
         22    1    3    3    0    0 -0.10344229140E+03 -0.17444342893E+02  0.20751328163E+02  0.10693563657E+03  0.00000000000E+00 0.  1.
</event>
<event>
 7    1  0.6089676E-006  0.9761774E+02  0.7818608E-02  0.1433551E+00
          2   -1    0    0  502    0  0.00000000000E+00  0.00000000000E+00  0.12322538208E+04  0.12322538208E+04  0.00000000000E+00 0. -1.
          1   -1    0    0  501    0 -0.00000000000E+00 -0.00000000000E+00 -0.59332868001E+03  0.59332868001E+03  0.00000000000E+00 0. -1.
         25    2    1    2    0    0  0.45208515872E+02  0.10385415976E+03  0.20986767413E+02  0.16998477250E+03  0.12499952827E+03 0.  0.
          2    1    1    2  501    0 -0.26685888852E+02 -0.83805198569E+01 -0.51637039233E+03  0.51712740389E+03  0.00000000000E+00 0. -1.
          1    1    1    2  502    0 -0.18522627020E+02 -0.95473639904E+02  0.11343087657E+04  0.11384703245E+04  0.00000000000E+00 0. -1.
         22    1    3    3    0    0 -0.35774182743E+01  0.40578835003E+02 -0.49032574795E+02  0.63746632560E+02  0.00000000000E+00 0.  1.
         22    1    3    3    0    0  0.48785934147E+02  0.63275324758E+02  0.70019342208E+02  0.10623813994E+03  0.00000000000E+00 0.  1.
</event>
<event>
 7    1  0.6089676E-006  0.5000688E+02  0.7818608E-02  0.1562838E+00
          2   -1    0    0  502    0  0.00000000000E+00  0.00000000000E+00  0.61130923200E+03  0.61130923200E+03  0.00000000000E+00 0. -1.
          1   -1    0    0  501    0 -0.00000000000E+00 -0.00000000000E+00 -0.92769339034E+02  0.92769339034E+02  0.00000000000E+00 0. -1.
         25    2    1    2    0    0  0.62437112139E+02 -0.34213104414E+02  0.21641601898E+03  0.25987658732E+03  0.12502406920E+03 0.  0.
          2    1    1    2  501    0 -0.41341446668E+02  0.26766947874E+02 -0.62118343185E+02  0.79273408348E+02  0.00000000000E+00 0. -1.
          1    1    1    2  502    0 -0.21095665470E+02  0.74461565401E+01  0.36424221717E+03  0.36492857537E+03  0.00000000000E+00 0. -1.
         22    1    3    3    0    0  0.57919699389E+02  0.18106320042E+02  0.19311505020E+03  0.20242517881E+03  0.00000000000E+00 0. -1.
         22    1    3    3    0    0  0.45174127495E+01 -0.52319424456E+02  0.23300968777E+02  0.57451408506E+02  0.00000000000E+00 0. -1.
</event>
<event>
 7    1  0.6089676E-006  0.1004724E+03  0.7818608E-02  0.1453800E+00
          2   -1    0    0  502    0  0.00000000000E+00  0.00000000000E+00  0.21889340411E+04  0.21889340411E+04  0.00000000000E+00 0. -1.
          1   -1    0    0  501    0 -0.00000000000E+00 -0.00000000000E+00 -0.13109558438E+03  0.13109558438E+03  0.00000000000E+00 0. -1.
         25    2    1    2    0    0  0.79275288255E+02 -0.77464363408E+02  0.46216458305E+03  0.49143384160E+03  0.12500327962E+03 0.  0.
          2    1    1    2  501    0 -0.83924917606E+02  0.54553041942E+02 -0.94857074665E+02  0.13790319356E+03  0.00000000000E+00 0. -1.
          1    1    1    2  502    0  0.46496293516E+01  0.22911321466E+02  0.16905309483E+04  0.16906925903E+04  0.00000000000E+00 0. -1.
         22    1    3    3    0    0 -0.23670767178E+02  0.14601410675E+01  0.17156491487E+03  0.17319629686E+03  0.00000000000E+00 0.  1.
         22    1    3    3    0    0  0.10294605543E+03 -0.78924504475E+02  0.29059966818E+03  0.31823754474E+03  0.00000000000E+00 0.  1.
</event>
<event>
 7    1  0.6089676E-006  0.1705334E+03  0.7818608E-02  0.1254255E+00
          2   -1    0    0  502    0  0.00000000000E+00  0.00000000000E+00  0.90954767895E+03  0.90954767895E+03  0.00000000000E+00 0. -1.
          1   -1    0    0  501    0 -0.00000000000E+00 -0.00000000000E+00 -0.22187454769E+03  0.22187454769E+03  0.00000000000E+00 0. -1.
         25    2    1    2    0    0 -0.37506236144E+02  0.10029700083E+03 -0.99408063542E+02  0.19227664423E+03  0.12498855426E+03 0.  0.
          2    1    1    2  501    0  0.18165490982E+02  0.73298865451E+02 -0.45683879369E+02  0.88259422008E+02  0.00000000000E+00 0. -1.
          1    1    1    2  502    0  0.19340745163E+02 -0.17359586628E+03  0.83276507417E+03  0.85088616041E+03  0.00000000000E+00 0. -1.
         22    1    3    3    0    0  0.30129027896E+02  0.39740243723E+02 -0.87502064206E+02  0.10071572138E+03  0.00000000000E+00 0. -1.
         22    1    3    3    0    0 -0.67635264040E+02  0.60556757106E+02 -0.11905999336E+02  0.91560922850E+02  0.00000000000E+00 0. -1.
</event>
<event>
 7    1  0.6089676E-006  0.5347531E+02  0.7818608E-02  0.1436145E+00
          2   -1    0    0  502    0  0.00000000000E+00  0.00000000000E+00  0.50859038863E+04  0.50859038863E+04  0.00000000000E+00 0. -1.
          1   -1    0    0  501    0 -0.00000000000E+00 -0.00000000000E+00 -0.95239748096E+02  0.95239748096E+02  0.00000000000E+00 0. -1.
         25    2    1    2    0    0  0.19963976493E+02  0.74624873669E+02  0.15962004703E+04  0.16029499257E+04  0.12500036328E+03 0.  0.
          2    1    1    2  501    0  0.22687747244E+02 -0.48393089001E+02 -0.83895571996E+02  0.99474076716E+02  0.00000000000E+00 0. -1.
          1    1    1    2  502    0 -0.42651723737E+02 -0.26231784668E+02  0.34783592399E+04  0.34787196320E+04  0.00000000000E+00 0. -1.
         22    1    3    3    0    0  0.53682004985E+02  0.37690933730E+02  0.13566578854E+04  0.13582426080E+04  0.00000000000E+00 0.  1.
         22    1    3    3    0    0 -0.33718028492E+02  0.36933939939E+02  0.23954258494E+03  0.24470731776E+03  0.00000000000E+00 0.  1.
</event>
<event>
 7    1  0.6089676E-006  0.6724647E+02  0.7818608E-02  0.1373274E+00
          2   -1    0    0  502    0  0.00000000000E+00  0.00000000000E+00  0.31507793869E+04  0.31507793869E+04  0.00000000000E+00 0. -1.
          1   -1    0    0  501    0 -0.00000000000E+00 -0.00000000000E+00 -0.18513904598E+03  0.18513904598E+03  0.00000000000E+00 0. -1.
         25    2    1    2    0    0  0.38369886367E+02  0.19401037563E+01  0.47368004937E+03  0.49140030389E+03  0.12500182924E+03 0.  0.
          2    1    1    2  501    0 -0.27038276681E+02  0.62367790288E+02 -0.16931023971E+03  0.18244661395E+03  0.00000000000E+00 0. -1.
          1    1    1    2  502    0 -0.11331609685E+02 -0.64307894044E+02  0.26612705312E+04  0.26620715150E+04  0.00000000000E+00 0. -1.
         22    1    3    3    0    0  0.17907787049E+02  0.27426032409E+02  0.24178569889E+02  0.40712152149E+02  0.00000000000E+00 0.  1.
         22    1    3    3    0    0  0.20462099318E+02 -0.25485928653E+02  0.44950147948E+03  0.45068815175E+03  0.00000000000E+00 0.  1.
</event>
<event>
 7    1  0.6089676E-006  0.6510330E+02  0.7818608E-02  0.1479498E+00
          2   -1    0    0  502    0  0.00000000000E+00  0.00000000000E+00  0.23436914918E+03  0.23436914918E+03  0.00000000000E+00 0. -1.
          1   -1    0    0  501    0 -0.00000000000E+00 -0.00000000000E+00 -0.98147064379E+03  0.98147064379E+03  0.00000000000E+00 0. -1.
         25    2    1    2    0    0 -0.34182171260E+02  0.36821141040E+02 -0.68242880126E+03  0.69559925444E+03  0.12500014691E+03 0.  0.
          2    1    1    2  501    0  0.63205057677E+02 -0.44364392020E+02 -0.28633195059E+03  0.29656207533E+03  0.00000000000E+00 0. -1.
          1    1    1    2  502    0 -0.29022886417E+02  0.75432509800E+01  0.22165925725E+03  0.22367846320E+03  0.00000000000E+00 0. -1.
         22    1    3    3    0    0 -0.22129659652E+02 -0.78259618456E+01 -0.18043295282E+02  0.29606215897E+02  0.00000000000E+00 0.  1.
         22    1    3    3    0    0 -0.12052511608E+02  0.44647102886E+02 -0.66438550598E+03  0.66599303855E+03  0.00000000000E+00 0.  1.
</event>
<event>
 7    1  0.6089676E-006  0.1327655E+03  0.7818608E-02  0.1318228E+00
          2   -1    0    0  502    0  0.00000000000E+00  0.00000000000E+00  0.67818494576E+03  0.67818494576E+03  0.00000000000E+00 0. -1.
          1   -1    0    0  501    0 -0.00000000000E+00 -0.00000000000E+00 -0.19972575533E+03  0.19972575533E+03  0.00000000000E+00 0. -1.
         25    2    1    2    0    0 -0.14169903685E+03  0.10513013361E+03  0.28735938451E+03  0.35962646364E+03  0.12499926178E+03 0.  0.
          2    1    1    2  501    0  0.11509635496E+03 -0.59208782046E+02 -0.13550924662E+03  0.18739158657E+03  0.00000000000E+00 0. -1.
          1    1    1    2  502    0  0.26602681883E+02 -0.45921351562E+02  0.32660905254E+03  0.33089265089E+03  0.00000000000E+00 0. -1.
         22    1    3    3    0    0 -0.10585293036E+03  0.18882266283E+02  0.21870760660E+03  0.24370966339E+03  0.00000000000E+00 0. -1.
         22    1    3    3    0    0 -0.35846106486E+02  0.86247867325E+02  0.68651777911E+02  0.11591680024E+03  0.00000000000E+00 0. -1.
</event>
<event>
 7    1  0.6089676E-006  0.8859816E+02  0.7818608E-02  0.1345800E+00
          2   -1    0    0  502    0  0.00000000000E+00  0.00000000000E+00  0.20570725222E+04  0.20570725222E+04  0.00000000000E+00 0. -1.
          1   -1    0    0  501    0 -0.00000000000E+00 -0.00000000000E+00 -0.55707425556E+02  0.55707425556E+02  0.00000000000E+00 0. -1.
         25    2    1    2    0    0  0.64676118643E+02  0.43572100492E+02  0.62273216623E+03  0.63992221764E+03  0.12499426192E+03 0.  0.
          2    1    1    2  501    0  0.28181657783E+02 -0.55723651960E+02 -0.24150286254E+02  0.66951979428E+02  0.00000000000E+00 0. -1.
          1    1    1    2  502    0 -0.92857776426E+02  0.12151551468E+02  0.14027832167E+04  0.14059057507E+04  0.00000000000E+00 0. -1.
         22    1    3    3    0    0 -0.96311965157E+01 -0.36590006030E+02  0.14648143468E+03  0.15128912450E+03  0.00000000000E+00 0. -1.
         22    1    3    3    0    0  0.74307315159E+02  0.80162106522E+02  0.47625073155E+03  0.48863309314E+03  0.00000000000E+00 0. -1.
</event>
<event>
 7    1  0.6089676E-006  0.5911405E+02  0.7818608E-02  0.1532278E+00
          2   -1    0    0  502    0  0.00000000000E+00  0.00000000000E+00  0.32390113427E+03  0.32390113427E+03  0.00000000000E+00 0. -1.
          1   -1    0    0  501    0 -0.00000000000E+00 -0.00000000000E+00 -0.32000027249E+03  0.32000027249E+03  0.00000000000E+00 0. -1.
         25    2    1    2    0    0 -0.64252747438E+02  0.90627517758E+01  0.10647228697E+03  0.17655685505E+03  0.12500170458E+03 0.  0.
          2    1    1    2  501    0  0.12681116697E+02  0.19241141128E+02 -0.27972814623E+03  0.28067573466E+03  0.00000000000E+00 0. -1.
          1    1    1    2  502    0  0.51571630741E+02 -0.28303892904E+02  0.17715672104E+03  0.18666881706E+03  0.00000000000E+00 0. -1.
         22    1    3    3    0    0 -0.91628933868E+02  0.38494595839E+02  0.64727294048E+02  0.11860572509E+03  0.00000000000E+00 0. -1.
         22    1    3    3    0    0  0.27376186429E+02 -0.29431844063E+02  0.41744992925E+02  0.57951129952E+02  0.00000000000E+00 0. -1.
</event>
<event>
 7    1  0.6089676E-006  0.1487157E+03  0.7818608E-02  0.1294235E+00
          2   -1    0    0  502    0  0.00000000000E+00  0.00000000000E+00  0.44751930385E+03  0.44751930385E+03  0.00000000000E+00 0. -1.
          1   -1    0    0  501    0 -0.00000000000E+00 -0.00000000000E+00 -0.16812900062E+03  0.16812900062E+03  0.00000000000E+00 0. -1.
         25    2    1    2    0    0  0.15764525850E+03  0.94130466401E+01 -0.47281385239E+02  0.20688153113E+03  0.12499522215E+03 0.  0.
          2    1    1    2  501    0 -0.13297334570E+03  0.44158489139E+02  0.93971347661E+02  0.16870831933E+03  0.00000000000E+00 0. -1.
          1    1    1    2  502    0 -0.24671912798E+02 -0.53571535779E+02  0.23270034081E+03  0.24005845400E+03  0.00000000000E+00 0. -1.
         22    1    3    3    0    0  0.17766367510E+03  0.16349579949E+01 -0.32016477254E+02  0.18053284840E+03  0.00000000000E+00 0. -1.
         22    1    3    3    0    0 -0.20018416596E+02  0.77780886452E+01 -0.15264907984E+02  0.26348682733E+02  0.00000000000E+00 0. -1.
</event>
<event>
 7    1  0.6953959E-006  0.8858630E+02  0.7818608E-02  0.1333349E+00
          2   -1    0    0  502    0  0.00000000000E+00  0.00000000000E+00  0.22643893498E+04  0.22643893498E+04  0.00000000000E+00 0. -1.
          1   -1    0    0  501    0 -0.00000000000E+00 -0.00000000000E+00 -0.16540685754E+04  0.16540685754E+04  0.00000000000E+00 0. -1.
         25    2    1    2    0    0  0.11704152793E+03 -0.45815359338E+02 -0.10077490893E+03  0.20393811838E+03  0.12504961994E+03 0.  0.
          2    1    1    2  501    0 -0.64714167487E+02 -0.25536969317E+02 -0.15000209628E+04  0.15016334270E+04  0.00000000000E+00 0. -1.
          1    1    1    2  502    0 -0.52327360443E+02  0.71352328655E+02  0.22111166461E+04  0.22128863798E+04  0.00000000000E+00 0. -1.
         22    1    3    3    0    0 -0.59612533478E+01 -0.45673233427E+02 -0.18622221350E+01  0.46098250124E+02  0.00000000000E+00 0. -1.
         22    1    3    3    0    0  0.12300278128E+03 -0.14212591053E+00 -0.98912686792E+02  0.15783986825E+03  0.00000000000E+00 0. -1.
</event>
<event>
 7    1  0.6089676E-006  0.1692707E+03  0.7818608E-02  0.1309104E+00
          2   -1    0    0  502    0  0.00000000000E+00  0.00000000000E+00  0.16036779243E+04  0.16036779243E+04  0.00000000000E+00 0. -1.
          1   -1    0    0  501    0 -0.00000000000E+00 -0.00000000000E+00 -0.13656052722E+04  0.13656052722E+04  0.00000000000E+00 0. -1.
         25    2    1    2    0    0 -0.11407188188E+03  0.88616820660E+02 -0.22171066417E+03  0.29265295246E+03  0.12499918735E+03 0.  0.
          2    1    1    2  501    0 -0.40895714788E+02 -0.19243335402E+02 -0.11033638152E+04  0.11042891261E+04  0.00000000000E+00 0. -1.
          1    1    1    2  502    0  0.15496759666E+03 -0.69373485258E+02  0.15631471314E+04  0.15723411179E+04  0.00000000000E+00 0. -1.
         22    1    3    3    0    0 -0.13697377207E+03  0.73092660117E+02 -0.21313443578E+03  0.26368663014E+03  0.00000000000E+00 0. -1.
         22    1    3    3    0    0  0.22901890199E+02  0.15524160543E+02 -0.85762283890E+01  0.28966322318E+02  0.00000000000E+00 0. -1.
</event>
<event>
 7    1  0.6089676E-006  0.8380351E+02  0.7818608E-02  0.1327488E+00
          2   -1    0    0  502    0  0.00000000000E+00  0.00000000000E+00  0.47947754670E+03  0.47947754670E+03  0.00000000000E+00 0. -1.
          1   -1    0    0  501    0 -0.00000000000E+00 -0.00000000000E+00 -0.13512704873E+04  0.13512704873E+04  0.00000000000E+00 0. -1.
         25    2    1    2    0    0  0.23751089791E+02 -0.14051734552E+03 -0.12259606117E+03  0.22575092171E+03  0.12499778312E+03 0.  0.
          2    1    1    2  501    0 -0.47431905473E+02  0.61201144854E+02 -0.11718041335E+04  0.11743595246E+04  0.00000000000E+00 0. -1.
          1    1    1    2  502    0  0.23680815683E+02  0.79316200661E+02  0.42260725407E+03  0.43063758766E+03  0.00000000000E+00 0. -1.
         22    1    3    3    0    0 -0.38562475364E+02 -0.10473977209E+02 -0.50891912791E+02  0.64705142704E+02  0.00000000000E+00 0.  1.
         22    1    3    3    0    0  0.62313565155E+02 -0.13004336831E+03 -0.71704148377E+02  0.16104577901E+03  0.00000000000E+00 0.  1.
</event>
<event>
 7    1  0.6089676E-006  0.6037002E+02  0.7818608E-02  0.1454717E+00
          2   -1    0    0  502    0  0.00000000000E+00  0.00000000000E+00  0.15492375387E+04  0.15492375387E+04  0.00000000000E+00 0. -1.
          1   -1    0    0  501    0 -0.00000000000E+00 -0.00000000000E+00 -0.40914549504E+03  0.40914549504E+03  0.00000000000E+00 0. -1.
         25    2    1    2    0    0 -0.46518102255E+02  0.70906127552E+02  0.34179026888E+03  0.37368761014E+03  0.12502091549E+03 0.  0.
          2    1    1    2  501    0 -0.34327186800E+01 -0.38494926675E+02 -0.39150081841E+03  0.39340377953E+03  0.00000000000E+00 0. -1.
          1    1    1    2  502    0  0.49950820935E+02 -0.32411200877E+02  0.11898025932E+04  0.11912916441E+04  0.00000000000E+00 0. -1.
         22    1    3    3    0    0 -0.76313326270E+02  0.26930218512E+01  0.18426888419E+03  0.19946427703E+03  0.00000000000E+00 0.  1.
         22    1    3    3    0    0  0.29795224015E+02  0.68213105700E+02  0.15752138470E+03  0.17422333311E+03  0.00000000000E+00 0.  1.
</event>
<event>
 7    1  0.6089676E-006  0.1505512E+03  0.7818608E-02  0.1220464E+00
          2   -1    0    0  502    0  0.00000000000E+00  0.00000000000E+00  0.10889347213E+04  0.10889347213E+04  0.00000000000E+00 0. -1.
          1   -1    0    0  501    0 -0.00000000000E+00 -0.00000000000E+00 -0.41445528115E+03  0.41445528115E+03  0.00000000000E+00 0. -1.
         25    2    1    2    0    0  0.14668892083E+03  0.44243505403E+02 -0.24840915465E+02  0.19929104726E+03  0.12499889267E+03 0.  0.
          2    1    1    2  501    0 -0.74161502994E+02 -0.14077979928E+03 -0.27747912377E+03  0.31986488482E+03  0.00000000000E+00 0. -1.
          1    1    1    2  502    0 -0.72527417840E+02  0.96536293880E+02  0.97679947933E+03  0.98423407033E+03  0.00000000000E+00 0. -1.
         22    1    3    3    0    0  0.11027455987E+02  0.42600426944E+02 -0.44052989464E+02  0.62266098658E+02  0.00000000000E+00 0.  1.
         22    1    3    3    0    0  0.13566146485E+03  0.16430784590E+01  0.19212073999E+02  0.13702494860E+03  0.00000000000E+00 0.  1.
</event>
<event>
 7    1  0.6089676E-006  0.6509212E+02  0.7818608E-02  0.1379475E+00
          2   -1    0    0  502    0  0.00000000000E+00  0.00000000000E+00  0.14591592977E+04  0.14591592977E+04  0.00000000000E+00 0. -1.
          1   -1    0    0  501    0 -0.00000000000E+00 -0.00000000000E+00 -0.75405185904E+02  0.75405185904E+02  0.00000000000E+00 0. -1.
         25    2    1    2    0    0 -0.11185295275E+02 -0.11257088119E+02  0.58521263002E+03  0.59862368650E+03  0.12499865135E+03 0.  0.
          2    1    1    2  501    0  0.53627178858E+02 -0.38095428882E+02 -0.51418186558E+02  0.83492310561E+02  0.00000000000E+00 0. -1.
          1    1    1    2  502    0 -0.42441883582E+02  0.49352517001E+02  0.84995966835E+03  0.85244848656E+03  0.00000000000E+00 0. -1.
         22    1    3    3    0    0  0.52540835798E+02  0.10757809922E+02  0.34440572970E+03  0.34855641803E+03  0.00000000000E+00 0.  1.
         22    1    3    3    0    0 -0.63726131073E+02 -0.22014898041E+02  0.24080690032E+03  0.25006726847E+03  0.00000000000E+00 0.  1.
</event>
<event>
 7    1  0.6089676E-006  0.6090127E+02  0.7818608E-02  0.1446612E+00
          2   -1    0    0  502    0  0.00000000000E+00  0.00000000000E+00  0.28559981702E+04  0.28559981702E+04  0.00000000000E+00 0. -1.
          1   -1    0    0  501    0 -0.00000000000E+00 -0.00000000000E+00 -0.79513574837E+02  0.79513574837E+02  0.00000000000E+00 0. -1.
         25    2    1    2    0    0 -0.37089027861E+02 -0.16161566554E+02  0.86391406950E+02  0.15724559580E+03  0.12500363988E+03 0.  0.
          2    1    1    2  501    0  0.10939748612E+02 -0.39166204979E+02 -0.34291792249E+02  0.53193953865E+02  0.00000000000E+00 0. -1.
          1    1    1    2  502    0  0.26149279249E+02  0.55327771533E+02  0.27243849806E+04  0.27250721953E+04  0.00000000000E+00 0. -1.
         22    1    3    3    0    0 -0.23883344300E+02 -0.15002593309E+01 -0.30462220028E+02  0.38737730471E+02  0.00000000000E+00 0. -1.
         22    1    3    3    0    0 -0.13205683561E+02 -0.14661307223E+02  0.11685362698E+03  0.11850786533E+03  0.00000000000E+00 0. -1.
</event>
<event>
 7    1  0.6089676E-006  0.1261281E+03  0.7818608E-02  0.1433778E+00
          2   -1    0    0  502    0  0.00000000000E+00  0.00000000000E+00  0.59345169312E+03  0.59345169312E+03  0.00000000000E+00 0. -1.
          1   -1    0    0  501    0 -0.00000000000E+00 -0.00000000000E+00 -0.10834855479E+03  0.10834855479E+03  0.00000000000E+00 0. -1.
         25    2    1    2    0    0 -0.48453448935E+02  0.11622278031E+03  0.15403943897E+03  0.23496586738E+03  0.12500135479E+03 0.  0.
          2    1    1    2  501    0  0.67931117398E+02 -0.10685951281E+03 -0.81943477208E+01  0.12688868950E+03  0.00000000000E+00 0. -1.
          1    1    1    2  502    0 -0.19477668463E+02 -0.93632674986E+01  0.33925804708E+03  0.33994569103E+03  0.00000000000E+00 0. -1.
         22    1    3    3    0    0 -0.28766157158E+02  0.13734905825E+01  0.10441653636E+03  0.10831524057E+03  0.00000000000E+00 0.  1.
         22    1    3    3    0    0 -0.19687291777E+02  0.11484928973E+03  0.49622902613E+02  0.12665062681E+03  0.00000000000E+00 0.  1.
</event>
<event>
 7    1  0.6089676E-006  0.8594139E+02  0.7818608E-02  0.1316570E+00
          2   -1    0    0  502    0  0.00000000000E+00  0.00000000000E+00  0.91846925683E+03  0.91846925683E+03  0.00000000000E+00 0. -1.
          1   -1    0    0  501    0 -0.00000000000E+00 -0.00000000000E+00 -0.10746764760E+04  0.10746764760E+04  0.00000000000E+00 0. -1.
         25    2    1    2    0    0 -0.51595867986E+02 -0.60259681692E+02  0.20928782968E+03  0.25635805439E+03  0.12499877427E+03 0.  0.
          2    1    1    2  501    0  0.78777640701E+02 -0.26806460761E+02 -0.10464489584E+04  0.10497523163E+04  0.00000000000E+00 0. -1.
          1    1    1    2  502    0 -0.27181772715E+02  0.87066142453E+02  0.68095390954E+03  0.68703536215E+03  0.00000000000E+00 0. -1.
         22    1    3    3    0    0  0.10103186542E+02 -0.81831999401E+02  0.10957211199E+03  0.13712985901E+03  0.00000000000E+00 0. -1.
         22    1    3    3    0    0 -0.61699054527E+02  0.21572317709E+02  0.99715717688E+02  0.11922819539E+03  0.00000000000E+00 0. -1.
</event>
<event>
 7    1  0.6089676E-006  0.9582236E+02  0.7818608E-02  0.1308160E+00
          2   -1    0    0  502    0  0.00000000000E+00  0.00000000000E+00  0.65675405722E+03  0.65675405722E+03  0.00000000000E+00 0. -1.
          1   -1    0    0  501    0 -0.00000000000E+00 -0.00000000000E+00 -0.35115005054E+03  0.35115005054E+03  0.00000000000E+00 0. -1.
         25    2    1    2    0    0  0.19795578670E+02  0.10131942074E+03  0.41593352673E+02  0.16736991110E+03  0.12500076080E+03 0.  0.
          2    1    1    2  501    0 -0.77286780425E+02 -0.22618594640E+02 -0.27820669604E+03  0.28962702390E+03  0.00000000000E+00 0. -1.
          1    1    1    2  502    0  0.57491201755E+02 -0.78700826104E+02  0.54221735005E+03  0.55090717276E+03  0.00000000000E+00 0. -1.
         22    1    3    3    0    0 -0.35672841026E+02  0.21085190712E+02 -0.25797828009E+02  0.48812547405E+02  0.00000000000E+00 0. -1.
         22    1    3    3    0    0  0.55468419695E+02  0.80234230032E+02  0.67391180681E+02  0.11855736369E+03  0.00000000000E+00 0. -1.
</event>
<event>
 7    1  0.6089676E-006  0.3832053E+03  0.7818608E-02  0.1225970E+00
          2   -1    0    0  502    0  0.00000000000E+00  0.00000000000E+00  0.26392260758E+04  0.26392260758E+04  0.00000000000E+00 0. -1.
          1   -1    0    0  501    0 -0.00000000000E+00 -0.00000000000E+00 -0.52218040124E+03  0.52218040124E+03  0.00000000000E+00 0. -1.
         25    2    1    2    0    0 -0.97589455073E+02 -0.39726355732E+03  0.19141910560E+03  0.46862368652E+03  0.12499939946E+03 0.  0.
          2    1    1    2  501    0  0.39395540939E+02  0.21304527935E+02 -0.36653678609E+03  0.36926292410E+03  0.00000000000E+00 0. -1.
          1    1    1    2  502    0  0.58193914134E+02  0.37595902938E+03  0.22921633551E+04  0.23235198664E+04  0.00000000000E+00 0. -1.
         22    1    3    3    0    0 -0.10338860667E+03 -0.22918160502E+03  0.15860869145E+03  0.29727113730E+03  0.00000000000E+00 0. -1.
         22    1    3    3    0    0  0.57991515990E+01 -0.16808195230E+03  0.32810414150E+02  0.17135254922E+03  0.00000000000E+00 0. -1.
</event>
<event>
 7    1  0.6089676E-006  0.9495343E+02  0.7818608E-02  0.1370739E+00
          2   -1    0    0  502    0  0.00000000000E+00  0.00000000000E+00  0.60530990589E+03  0.60530990589E+03  0.00000000000E+00 0. -1.
          1   -1    0    0  501    0 -0.00000000000E+00 -0.00000000000E+00 -0.38273727643E+03  0.38273727643E+03  0.00000000000E+00 0. -1.
         25    2    1    2    0    0 -0.33482383275E+02  0.11377462755E+03  0.14842894960E+03  0.22742480783E+03  0.12500061709E+03 0.  0.
          2    1    1    2  501    0 -0.93798224273E+01 -0.93956160941E+02 -0.33536289017E+03  0.34840208000E+03  0.00000000000E+00 0. -1.
          1    1    1    2  502    0  0.42862205702E+02 -0.19818466612E+02  0.40950657002E+03  0.41222029449E+03  0.00000000000E+00 0. -1.
         22    1    3    3    0    0  0.10071496841E+02  0.91624063710E+02  0.26255474479E+02  0.95842339493E+02  0.00000000000E+00 0.  1.
         22    1    3    3    0    0 -0.43553880115E+02  0.22150563843E+02  0.12217347512E+03  0.13158246834E+03  0.00000000000E+00 0.  1.
</event>
<event>
 7    1  0.6089676E-006  0.8006078E+02  0.7818608E-02  0.1408606E+00
          2   -1    0    0  502    0  0.00000000000E+00  0.00000000000E+00  0.18316528661E+04  0.18316528661E+04  0.00000000000E+00 0. -1.
          1   -1    0    0  501    0 -0.00000000000E+00 -0.00000000000E+00 -0.86000638311E+03  0.86000638311E+03  0.00000000000E+00 0. -1.
         25    2    1    2    0    0  0.42693297753E+02 -0.58402395019E+01  0.94418745805E+03  0.95339783760E+03  0.12498261771E+03 0.  0.
          2    1    1    2  501    0 -0.78898020931E+02 -0.14043267547E+02 -0.85303904357E+03  0.85679502853E+03  0.00000000000E+00 0. -1.
          1    1    1    2  502    0  0.36204723178E+02  0.19883507049E+02  0.88049806847E+03  0.88146638303E+03  0.00000000000E+00 0. -1.
         22    1    3    3    0    0  0.41060632762E+02 -0.62544647129E+02  0.48939035469E+03  0.49507648672E+03  0.00000000000E+00 0.  1.
         22    1    3    3    0    0  0.16326649909E+01  0.56704407627E+02  0.45479710336E+03  0.45832135087E+03  0.00000000000E+00 0.  1.
</event>
<event>
 7    1  0.6089676E-006  0.8110221E+02  0.7818608E-02  0.1466022E+00
          2   -1    0    0  502    0  0.00000000000E+00  0.00000000000E+00  0.18109181434E+04  0.18109181434E+04  0.00000000000E+00 0. -1.
          1   -1    0    0  501    0 -0.00000000000E+00 -0.00000000000E+00 -0.84472382340E+03  0.84472382340E+03  0.00000000000E+00 0. -1.
         25    2    1    2    0    0  0.68585194920E+02  0.30780507401E+01  0.87996326105E+03  0.89144481233E+03  0.12500043715E+03 0.  0.
          2    1    1    2  501    0  0.13511743517E+02  0.22797905769E+02 -0.83677072160E+03  0.83719027243E+03  0.00000000000E+00 0. -1.
          1    1    1    2  502    0 -0.82096938437E+02 -0.25875956510E+02  0.92300178055E+03  0.92700688202E+03  0.00000000000E+00 0. -1.
         22    1    3    3    0    0  0.32713117450E+02  0.44407004294E+02  0.15687470746E+03  0.16628831566E+03  0.00000000000E+00 0. -1.
         22    1    3    3    0    0  0.35872077470E+02 -0.41328953554E+02  0.72308855359E+03  0.72515649668E+03  0.00000000000E+00 0. -1.
</event>
<event>
 7    1  0.6089676E-006  0.1090469E+03  0.7818608E-02  0.1384302E+00
          2   -1    0    0  502    0  0.00000000000E+00  0.00000000000E+00  0.35861768168E+03  0.35861768168E+03  0.00000000000E+00 0. -1.
          1   -1    0    0  501    0 -0.00000000000E+00 -0.00000000000E+00 -0.42467328381E+03  0.42467328381E+03  0.00000000000E+00 0. -1.
         25    2    1    2    0    0  0.84818731994E+02 -0.18248276393E+01 -0.42953691129E+02  0.15705438792E+03  0.12499405542E+03 0.  0.
          2    1    1    2  501    0  0.22694547689E+02 -0.28966989044E+02 -0.31318631896E+03  0.31534076700E+03  0.00000000000E+00 0. -1.
          1    1    1    2  502    0 -0.10751327968E+03  0.30791816684E+02  0.29008440796E+03  0.31089581056E+03  0.00000000000E+00 0. -1.
         22    1    3    3    0    0  0.80553858946E+02  0.51985881378E+02 -0.17835568972E+02  0.97516991208E+02  0.00000000000E+00 0. -1.
         22    1    3    3    0    0  0.42648730479E+01 -0.53810709017E+02 -0.25118122157E+02  0.59537396716E+02  0.00000000000E+00 0. -1.
</event>
<event>
 7    1  0.6089676E-006  0.4442107E+02  0.7818608E-02  0.1505154E+00
          2   -1    0    0  502    0  0.00000000000E+00  0.00000000000E+00  0.59410688774E+03  0.59410688774E+03  0.00000000000E+00 0. -1.
          1   -1    0    0  501    0 -0.00000000000E+00 -0.00000000000E+00 -0.30252246554E+02  0.30252246554E+02  0.00000000000E+00 0. -1.
         25    2    1    2    0    0  0.67274178484E+02 -0.24613192216E+02  0.39122350440E+03  0.41690742766E+03  0.12499739406E+03 0.  0.
          2    1    1    2  501    0 -0.36756559182E+02 -0.12157968445E+01  0.74794209827E+01  0.37529515626E+02  0.00000000000E+00 0. -1.
          1    1    1    2  502    0 -0.30517619302E+02  0.25828989060E+02  0.16515171580E+03  0.16992219100E+03  0.00000000000E+00 0. -1.
         22    1    3    3    0    0  0.31502700445E+02 -0.72344363903E+02  0.16414404371E+03  0.18212466667E+03  0.00000000000E+00 0.  1.
         22    1    3    3    0    0  0.35771478039E+02  0.47731171688E+02  0.22707946070E+03  0.23478276100E+03  0.00000000000E+00 0.  1.
</event>
<event>
 7    1  0.6089676E-006  0.9098775E+02  0.7818608E-02  0.1400996E+00
          2   -1    0    0  502    0  0.00000000000E+00  0.00000000000E+00  0.95636708758E+03  0.95636708758E+03  0.00000000000E+00 0. -1.
          1   -1    0    0  501    0 -0.00000000000E+00 -0.00000000000E+00 -0.26594800163E+04  0.26594800163E+04  0.00000000000E+00 0. -1.
         25    2    1    2    0    0  0.84538133503E+01  0.12400653269E+03  0.35938453951E+03  0.40028808894E+03  0.12499687916E+03 0.  0.
          2    1    1    2  501    0 -0.49675442846E+00 -0.38582846490E+02 -0.26356945147E+04  0.26359769456E+04  0.00000000000E+00 0. -1.
          1    1    1    2  502    0 -0.79570589218E+01 -0.85423686200E+02  0.57319704650E+03  0.57958206932E+03  0.00000000000E+00 0. -1.
         22    1    3    3    0    0  0.57474041345E+02  0.78579164929E+02  0.13693172448E+03  0.16801264167E+03  0.00000000000E+00 0. -1.
         22    1    3    3    0    0 -0.49020227995E+02  0.45427367761E+02  0.22245281503E+03  0.23227544728E+03  0.00000000000E+00 0. -1.
</event>
<event>
 7    1  0.6089676E-006  0.2280454E+03  0.7818608E-02  0.1330718E+00
          2   -1    0    0  502    0  0.00000000000E+00  0.00000000000E+00  0.20066630876E+04  0.20066630876E+04  0.00000000000E+00 0. -1.
          1   -1    0    0  501    0 -0.00000000000E+00 -0.00000000000E+00 -0.14898376909E+03  0.14898376909E+03  0.00000000000E+00 0. -1.
         25    2    1    2    0    0 -0.16871762156E+03  0.15839959514E+03  0.11783666866E+03  0.28821335804E+03  0.12500156682E+03 0.  0.
          2    1    1    2  501    0  0.14503950981E+03 -0.17268974665E+03  0.13599886454E+03  0.26335128471E+03  0.00000000000E+00 0. -1.
          1    1    1    2  502    0  0.23678111753E+02  0.14290151503E+02  0.16038437853E+04  0.16040822140E+04  0.00000000000E+00 0. -1.
         22    1    3    3    0    0 -0.21719147412E+02  0.59342112179E+02  0.88188386155E+02  0.10849147015E+03  0.00000000000E+00 0. -1.
         22    1    3    3    0    0 -0.14699847415E+03  0.99057482965E+02  0.29648282508E+02  0.17972188790E+03  0.00000000000E+00 0. -1.
</event>
<event>
 7    1  0.6089676E-006  0.1084183E+03  0.7818608E-02  0.1460177E+00
          2   -1    0    0  502    0  0.00000000000E+00  0.00000000000E+00  0.19867750819E+04  0.19867750819E+04  0.00000000000E+00 0. -1.
          1   -1    0    0  501    0 -0.00000000000E+00 -0.00000000000E+00 -0.32861592541E+03  0.32861592541E+03  0.00000000000E+00 0. -1.
         25    2    1    2    0    0  0.12022785337E+03  0.43928299084E+02  0.22547694347E+03  0.28783569183E+03  0.12500040506E+03 0.  0.
          2    1    1    2  501    0 -0.19839635887E+02 -0.58361611526E+01 -0.29540881523E+03  0.29613179506E+03  0.00000000000E+00 0. -1.
          1    1    1    2  502    0 -0.10038821748E+03 -0.38092137932E+02  0.17280910283E+04  0.17314235205E+04  0.00000000000E+00 0. -1.
         22    1    3    3    0    0 -0.89085164700E+01 -0.28570914550E+02  0.49404533227E+02  0.57762156533E+02  0.00000000000E+00 0.  1.
         22    1    3    3    0    0  0.12913636984E+03  0.72499213635E+02  0.17607241025E+03  0.23007353529E+03  0.00000000000E+00 0.  1.
</event>
<event>
 7    1  0.6089676E-006  0.1257406E+03  0.7818608E-02  0.1291974E+00
          2   -1    0    0  502    0  0.00000000000E+00  0.00000000000E+00  0.29350042741E+04  0.29350042741E+04  0.00000000000E+00 0. -1.
          1   -1    0    0  501    0 -0.00000000000E+00 -0.00000000000E+00 -0.51736510356E+03  0.51736510356E+03  0.00000000000E+00 0. -1.
         25    2    1    2    0    0 -0.70376126348E+02  0.38983432424E+02  0.45702557300E+02  0.15551954222E+03  0.12500038842E+03 0.  0.
          2    1    1    2  501    0  0.63780184665E+01  0.70955768255E+02 -0.45827568054E+03  0.46378011982E+03  0.00000000000E+00 0. -1.
          1    1    1    2  502    0  0.63998107881E+02 -0.10993920068E+03  0.28302122938E+04  0.28330697156E+04  0.00000000000E+00 0. -1.
         22    1    3    3    0    0 -0.80152619390E+02  0.75383151494E+01  0.76043852771E+02  0.11074265725E+03  0.00000000000E+00 0.  1.
         22    1    3    3    0    0  0.97764930419E+01  0.31445117275E+02 -0.30341295471E+02  0.44776884969E+02  0.00000000000E+00 0.  1.
</event>
<event>
 7    1  0.6089676E-006  0.6193451E+02  0.7818608E-02  0.1411034E+00
          2   -1    0    0  502    0  0.00000000000E+00  0.00000000000E+00  0.21794404534E+03  0.21794404534E+03  0.00000000000E+00 0. -1.
          1   -1    0    0  501    0 -0.00000000000E+00 -0.00000000000E+00 -0.37144638143E+03  0.37144638143E+03  0.00000000000E+00 0. -1.
         25    2    1    2    0    0 -0.22450980872E+02 -0.43237777269E+02  0.67873991032E+02  0.15035115324E+03  0.12500015479E+03 0.  0.
          2    1    1    2  501    0  0.62197834895E+02  0.91044130415E+01 -0.32066891093E+03  0.32677210933E+03  0.00000000000E+00 0. -1.
          1    1    1    2  502    0 -0.39746854023E+02  0.34133364227E+02  0.99292583798E+02  0.11226716419E+03  0.00000000000E+00 0. -1.
         22    1    3    3    0    0 -0.60975847146E+02 -0.54093678918E+01  0.73971091428E+02  0.96015819338E+02  0.00000000000E+00 0. -1.
         22    1    3    3    0    0  0.38524866274E+02 -0.37828409377E+02 -0.60971003956E+01  0.54335333906E+02  0.00000000000E+00 0. -1.
</event>
<event>
 7    1  0.6089676E-006  0.8532686E+02  0.7818608E-02  0.1416272E+00
          2   -1    0    0  502    0  0.00000000000E+00  0.00000000000E+00  0.49989028284E+03  0.49989028284E+03  0.00000000000E+00 0. -1.
          1   -1    0    0  501    0 -0.00000000000E+00 -0.00000000000E+00 -0.27639343174E+03  0.27639343174E+03  0.00000000000E+00 0. -1.
         25    2    1    2    0    0  0.11557883511E+03 -0.11204490968E+02 -0.15826210162E+02  0.17134829612E+03  0.12500304761E+03 0.  0.
          2    1    1    2  501    0 -0.34670551673E+02 -0.11454292500E+02 -0.17674050470E+03  0.18047286214E+03  0.00000000000E+00 0. -1.
          1    1    1    2  502    0 -0.80908283437E+02  0.22658783469E+02  0.41606356596E+03  0.42446255632E+03  0.00000000000E+00 0. -1.
         22    1    3    3    0    0  0.13746838888E+03 -0.13840986279E+02  0.86154277677E+01  0.13843177539E+03  0.00000000000E+00 0.  1.
         22    1    3    3    0    0 -0.21889553771E+02  0.26364953108E+01 -0.24441637930E+02  0.32916520723E+02  0.00000000000E+00 0.  1.
</event>
<event>
 7    1  0.6089676E-006  0.1711837E+03  0.7818608E-02  0.1304004E+00
          2   -1    0    0  502    0  0.00000000000E+00  0.00000000000E+00  0.10736582427E+04  0.10736582427E+04  0.00000000000E+00 0. -1.
          1   -1    0    0  501    0 -0.00000000000E+00 -0.00000000000E+00 -0.62147302292E+03  0.62147302292E+03  0.00000000000E+00 0. -1.
         25    2    1    2    0    0  0.29300348084E+02  0.20574573348E+03  0.21411200450E+03  0.32351269075E+03  0.12500677326E+03 0.  0.
          2    1    1    2  501    0  0.39703631448E+00 -0.16954866402E+03 -0.55338525677E+03  0.57877642447E+03  0.00000000000E+00 0. -1.
          1    1    1    2  502    0 -0.29697384399E+02 -0.36197069467E+02  0.79145847207E+03  0.79284215042E+03  0.00000000000E+00 0. -1.
         22    1    3    3    0    0  0.39454403257E+02  0.20878033769E+03  0.15385393173E+03  0.26232977652E+03  0.00000000000E+00 0. -1.
         22    1    3    3    0    0 -0.10154055172E+02 -0.30346042047E+01  0.60258072773E+02  0.61182914228E+02  0.00000000000E+00 0. -1.
</event>
<event>
 7    1  0.6089676E-006  0.5405256E+02  0.7818608E-02  0.1537479E+00
          2   -1    0    0  502    0  0.00000000000E+00  0.00000000000E+00  0.56609015911E+03  0.56609015911E+03  0.00000000000E+00 0. -1.
          1   -1    0    0  501    0 -0.00000000000E+00 -0.00000000000E+00 -0.35639813211E+02  0.35639813211E+02  0.00000000000E+00 0. -1.
         25    2    1    2    0    0  0.40615745163E+02 -0.39668862903E+02  0.41585345075E+03  0.43793104417E+03  0.12500499791E+03 0.  0.
          2    1    1    2  501    0 -0.21543542636E+02 -0.11364803840E+02 -0.11126698800E+02  0.26778469370E+02  0.00000000000E+00 0. -1.
          1    1    1    2  502    0 -0.19072202527E+02  0.51033666742E+02  0.12572359395E+03  0.13702045878E+03  0.00000000000E+00 0. -1.
         22    1    3    3    0    0  0.77105843132E+01 -0.65726617444E+02  0.36957588907E+03  0.37545409724E+03  0.00000000000E+00 0. -1.
         22    1    3    3    0    0  0.32905160849E+02  0.26057754542E+02  0.46277561683E+02  0.62476946929E+02  0.00000000000E+00 0. -1.
</event>
<event>
 7    1  0.6089676E-006  0.3871447E+02  0.7818608E-02  0.1526485E+00
          2   -1    0    0  502    0  0.00000000000E+00  0.00000000000E+00  0.57102860109E+03  0.57102860109E+03  0.00000000000E+00 0. -1.
          1   -1    0    0  501    0 -0.00000000000E+00 -0.00000000000E+00 -0.75264477506E+03  0.75264477506E+03  0.00000000000E+00 0. -1.
         25    2    1    2    0    0 -0.58774195306E+02  0.35918949881E+02  0.22986669174E+03  0.27057730906E+03  0.12501522793E+03 0.  0.
          2    1    1    2  501    0  0.22067950732E+02 -0.29146809203E+02 -0.73074524530E+03  0.73165917234E+03  0.00000000000E+00 0. -1.
          1    1    1    2  502    0  0.36706244574E+02 -0.67721406789E+01  0.31926237959E+03  0.32143689474E+03  0.00000000000E+00 0. -1.
         22    1    3    3    0    0 -0.76285547985E+02  0.61689221028E+02  0.11308411979E+03  0.14970992943E+03  0.00000000000E+00 0. -1.
         22    1    3    3    0    0  0.17511352679E+02 -0.25770271146E+02  0.11678257195E+03  0.12086737963E+03  0.00000000000E+00 0. -1.
</event>
<event>
 7    1  0.6089676E-006  0.1109513E+03  0.7818608E-02  0.1349330E+00
          2   -1    0    0  502    0  0.00000000000E+00  0.00000000000E+00  0.88715981444E+03  0.88715981444E+03  0.00000000000E+00 0. -1.
          1   -1    0    0  501    0 -0.00000000000E+00 -0.00000000000E+00 -0.82166828420E+02  0.82166828420E+02  0.00000000000E+00 0. -1.
         25    2    1    2    0    0 -0.55909258289E+02  0.13766848792E+03  0.21468165165E+03  0.28946811080E+03  0.12500047153E+03 0.  0.
          2    1    1    2  501    0 -0.22875375905E+01 -0.48325289934E+02 -0.25634956610E+02  0.54751415286E+02  0.00000000000E+00 0. -1.
          1    1    1    2  502    0  0.58196795880E+02 -0.89343197990E+02  0.61594629097E+03  0.62510711677E+03  0.00000000000E+00 0. -1.
         22    1    3    3    0    0 -0.44461340621E+02  0.47571874989E+02  0.18141416667E+03  0.19274593114E+03  0.00000000000E+00 0. -1.
         22    1    3    3    0    0 -0.11447917668E+02  0.90096612934E+02  0.33267484979E+02  0.96722179659E+02  0.00000000000E+00 0. -1.
</event>
<event>
 7    1  0.6089676E-006  0.1353838E+03  0.7818608E-02  0.1360777E+00
          2   -1    0    0  502    0  0.00000000000E+00  0.00000000000E+00  0.10360207129E+04  0.10360207129E+04  0.00000000000E+00 0. -1.
          1   -1    0    0  501    0 -0.00000000000E+00 -0.00000000000E+00 -0.58577879954E+03  0.58577879954E+03  0.00000000000E+00 0. -1.
         25    2    1    2    0    0  0.97475912790E+02  0.14015191560E+03 -0.22121724607E+03  0.30611541726E+03  0.12500186280E+03 0.  0.
          2    1    1    2  501    0 -0.19282220024E+02 -0.30384183562E+02 -0.31651802595E+03  0.31855715871E+03  0.00000000000E+00 0. -1.
          1    1    1    2  502    0 -0.78193692765E+02 -0.10976773203E+03  0.98797718539E+03  0.99712693647E+03  0.00000000000E+00 0. -1.
         22    1    3    3    0    0  0.84198871340E+02  0.33986175979E+02 -0.48491369958E+02  0.10293650010E+03  0.00000000000E+00 0. -1.
         22    1    3    3    0    0  0.13277041450E+02  0.10616573962E+03 -0.17272587611E+03  0.20317891716E+03  0.00000000000E+00 0. -1.
</event>
<event>
 7    1  0.6089676E-006  0.7187747E+02  0.7818608E-02  0.1475064E+00
          2   -1    0    0  502    0  0.00000000000E+00  0.00000000000E+00  0.14586410413E+03  0.14586410413E+03  0.00000000000E+00 0. -1.
          1   -1    0    0  501    0 -0.00000000000E+00 -0.00000000000E+00 -0.35450585805E+03  0.35450585805E+03  0.00000000000E+00 0. -1.
         25    2    1    2    0    0  0.93579645304E+02 -0.20463342791E+02 -0.68890377190E+02  0.17189570367E+03  0.12500540171E+03 0.  0.
          2    1    1    2  501    0 -0.27953563471E+02 -0.20472822886E+01 -0.22035112877E+03  0.22212656983E+03  0.00000000000E+00 0. -1.
          1    1    1    2  502    0 -0.65626081834E+02  0.22510625080E+02  0.80599752037E+02  0.10634768868E+03  0.00000000000E+00 0. -1.
         22    1    3    3    0    0  0.53944319302E+02 -0.69062812873E+02 -0.14383583555E+02  0.88806245178E+02  0.00000000000E+00 0. -1.
         22    1    3    3    0    0  0.39635326003E+02  0.48599470082E+02 -0.54506793635E+02  0.83089458489E+02  0.00000000000E+00 0. -1.
</event>
<event>
 7    1  0.6089676E-006  0.5133600E+02  0.7818608E-02  0.1458763E+00
          2   -1    0    0  502    0  0.00000000000E+00  0.00000000000E+00  0.78713488863E+03  0.78713488863E+03  0.00000000000E+00 0. -1.
          1   -1    0    0  501    0 -0.00000000000E+00 -0.00000000000E+00 -0.31314686272E+03  0.31314686272E+03  0.00000000000E+00 0. -1.
         25    2    1    2    0    0  0.33957571046E+02  0.38478784879E+02 -0.12214992809E+03  0.18214721259E+03  0.12499307423E+03 0.  0.
          2    1    1    2  501    0  0.17446180040E+02 -0.40531246666E+02 -0.15708077167E+03  0.16316102471E+03  0.00000000000E+00 0. -1.
          1    1    1    2  502    0 -0.51403751086E+02  0.20524617871E+01  0.75321872567E+03  0.75497351405E+03  0.00000000000E+00 0. -1.
         22    1    3    3    0    0 -0.12092185047E+02  0.71567636772E+02 -0.41658249859E+02  0.83687259207E+02  0.00000000000E+00 0. -1.
         22    1    3    3    0    0  0.46049756093E+02 -0.33088851893E+02 -0.80491678228E+02  0.98459953381E+02  0.00000000000E+00 0. -1.
</event>
<event>
 7    1  0.6089676E-006  0.3449013E+02  0.7818608E-02  0.1590238E+00
          2   -1    0    0  502    0  0.00000000000E+00  0.00000000000E+00  0.52222667177E+02  0.52222667177E+02  0.00000000000E+00 0. -1.
          1   -1    0    0  501    0 -0.00000000000E+00 -0.00000000000E+00 -0.29713929497E+03  0.29713929497E+03  0.00000000000E+00 0. -1.
         25    2    1    2    0    0  0.60496078674E+01  0.50872498008E+02 -0.12732601278E+03  0.18563894180E+03  0.12500117750E+03 0.  0.
          2    1    1    2  501    0 -0.19835690269E+02 -0.27232403530E+02 -0.12954897472E+03  0.13385811616E+03  0.00000000000E+00 0. -1.
          1    1    1    2  502    0  0.13786082402E+02 -0.23640094478E+02  0.11958359706E+02  0.29864904182E+02  0.00000000000E+00 0. -1.
         22    1    3    3    0    0  0.64879479413E+02  0.35793307565E+02 -0.75705641269E+02  0.10593324235E+03  0.00000000000E+00 0. -1.
         22    1    3    3    0    0 -0.58829871545E+02  0.15079190443E+02 -0.51620371509E+02  0.79705699453E+02  0.00000000000E+00 0. -1.
</event>
<event>
 7    1  0.6089676E-006  0.7016502E+02  0.7818608E-02  0.1490950E+00
          2   -1    0    0  502    0  0.00000000000E+00  0.00000000000E+00  0.54657902525E+03  0.54657902525E+03  0.00000000000E+00 0. -1.
          1   -1    0    0  501    0 -0.00000000000E+00 -0.00000000000E+00 -0.24080932085E+03  0.24080932085E+03  0.00000000000E+00 0. -1.
         25    2    1    2    0    0 -0.99631012955E+01  0.59881892012E+02  0.70753494441E+02  0.15593717112E+03  0.12500095993E+03 0.  0.
          2    1    1    2  501    0 -0.13826557781E+02 -0.69543828319E+02 -0.19147807987E+03  0.20418465376E+03  0.00000000000E+00 0. -1.
          1    1    1    2  502    0  0.23789659077E+02  0.96619363072E+01  0.42649428983E+03  0.42726652122E+03  0.00000000000E+00 0. -1.
         22    1    3    3    0    0 -0.98698279902E+01  0.92425155661E+02  0.79420191150E+02  0.12225951769E+03  0.00000000000E+00 0.  1.
         22    1    3    3    0    0 -0.93273305381E-01 -0.32543263650E+02 -0.86666967092E+01  0.33677653433E+02  0.00000000000E+00 0.  1.
</event>
<event>
 7    1  0.6089676E-006  0.4054276E+03  0.7818608E-02  0.1264809E+00
          2   -1    0    0  502    0  0.00000000000E+00  0.00000000000E+00  0.10912853882E+04  0.10912853882E+04  0.00000000000E+00 0. -1.
          1   -1    0    0  501    0 -0.00000000000E+00 -0.00000000000E+00 -0.33703833288E+04  0.33703833288E+04  0.00000000000E+00 0. -1.
         25    2    1    2    0    0 -0.23643438209E+03  0.29503052220E+03  0.20858553201E+03  0.44952939256E+03  0.12499809819E+03 0.  0.
          2    1    1    2  501    0  0.25127253378E+03 -0.31951817109E+03 -0.32369265537E+04  0.32623493470E+04  0.00000000000E+00 0. -1.
          1    1    1    2  502    0 -0.14838151689E+02  0.24487648895E+02  0.74924308107E+03  0.74978997741E+03  0.00000000000E+00 0. -1.
         22    1    3    3    0    0 -0.82041818007E+02  0.19596434268E+03  0.13600369403E+03  0.25224965469E+03  0.00000000000E+00 0. -1.
         22    1    3    3    0    0 -0.15439256408E+03  0.99066179520E+02  0.72581837979E+02  0.19727973787E+03  0.00000000000E+00 0. -1.
</event>
<event>
 7    1  0.8988761E-006  0.1126488E+03  0.7818608E-02  0.1313838E+00
          2   -1    0    0  502    0  0.00000000000E+00  0.00000000000E+00  0.29685132026E+04  0.29685132026E+04  0.00000000000E+00 0. -1.
          1   -1    0    0  501    0 -0.00000000000E+00 -0.00000000000E+00 -0.11696605687E+04  0.11696605687E+04  0.00000000000E+00 0. -1.
         25    2    1    2    0    0 -0.79790609379E+02  0.34821812998E+02 -0.60453506319E+03  0.62343103916E+03  0.12499807183E+03 0.  0.
          2    1    1    2  501    0  0.10090252637E+03 -0.96366582907E+02 -0.54655452299E+03  0.56408304772E+03  0.00000000000E+00 0. -1.
          1    1    1    2  502    0 -0.21111916991E+02  0.61544769909E+02  0.29499422200E+04  0.29506596844E+04  0.00000000000E+00 0. -1.
         22    1    3    3    0    0  0.20867528804E+02  0.17689964282E+02 -0.31932778148E+03  0.32049745806E+03  0.00000000000E+00 0.  1.
         22    1    3    3    0    0 -0.10065813818E+03  0.17131848716E+02 -0.28520728171E+03  0.30293358111E+03  0.00000000000E+00 0.  1.
</event>
<event>
 7    1  0.6089676E-006  0.4754997E+02  0.7818608E-02  0.1525868E+00
          2   -1    0    0  502    0  0.00000000000E+00  0.00000000000E+00  0.90871028991E+03  0.90871028991E+03  0.00000000000E+00 0. -1.
          1   -1    0    0  501    0 -0.00000000000E+00 -0.00000000000E+00 -0.20375421218E+03  0.20375421218E+03  0.00000000000E+00 0. -1.
         25    2    1    2    0    0 -0.17465263691E+02  0.50293125046E+02  0.22265569129E+03  0.26083421581E+03  0.12499798962E+03 0.  0.
          2    1    1    2  501    0  0.38032745280E+02 -0.28608243519E+02 -0.18125672678E+03  0.18740043307E+03  0.00000000000E+00 0. -1.
          1    1    1    2  502    0 -0.20567481589E+02 -0.21684881527E+02  0.66355711322E+03  0.66422985321E+03  0.00000000000E+00 0. -1.
         22    1    3    3    0    0 -0.47077361420E+02  0.80609126283E+02  0.15845528337E+03  0.18390809125E+03  0.00000000000E+00 0. -1.
         22    1    3    3    0    0  0.29612097729E+02 -0.30316001237E+02  0.64200407919E+02  0.76926124560E+02  0.00000000000E+00 0. -1.
</event>
<event>
 7    1  0.6089676E-006  0.5401595E+02  0.7818608E-02  0.1426332E+00
          2   -1    0    0  502    0  0.00000000000E+00  0.00000000000E+00  0.68142567840E+03  0.68142567840E+03  0.00000000000E+00 0. -1.
          1   -1    0    0  501    0 -0.00000000000E+00 -0.00000000000E+00 -0.41675756166E+02  0.41675756166E+02  0.00000000000E+00 0. -1.
         25    2    1    2    0    0  0.42711005892E+02 -0.25328161292E+01  0.48765032463E+03  0.50523115771E+03  0.12500015371E+03 0.  0.
          2    1    1    2  501    0  0.43978606618E+02  0.30276055910E+02  0.99034793380E+02  0.11251065595E+03  0.00000000000E+00 0. -1.
          1    1    1    2  502    0 -0.86689612510E+02 -0.27743239781E+02  0.53064804220E+02  0.10535962091E+03  0.00000000000E+00 0. -1.
         22    1    3    3    0    0  0.23040971520E+02  0.41804426735E+02  0.41586158981E+03  0.41859211452E+03  0.00000000000E+00 0. -1.
         22    1    3    3    0    0  0.19670034372E+02 -0.44337242864E+02  0.71788734828E+02  0.86639043192E+02  0.00000000000E+00 0. -1.
</event>
<event>
 7    1  0.6089676E-006  0.1858683E+03  0.7818608E-02  0.1307939E+00
          2   -1    0    0  502    0  0.00000000000E+00  0.00000000000E+00  0.11307180930E+04  0.11307180930E+04  0.00000000000E+00 0. -1.
          1   -1    0    0  501    0 -0.00000000000E+00 -0.00000000000E+00 -0.83188610957E+03  0.83188610957E+03  0.00000000000E+00 0. -1.
         25    2    1    2    0    0 -0.13062941795E+03  0.13820120814E+03 -0.12970390794E+03  0.26193575212E+03  0.12499446284E+03 0.  0.
          2    1    1    2  501    0  0.35589836923E+02  0.21537207092E+02 -0.62725898313E+03  0.62863687428E+03  0.00000000000E+00 0. -1.
          1    1    1    2  502    0  0.95039581032E+02 -0.15973841523E+03  0.10557948745E+04  0.10720315761E+04  0.00000000000E+00 0. -1.
         22    1    3    3    0    0 -0.96029337069E+02  0.11500602863E+03 -0.28525476721E+02  0.15251794328E+03  0.00000000000E+00 0.  1.
         22    1    3    3    0    0 -0.34600080886E+02  0.23195179507E+02 -0.10117843122E+03  0.10941780885E+03  0.00000000000E+00 0.  1.
</event>
<event>
 7    1  0.6089676E-006  0.3934646E+02  0.7818608E-02  0.1575989E+00
          2   -1    0    0  502    0  0.00000000000E+00  0.00000000000E+00  0.35410824649E+02  0.35410824649E+02  0.00000000000E+00 0. -1.
          1   -1    0    0  501    0 -0.00000000000E+00 -0.00000000000E+00 -0.13220558034E+04  0.13220558034E+04  0.00000000000E+00 0. -1.
         25    2    1    2    0    0  0.24994889087E+02  0.43894315625E+01 -0.67136962363E+03  0.68337872892E+03  0.12500121607E+03 0.  0.
          2    1    1    2  501    0 -0.28209037538E+02 -0.30376781486E+02 -0.63804321810E+03  0.63938849443E+03  0.00000000000E+00 0. -1.
          1    1    1    2  502    0  0.32141484510E+01  0.25987349923E+02  0.22767862936E+02  0.34699404735E+02  0.00000000000E+00 0. -1.
         22    1    3    3    0    0  0.29652825974E+02  0.14396313158E+02 -0.39648161603E+02  0.51560844052E+02  0.00000000000E+00 0. -1.
         22    1    3    3    0    0 -0.46579368876E+01 -0.10006881596E+02 -0.63172146203E+03  0.63181788487E+03  0.00000000000E+00 0. -1.
</event>
<event>
 7    1  0.6089676E-006  0.9649725E+02  0.7818608E-02  0.1476869E+00
          2   -1    0    0  502    0  0.00000000000E+00  0.00000000000E+00  0.12113876995E+04  0.12113876995E+04  0.00000000000E+00 0. -1.
          1   -1    0    0  501    0 -0.00000000000E+00 -0.00000000000E+00 -0.35312816172E+03  0.35312816172E+03  0.00000000000E+00 0. -1.
         25    2    1    2    0    0  0.15538310081E+02 -0.99991694103E+02 -0.13755066823E+03  0.21162404459E+03  0.12499908778E+03 0.  0.
          2    1    1    2  501    0 -0.20287261922E+02  0.36412903467E+01 -0.17595716087E+03  0.17716025077E+03  0.00000000000E+00 0. -1.
          1    1    1    2  502    0  0.47489518407E+01  0.96350403757E+02  0.11717673669E+04  0.11757315658E+04  0.00000000000E+00 0. -1.
         22    1    3    3    0    0  0.54802800382E+02 -0.16437451343E+02 -0.92822780271E+02  0.10903946659E+03  0.00000000000E+00 0. -1.
         22    1    3    3    0    0 -0.39264490301E+02 -0.83554242760E+02 -0.44727887963E+02  0.10258457800E+03  0.00000000000E+00 0. -1.
</event>
<event>
 7    1  0.6089676E-006  0.1622706E+03  0.7818608E-02  0.1260284E+00
          2   -1    0    0  502    0  0.00000000000E+00  0.00000000000E+00  0.94099024478E+03  0.94099024478E+03  0.00000000000E+00 0. -1.
          1   -1    0    0  501    0 -0.00000000000E+00 -0.00000000000E+00 -0.51854270268E+03  0.51854270268E+03  0.00000000000E+00 0. -1.
         25    2    1    2    0    0  0.14984535208E+03  0.91122879605E+02  0.41570255138E+03  0.46817678797E+03  0.12499553929E+03 0.  0.
          2    1    1    2  501    0 -0.16144544665E+03 -0.17251624771E+02 -0.47596094620E+03  0.50289270536E+03  0.00000000000E+00 0. -1.
          1    1    1    2  502    0  0.11600094573E+02 -0.73871254834E+02  0.48270593691E+03  0.48846345412E+03  0.00000000000E+00 0. -1.
         22    1    3    3    0    0  0.14055474277E+03  0.72932157122E+02  0.41859697001E+03  0.44754682276E+03  0.00000000000E+00 0. -1.
         22    1    3    3    0    0  0.92906093039E+01  0.18190722483E+02 -0.28944186252E+01  0.20629965217E+02  0.00000000000E+00 0. -1.
</event>
<event>
 7    1  0.6089676E-006  0.1030676E+03  0.7818608E-02  0.1281202E+00
          2   -1    0    0  502    0  0.00000000000E+00  0.00000000000E+00  0.80691330851E+03  0.80691330851E+03  0.00000000000E+00 0. -1.
          1   -1    0    0  501    0 -0.00000000000E+00 -0.00000000000E+00 -0.20958514481E+03  0.20958514481E+03  0.00000000000E+00 0. -1.
         25    2    1    2    0    0  0.16781795255E+02  0.22307321303E+02  0.64784911912E+02  0.14353036560E+03  0.12499854320E+03 0.  0.
          2    1    1    2  501    0 -0.85370650728E+02  0.57747539746E+02 -0.15018466733E+03  0.18214928123E+03  0.00000000000E+00 0. -1.
          1    1    1    2  502    0  0.68588855473E+02 -0.80054861050E+02  0.68272791912E+03  0.69081880650E+03  0.00000000000E+00 0. -1.
         22    1    3    3    0    0 -0.35908656267E+02 -0.33324106580E+02  0.11855329150E+02  0.50403139817E+02  0.00000000000E+00 0.  1.
         22    1    3    3    0    0  0.52690451521E+02  0.55631427883E+02  0.52929582763E+02  0.93127225779E+02  0.00000000000E+00 0.  1.
</event>
<event>
 7    1  0.1035885E-005  0.9589483E+02  0.7818608E-02  0.1349525E+00
          2   -1    0    0  502    0  0.00000000000E+00  0.00000000000E+00  0.21428851166E+04  0.21428851166E+04  0.00000000000E+00 0. -1.
          1   -1    0    0  501    0 -0.00000000000E+00 -0.00000000000E+00 -0.57021604250E+03  0.57021604250E+03  0.00000000000E+00 0. -1.
         25    2    1    2    0    0 -0.32263362833E+02  0.10410068747E+03 -0.24651432052E+03  0.29710424736E+03  0.12499498335E+03 0.  0.
          2    1    1    2  501    0  0.54811674521E+02 -0.10885318877E+02 -0.29469375906E+03  0.29994536412E+03  0.00000000000E+00 0. -1.
          1    1    1    2  502    0 -0.22548311688E+02 -0.93215368598E+02  0.21138771536E+04  0.21160515476E+04  0.00000000000E+00 0. -1.
         22    1    3    3    0    0 -0.24391780429E+02 -0.15319293487E+02 -0.11812196154E+03  0.12158304776E+03  0.00000000000E+00 0. -1.
         22    1    3    3    0    0 -0.78715824042E+01  0.11941998096E+03 -0.12839235898E+03  0.17552119960E+03  0.00000000000E+00 0. -1.
</event>
<event>
 7    1  0.6089676E-006  0.5534921E+02  0.7818608E-02  0.1477553E+00
          2   -1    0    0  502    0  0.00000000000E+00  0.00000000000E+00  0.27040299361E+03  0.27040299361E+03  0.00000000000E+00 0. -1.
          1   -1    0    0  501    0 -0.00000000000E+00 -0.00000000000E+00 -0.70776399619E+03  0.70776399619E+03  0.00000000000E+00 0. -1.
         25    2    1    2    0    0 -0.33191330698E+02 -0.27544738971E+02 -0.27102567447E+03  0.30156452258E+03  0.12500347187E+03 0.  0.
          2    1    1    2  501    0  0.23275839548E+02 -0.27148964743E+02 -0.41766819308E+03  0.41919631499E+03  0.00000000000E+00 0. -1.
          1    1    1    2  502    0  0.99154911501E+01  0.54693703715E+02  0.25133286497E+03  0.25740615223E+03  0.00000000000E+00 0. -1.
         22    1    3    3    0    0 -0.74957767674E+02 -0.42429662668E+02 -0.15449167590E+03  0.17688024517E+03  0.00000000000E+00 0. -1.
         22    1    3    3    0    0  0.41766436977E+02  0.14884923697E+02 -0.11653399857E+03  0.12468427741E+03  0.00000000000E+00 0. -1.
</event>
<event>
 7    1  0.6089676E-006  0.1065651E+03  0.7818608E-02  0.1380299E+00
          2   -1    0    0  502    0  0.00000000000E+00  0.00000000000E+00  0.93359238496E+03  0.93359238496E+03  0.00000000000E+00 0. -1.
          1   -1    0    0  501    0 -0.00000000000E+00 -0.00000000000E+00 -0.54974291459E+03  0.54974291459E+03  0.00000000000E+00 0. -1.
         25    2    1    2    0    0  0.12918054236E+03  0.16733609429E+02 -0.36663074479E+03  0.40866945688E+03  0.12499998300E+03 0.  0.
          2    1    1    2  501    0 -0.91697282613E+02 -0.63286683734E+01 -0.14860808126E+03  0.17473638859E+03  0.00000000000E+00 0. -1.
          1    1    1    2  502    0 -0.37483259750E+02 -0.10404941056E+02  0.89908829642E+03  0.89992945408E+03  0.00000000000E+00 0. -1.
         22    1    3    3    0    0  0.77210368911E+02 -0.93626803772E+01 -0.64641302536E+02  0.10113159172E+03  0.00000000000E+00 0. -1.
         22    1    3    3    0    0  0.51970173453E+02  0.26096289806E+02 -0.30198944226E+03  0.30753786516E+03  0.00000000000E+00 0. -1.
</event>
<event>
 7    1  0.6089676E-006  0.4352617E+02  0.7818608E-02  0.1542565E+00
          2   -1    0    0  502    0  0.00000000000E+00  0.00000000000E+00  0.30408227248E+03  0.30408227248E+03  0.00000000000E+00 0. -1.
          1   -1    0    0  501    0 -0.00000000000E+00 -0.00000000000E+00 -0.32458144583E+03  0.32458144583E+03  0.00000000000E+00 0. -1.
         25    2    1    2    0    0  0.29299187076E+02 -0.21555413153E+02 -0.21791618102E+03  0.25384480650E+03  0.12500658238E+03 0.  0.
          2    1    1    2  501    0 -0.48338943120E+02 -0.66662643009E+00 -0.81290534806E+02  0.94579325763E+02  0.00000000000E+00 0. -1.
          1    1    1    2  502    0  0.19039756044E+02  0.22222039583E+02  0.27870754247E+03  0.28023958604E+03  0.00000000000E+00 0. -1.
         22    1    3    3    0    0  0.34917936136E+02  0.85355386274E+00 -0.22290147454E+00  0.34929078191E+02  0.00000000000E+00 0.  1.
         22    1    3    3    0    0 -0.56187490606E+01 -0.22408967016E+02 -0.21769327954E+03  0.21891572831E+03  0.00000000000E+00 0.  1.
</event>
<event>
 7    1  0.6089676E-006  0.9924894E+02  0.7818608E-02  0.1327663E+00
          2   -1    0    0  502    0  0.00000000000E+00  0.00000000000E+00  0.11381398037E+04  0.11381398037E+04  0.00000000000E+00 0. -1.
          1   -1    0    0  501    0 -0.00000000000E+00 -0.00000000000E+00 -0.21341436343E+04  0.21341436343E+04  0.00000000000E+00 0. -1.
         25    2    1    2    0    0 -0.57589902632E+02  0.22316377697E+02  0.40089999012E+03  0.42445278334E+03  0.12499898244E+03 0.  0.
          2    1    1    2  501    0 -0.22736517441E+02  0.61190975979E+02 -0.21172343474E+04  0.21182404411E+04  0.00000000000E+00 0. -1.
          1    1    1    2  502    0  0.80326420073E+02 -0.83507353676E+02  0.72033052673E+03  0.72959021349E+03  0.00000000000E+00 0. -1.
         22    1    3    3    0    0  0.16717605344E+02  0.40791888908E+02  0.26346000638E+03  0.26712287714E+03  0.00000000000E+00 0. -1.
         22    1    3    3    0    0 -0.74307507975E+02 -0.18475511211E+02  0.13743998374E+03  0.15732990621E+03  0.00000000000E+00 0. -1.
</event>
<event>
 7    1  0.6089676E-006  0.1340150E+03  0.7818608E-02  0.1405626E+00
          2   -1    0    0  502    0  0.00000000000E+00  0.00000000000E+00  0.58030249497E+03  0.58030249497E+03  0.00000000000E+00 0. -1.
          1   -1    0    0  501    0 -0.00000000000E+00 -0.00000000000E+00 -0.74328840165E+03  0.74328840165E+03  0.00000000000E+00 0. -1.
         25    2    1    2    0    0 -0.11103940265E+03  0.89209285199E+02  0.44307413933E+03  0.48190108159E+03  0.12500365588E+03 0.  0.
          2    1    1    2  501    0  0.88469549319E+02 -0.10055029219E+03 -0.71623866391E+03  0.72865289823E+03  0.00000000000E+00 0. -1.
          1    1    1    2  502    0  0.22569853328E+02  0.11341006990E+02  0.11017861790E+03  0.11303691680E+03  0.00000000000E+00 0. -1.
         22    1    3    3    0    0  0.14310730899E+02  0.10129063173E+02  0.33218389496E+01  0.17844594522E+02  0.00000000000E+00 0.  1.
         22    1    3    3    0    0 -0.12535013355E+03  0.79080222026E+02  0.43975230038E+03  0.46405648707E+03  0.00000000000E+00 0.  1.
</event>
<event>
 7    1  0.6089676E-006  0.9414863E+02  0.7818608E-02  0.1447792E+00
          2   -1    0    0  502    0  0.00000000000E+00  0.00000000000E+00  0.38074474163E+04  0.38074474163E+04  0.00000000000E+00 0. -1.
          1   -1    0    0  501    0 -0.00000000000E+00 -0.00000000000E+00 -0.29262373629E+03  0.29262373629E+03  0.00000000000E+00 0. -1.
         25    2    1    2    0    0 -0.72094762259E+02 -0.72234269773E+01  0.88207517790E+03  0.89382857015E+03  0.12499224258E+03 0.  0.
          2    1    1    2  501    0 -0.25083684584E+02  0.71267027099E+01 -0.28534368568E+03  0.28653272078E+03  0.00000000000E+00 0. -1.
          1    1    1    2  502    0  0.97178446842E+02  0.96724267404E-01  0.29180921878E+04  0.29197098617E+04  0.00000000000E+00 0. -1.
         22    1    3    3    0    0  0.17200198660E+02  0.38982652156E+02  0.21049807273E+03  0.21476715910E+03  0.00000000000E+00 0.  1.
         22    1    3    3    0    0 -0.89294960918E+02 -0.46206079133E+02  0.67157710517E+03  0.67906141105E+03  0.00000000000E+00 0.  1.
</event>
<event>
 7    1  0.6089676E-006  0.2639500E+02  0.7818608E-02  0.1679339E+00
          2   -1    0    0  502    0  0.00000000000E+00  0.00000000000E+00  0.14670943503E+04  0.14670943503E+04  0.00000000000E+00 0. -1.
          1   -1    0    0  501    0 -0.00000000000E+00 -0.00000000000E+00 -0.25483904489E+03  0.25483904489E+03  0.00000000000E+00 0. -1.
         25    2    1    2    0    0 -0.90032569809E+01  0.73214918346E+01 -0.21262506225E+03  0.24690569832E+03  0.12497337271E+03 0.  0.
          2    1    1    2  501    0  0.26277897128E+02  0.12635532029E+02 -0.16434914196E+02  0.33470747703E+02  0.00000000000E+00 0. -1.
          1    1    1    2  502    0 -0.17274640147E+02 -0.19957023863E+02  0.14413152819E+04  0.14415569492E+04  0.00000000000E+00 0. -1.
         22    1    3    3    0    0 -0.57940506193E+02  0.36219378875E+02 -0.10686636811E+03  0.12684386582E+03  0.00000000000E+00 0.  1.
         22    1    3    3    0    0  0.48937249212E+02 -0.28897887041E+02 -0.10575869414E+03  0.12006183250E+03  0.00000000000E+00 0.  1.
</event>
<event>
 7    1  0.6089676E-006  0.5367073E+02  0.7818608E-02  0.1542027E+00
          2   -1    0    0  502    0  0.00000000000E+00  0.00000000000E+00  0.38322842612E+03  0.38322842612E+03  0.00000000000E+00 0. -1.
          1   -1    0    0  501    0 -0.00000000000E+00 -0.00000000000E+00 -0.70549262843E+03  0.70549262843E+03  0.00000000000E+00 0. -1.
         25    2    1    2    0    0 -0.74349585417E+02  0.14762665812E+02 -0.53875805544E+03  0.55823992266E+03  0.12500308712E+03 0.  0.
          2    1    1    2  501    0  0.23665731273E+02  0.26617860106E+01 -0.15415181841E+03  0.15598055988E+03  0.00000000000E+00 0. -1.
          1    1    1    2  502    0  0.50683854144E+02 -0.17424451823E+02  0.37064567156E+03  0.37450057201E+03  0.00000000000E+00 0. -1.
         22    1    3    3    0    0 -0.63812478172E+02  0.28972046434E+02 -0.11895366206E+03  0.13806297680E+03  0.00000000000E+00 0.  1.
         22    1    3    3    0    0 -0.10537107245E+02 -0.14209380622E+02 -0.41980439338E+03  0.42017694585E+03  0.00000000000E+00 0.  1.
</event>
<event>
 7    1  0.6089676E-006  0.4016694E+02  0.7818608E-02  0.1554061E+00
          2   -1    0    0  502    0  0.00000000000E+00  0.00000000000E+00  0.55805525999E+02  0.55805525999E+02  0.00000000000E+00 0. -1.
          1   -1    0    0  501    0 -0.00000000000E+00 -0.00000000000E+00 -0.82640579516E+03  0.82640579516E+03  0.00000000000E+00 0. -1.
         25    2    1    2    0    0  0.67346993057E+02 -0.21390086029E+01 -0.19830479744E+03  0.24390500235E+03  0.12499865859E+03 0.  0.
          2    1    1    2  501    0 -0.38544101467E+02  0.82717903992E+01 -0.59795133749E+03  0.59924942409E+03  0.00000000000E+00 0. -1.
          1    1    1    2  502    0 -0.28802891590E+02 -0.61327817963E+01  0.25655865771E+02  0.39056894718E+02  0.00000000000E+00 0. -1.
         22    1    3    3    0    0  0.49836122663E+02 -0.57274280559E+02 -0.70450944981E+02  0.10357276662E+03  0.00000000000E+00 0. -1.
         22    1    3    3    0    0  0.17510870394E+02  0.55135271956E+02 -0.12785385246E+03  0.14033223573E+03  0.00000000000E+00 0. -1.
</event>
<event>
 7    1  0.6089676E-006  0.5806315E+02  0.7818608E-02  0.1416248E+00
          2   -1    0    0  502    0  0.00000000000E+00  0.00000000000E+00  0.27217181063E+04  0.27217181063E+04  0.00000000000E+00 0. -1.
          1   -1    0    0  501    0 -0.00000000000E+00 -0.00000000000E+00 -0.25350171705E+02  0.25350171705E+02  0.00000000000E+00 0. -1.
         25    2    1    2    0    0 -0.15570623426E+02  0.10324144347E+03  0.84715436195E+03  0.86266831901E+03  0.12499950276E+03 0.  0.
          2    1    1    2  501    0 -0.83585602298E+01 -0.55202648230E+02  0.28115859545E+02  0.62511594594E+02  0.00000000000E+00 0. -1.
          1    1    1    2  502    0  0.23929183656E+02 -0.48038795237E+02  0.18210977131E+04  0.18218883644E+04  0.00000000000E+00 0. -1.
         22    1    3    3    0    0  0.19074689049E+02  0.22271478780E+02  0.59230389429E+03  0.59302931270E+03  0.00000000000E+00 0. -1.
         22    1    3    3    0    0 -0.34645312475E+02  0.80969964688E+02  0.25485046766E+03  0.26963900631E+03  0.00000000000E+00 0. -1.
</event>
<event>
 7    1  0.6089676E-006  0.8137489E+02  0.7818608E-02  0.1456236E+00
          2   -1    0    0  502    0  0.00000000000E+00  0.00000000000E+00  0.74936083602E+02  0.74936083602E+02  0.00000000000E+00 0. -1.
          1   -1    0    0  501    0 -0.00000000000E+00 -0.00000000000E+00 -0.53395349605E+03  0.53395349605E+03  0.00000000000E+00 0. -1.
         25    2    1    2    0    0  0.78001724934E+02 -0.16577508978E+02 -0.29517380467E+03  0.33032472727E+03  0.12501106984E+03 0.  0.
          2    1    1    2  501    0 -0.82861019997E+02 -0.11358095057E+02 -0.20907368075E+03  0.22518161324E+03  0.00000000000E+00 0. -1.
          1    1    1    2  502    0  0.48592950632E+01  0.27935604035E+02  0.45230072970E+02  0.53383239150E+02  0.00000000000E+00 0. -1.
         22    1    3    3    0    0 -0.16347164686E+02  0.27775440091E+02 -0.13803223079E+03  0.14174484683E+03  0.00000000000E+00 0.  1.
         22    1    3    3    0    0  0.94348889620E+02 -0.44352949069E+02 -0.15714157388E+03  0.18857988044E+03  0.00000000000E+00 0.  1.
</event>
<event>
 7    1  0.6089676E-006  0.8705848E+02  0.7818608E-02  0.1359845E+00
          2   -1    0    0  502    0  0.00000000000E+00  0.00000000000E+00  0.60955958673E+03  0.60955958673E+03  0.00000000000E+00 0. -1.
          1   -1    0    0  501    0 -0.00000000000E+00 -0.00000000000E+00 -0.19747511603E+03  0.19747511603E+03  0.00000000000E+00 0. -1.
         25    2    1    2    0    0  0.60423635673E+02 -0.39323236823E+02  0.51473497433E+02  0.15320318229E+03  0.12499744567E+03 0.  0.
          2    1    1    2  501    0  0.28512836203E+02  0.48663675502E+02 -0.13704886626E+03  0.14820096789E+03  0.00000000000E+00 0. -1.
          1    1    1    2  502    0 -0.88936471877E+02 -0.93404386799E+01  0.49765983952E+03  0.50563055258E+03  0.00000000000E+00 0. -1.
         22    1    3    3    0    0  0.27573083882E+02 -0.79128257659E+02  0.53152267750E+01  0.83963133283E+02  0.00000000000E+00 0.  1.
         22    1    3    3    0    0  0.32850551791E+02  0.39805020837E+02  0.46158270659E+02  0.69240049010E+02  0.00000000000E+00 0.  1.
</event>
<event>
 7    1  0.6089676E-006  0.1276267E+03  0.7818608E-02  0.1268674E+00
          2   -1    0    0  502    0  0.00000000000E+00  0.00000000000E+00  0.48837945669E+03  0.48837945669E+03  0.00000000000E+00 0. -1.
          1   -1    0    0  501    0 -0.00000000000E+00 -0.00000000000E+00 -0.54905047244E+03  0.54905047244E+03  0.00000000000E+00 0. -1.
         25    2    1    2    0    0 -0.41617211960E+02  0.18686808277E+03  0.20149144988E+03  0.30475410110E+03  0.12499834029E+03 0.  0.
          2    1    1    2  501    0 -0.92507998761E+01 -0.87111701907E+02 -0.47990108167E+03  0.48783098927E+03  0.00000000000E+00 0. -1.
          1    1    1    2  502    0  0.50868011836E+02 -0.99756380860E+02  0.21773861604E+03  0.24484483875E+03  0.00000000000E+00 0. -1.
         22    1    3    3    0    0 -0.80160316567E+02  0.16678582427E+03  0.15906799264E+03  0.24402010944E+03  0.00000000000E+00 0. -1.
         22    1    3    3    0    0  0.38543104607E+02  0.20082258499E+02  0.42423457239E+02  0.60733991663E+02  0.00000000000E+00 0. -1.
</event>
<event>
 7    1  0.6089676E-006  0.1614315E+03  0.7818608E-02  0.1246026E+00
          2   -1    0    0  502    0  0.00000000000E+00  0.00000000000E+00  0.12483868883E+04  0.12483868883E+04  0.00000000000E+00 0. -1.
          1   -1    0    0  501    0 -0.00000000000E+00 -0.00000000000E+00 -0.56831712304E+03  0.56831712304E+03  0.00000000000E+00 0. -1.
         25    2    1    2    0    0  0.15547498660E+03 -0.95390296634E+02 -0.34538938841E+03  0.41011082240E+03  0.12500110749E+03 0.  0.
          2    1    1    2  501    0 -0.76408083256E+02  0.13073380230E+03 -0.15865312779E+03  0.21931789076E+03  0.00000000000E+00 0. -1.
          1    1    1    2  502    0 -0.79066903343E+02 -0.35343505662E+02  0.11841122814E+04  0.11872752982E+04  0.00000000000E+00 0. -1.
         22    1    3    3    0    0  0.11365288958E+03 -0.60021863078E+02 -0.11231641084E+03  0.17068854531E+03  0.00000000000E+00 0.  1.
         22    1    3    3    0    0  0.41822097018E+02 -0.35368433556E+02 -0.23307297757E+03  0.23942227708E+03  0.00000000000E+00 0.  1.
</event>
<event>
 7    1  0.6089676E-006  0.1326690E+03  0.7818608E-02  0.1407054E+00
          2   -1    0    0  502    0  0.00000000000E+00  0.00000000000E+00  0.41319503188E+03  0.41319503188E+03  0.00000000000E+00 0. -1.
          1   -1    0    0  501    0 -0.00000000000E+00 -0.00000000000E+00 -0.32670256707E+03  0.32670256707E+03  0.00000000000E+00 0. -1.
         25    2    1    2    0    0 -0.42516000199E+02 -0.10108828849E+03  0.12804710363E+03  0.20987518984E+03  0.12500032888E+03 0.  0.
          2    1    1    2  501    0  0.53979848979E+02  0.12356451292E+03 -0.26914736158E+03  0.30103540522E+03  0.00000000000E+00 0. -1.
          1    1    1    2  502    0 -0.11463848780E+02 -0.22476224436E+02  0.22759272277E+03  0.22898700389E+03  0.00000000000E+00 0. -1.
         22    1    3    3    0    0 -0.27612746580E+02 -0.42737902975E+02  0.13957315381E+03  0.14855859918E+03  0.00000000000E+00 0.  1.
         22    1    3    3    0    0 -0.14903253620E+02 -0.58350385512E+02 -0.11526050182E+02  0.61316590664E+02  0.00000000000E+00 0.  1.
</event>
<event>
 7    1  0.6089676E-006  0.1072198E+03  0.7818608E-02  0.1374075E+00
          2   -1    0    0  502    0  0.00000000000E+00  0.00000000000E+00  0.11668963741E+04  0.11668963741E+04  0.00000000000E+00 0. -1.
          1   -1    0    0  501    0 -0.00000000000E+00 -0.00000000000E+00 -0.12956274791E+04  0.12956274791E+04  0.00000000000E+00 0. -1.
         25    2    1    2    0    0  0.61134404368E+01 -0.14758899209E+03  0.60037671041E+03  0.63079211605E+03  0.12500645793E+03 0.  0.
          2    1    1    2  501    0 -0.60021085101E+01  0.10690411668E+03 -0.12774263614E+04  0.12819058563E+04  0.00000000000E+00 0. -1.
          1    1    1    2  502    0 -0.11133192669E+00  0.40684875413E+02  0.54831854593E+03  0.54982588088E+03  0.00000000000E+00 0. -1.
         22    1    3    3    0    0  0.48872410477E+02 -0.13615141906E+02  0.12080157745E+03  0.13102253894E+03  0.00000000000E+00 0. -1.
         22    1    3    3    0    0 -0.42758970040E+02 -0.13397385019E+03  0.47957513296E+03  0.49976957711E+03  0.00000000000E+00 0. -1.
</event>
<event>
 7    1  0.6089676E-006  0.9302316E+02  0.7818608E-02  0.1370416E+00
          2   -1    0    0  502    0  0.00000000000E+00  0.00000000000E+00  0.17174007875E+04  0.17174007875E+04  0.00000000000E+00 0. -1.
          1   -1    0    0  501    0 -0.00000000000E+00 -0.00000000000E+00 -0.28433642923E+03  0.28433642923E+03  0.00000000000E+00 0. -1.
         25    2    1    2    0    0 -0.13823958622E+03 -0.12283850408E+02  0.12363860350E+03  0.22399327424E+03  0.12500162580E+03 0.  0.
          2    1    1    2  501    0  0.46451023679E+02  0.13349186023E+02 -0.23028358084E+03  0.23530071392E+03  0.00000000000E+00 0. -1.
          1    1    1    2  502    0  0.91788562536E+02 -0.10653356152E+01  0.15397093357E+04  0.15424432286E+04  0.00000000000E+00 0. -1.
         22    1    3    3    0    0 -0.79053675488E+02 -0.57819801484E+02  0.11138040251E+03  0.14831792581E+03  0.00000000000E+00 0. -1.
         22    1    3    3    0    0 -0.59185910728E+02  0.45535951075E+02  0.12258200983E+02  0.75675348432E+02  0.00000000000E+00 0. -1.
</event>
<event>
 7    1  0.6089676E-006  0.1928747E+03  0.7818608E-02  0.1269599E+00
          2   -1    0    0  502    0  0.00000000000E+00  0.00000000000E+00  0.60657275513E+03  0.60657275513E+03  0.00000000000E+00 0. -1.
          1   -1    0    0  501    0 -0.00000000000E+00 -0.00000000000E+00 -0.16180831780E+04  0.16180831780E+04  0.00000000000E+00 0. -1.
         25    2    1    2    0    0  0.98927193080E+02 -0.13673273292E+03 -0.23831949172E+02  0.21136419094E+03  0.12499771849E+03 0.  0.
          2    1    1    2  501    0 -0.65633371401E+02  0.18355156352E+03 -0.14925179576E+04  0.15051939309E+04  0.00000000000E+00 0. -1.
          1    1    1    2  502    0 -0.33293821679E+02 -0.46818830595E+02  0.50483948382E+03  0.50809781134E+03  0.00000000000E+00 0. -1.
         22    1    3    3    0    0  0.58824745072E+02 -0.15510288750E+03 -0.17540978043E+02  0.16680810008E+03  0.00000000000E+00 0.  1.
         22    1    3    3    0    0  0.40102448007E+02  0.18370154572E+02 -0.62909711285E+01  0.44556090862E+02  0.00000000000E+00 0.  1.
</event>
<event>
 7    1  0.6089676E-006  0.1015109E+03  0.7818608E-02  0.1456918E+00
          2   -1    0    0  502    0  0.00000000000E+00  0.00000000000E+00  0.75952035996E+03  0.75952035996E+03  0.00000000000E+00 0. -1.
          1   -1    0    0  501    0 -0.00000000000E+00 -0.00000000000E+00 -0.61307053616E+02  0.61307053616E+02  0.00000000000E+00 0. -1.
         25    2    1    2    0    0 -0.16202960551E+00  0.84277131844E+02  0.63417476460E+03  0.65184745480E+03  0.12499924427E+03 0.  0.
          2    1    1    2  501    0 -0.13832212822E+02 -0.10204566160E+03  0.20556659506E+01  0.10299938313E+03  0.00000000000E+00 0. -1.
          1    1    1    2  502    0  0.13994242427E+02  0.17768529757E+02  0.61982875791E+02  0.65980575642E+02  0.00000000000E+00 0. -1.
         22    1    3    3    0    0 -0.38256745379E+02  0.58951726013E+01  0.62124322839E+02  0.73196742517E+02  0.00000000000E+00 0.  1.
         22    1    3    3    0    0  0.38094715774E+02  0.78381959243E+02  0.57205044177E+03  0.57865071229E+03  0.00000000000E+00 0.  1.
</event>
<event>
 7    1  0.6089676E-006  0.3921283E+02  0.7818608E-02  0.1567477E+00
          2   -1    0    0  502    0  0.00000000000E+00  0.00000000000E+00  0.13087507782E+04  0.13087507782E+04  0.00000000000E+00 0. -1.
          1   -1    0    0  501    0 -0.00000000000E+00 -0.00000000000E+00 -0.36045433074E+03  0.36045433074E+03  0.00000000000E+00 0. -1.
         25    2    1    2    0    0 -0.26959226272E+02 -0.24688124441E+02 -0.87372469914E+02  0.15683904195E+03  0.12501293218E+03 0.  0.
          2    1    1    2  501    0  0.39778021264E+02  0.12342843931E+00 -0.23653701700E+03  0.23985843037E+03  0.00000000000E+00 0. -1.
          1    1    1    2  502    0 -0.12818794992E+02  0.24564696001E+02  0.12722059343E+04  0.12725076366E+04  0.00000000000E+00 0. -1.
         22    1    3    3    0    0 -0.38616915831E+02  0.38582409278E+02 -0.72593595209E+02  0.90827851232E+02  0.00000000000E+00 0. -1.
         22    1    3    3    0    0  0.11657689559E+02 -0.63270533719E+02 -0.14778874705E+02  0.66011190721E+02  0.00000000000E+00 0. -1.
</event>
<event>
 7    1  0.6089676E-006  0.6707703E+02  0.7818608E-02  0.1377222E+00
          2   -1    0    0  502    0  0.00000000000E+00  0.00000000000E+00  0.10127176796E+04  0.10127176796E+04  0.00000000000E+00 0. -1.
          1   -1    0    0  501    0 -0.00000000000E+00 -0.00000000000E+00 -0.31753776090E+03  0.31753776090E+03  0.00000000000E+00 0. -1.
         25    2    1    2    0    0  0.99079615249E+02 -0.14884421733E+02  0.21882808896E+03  0.27119969504E+03  0.12500090360E+03 0.  0.
          2    1    1    2  501    0 -0.45620176574E+02  0.48920135097E+02 -0.28618072065E+03  0.29389417313E+03  0.00000000000E+00 0. -1.
          1    1    1    2  502    0 -0.53459438676E+02 -0.34035713364E+02  0.76253255036E+03  0.76516157230E+03  0.00000000000E+00 0. -1.
         22    1    3    3    0    0  0.97804389951E+02 -0.24529098963E+02  0.23307303877E+03  0.25394963436E+03  0.00000000000E+00 0.  1.
         22    1    3    3    0    0  0.12752252981E+01  0.96446772306E+01 -0.14244949808E+02  0.17250060680E+02  0.00000000000E+00 0.  1.
</event>
<event>
 7    1  0.6089676E-006  0.8334083E+02  0.7818608E-02  0.1403543E+00
          2   -1    0    0  502    0  0.00000000000E+00  0.00000000000E+00  0.80818869606E+03  0.80818869606E+03  0.00000000000E+00 0. -1.
          1   -1    0    0  501    0 -0.00000000000E+00 -0.00000000000E+00 -0.50761827913E+03  0.50761827913E+03  0.00000000000E+00 0. -1.
         25    2    1    2    0    0 -0.42911391014E+02 -0.60461946023E+02  0.14434074052E+03  0.20483229299E+03  0.12499993793E+03 0.  0.
          2    1    1    2  501    0  0.75822093117E+02  0.35529956515E+02 -0.47301888208E+03  0.48037301175E+03  0.00000000000E+00 0. -1.
          1    1    1    2  502    0 -0.32910702103E+02  0.24931989508E+02  0.62924855849E+03  0.63060167045E+03  0.00000000000E+00 0. -1.
         22    1    3    3    0    0 -0.65820559011E+02 -0.65661719837E+02  0.46009275409E+02  0.10373360528E+03  0.00000000000E+00 0. -1.
         22    1    3    3    0    0  0.22909167997E+02  0.51997738142E+01  0.98331465107E+02  0.10109868771E+03  0.00000000000E+00 0. -1.
</event>
<event>
 7    1  0.9226914E-006  0.7315190E+02  0.7818608E-02  0.1396606E+00
          2   -1    0    0  502    0  0.00000000000E+00  0.00000000000E+00  0.20336899529E+04  0.20336899529E+04  0.00000000000E+00 0. -1.
          1   -1    0    0  501    0 -0.00000000000E+00 -0.00000000000E+00 -0.79768880222E+03  0.79768880222E+03  0.00000000000E+00 0. -1.
         25    2    1    2    0    0  0.73490827277E+02  0.74697707985E+02 -0.13082838821E+03  0.20909264655E+03  0.12499207338E+03 0.  0.
          2    1    1    2  501    0 -0.24286246523E+02 -0.67736636745E+02 -0.62535518283E+03  0.62948167441E+03  0.00000000000E+00 0. -1.
          1    1    1    2  502    0 -0.49204580754E+02 -0.69610712395E+01  0.19921847217E+04  0.19928044341E+04  0.00000000000E+00 0. -1.
         22    1    3    3    0    0 -0.11687363278E+02 -0.13443896700E+02 -0.70046801198E+02  0.72276463506E+02  0.00000000000E+00 0.  1.
         22    1    3    3    0    0  0.85178190555E+02  0.88141604685E+02 -0.60781587016E+02  0.13681618304E+03  0.00000000000E+00 0.  1.
</event>
<event>
 7    1  0.6089676E-006  0.1005010E+03  0.7818608E-02  0.1374803E+00
          2   -1    0    0  502    0  0.00000000000E+00  0.00000000000E+00  0.80041324915E+03  0.80041324915E+03  0.00000000000E+00 0. -1.
          1   -1    0    0  501    0 -0.00000000000E+00 -0.00000000000E+00 -0.13635853441E+03  0.13635853441E+03  0.00000000000E+00 0. -1.
         25    2    1    2    0    0  0.10852546853E+03  0.66678529609E+02  0.18347536375E+03  0.25594813163E+03  0.12498973298E+03 0.  0.
          2    1    1    2  501    0 -0.42745999873E+02  0.58602777796E+01 -0.91109385980E+02  0.10080914430E+03  0.00000000000E+00 0. -1.
          1    1    1    2  502    0 -0.65779468661E+02 -0.72538807388E+02  0.57168873697E+03  0.58001450763E+03  0.00000000000E+00 0. -1.
         22    1    3    3    0    0  0.29665165035E+02 -0.36553818209E+02  0.34982000697E+02  0.58651035924E+02  0.00000000000E+00 0. -1.
         22    1    3    3    0    0  0.78860303499E+02  0.10323234782E+03  0.14849336306E+03  0.19729709571E+03  0.00000000000E+00 0. -1.
</event>
<event>
 7    1  0.6089676E-006  0.2070499E+03  0.7818608E-02  0.1185562E+00
          2   -1    0    0  502    0  0.00000000000E+00  0.00000000000E+00  0.71351995395E+03  0.71351995395E+03  0.00000000000E+00 0. -1.
          1   -1    0    0  501    0 -0.00000000000E+00 -0.00000000000E+00 -0.58517654389E+03  0.58517654389E+03  0.00000000000E+00 0. -1.
         25    2    1    2    0    0 -0.16157518495E+03  0.55995799921E+02  0.66525826657E+02  0.22201764298E+03  0.12499631267E+03 0.  0.
          2    1    1    2  501    0 -0.55098935914E+02 -0.11555700911E+03 -0.47647074669E+03  0.49336972703E+03  0.00000000000E+00 0. -1.
          1    1    1    2  502    0  0.21667412087E+03  0.59561209191E+02  0.53828833009E+03  0.58330912783E+03  0.00000000000E+00 0. -1.
         22    1    3    3    0    0 -0.16668728620E+03  0.47318989820E+02  0.20011203340E+02  0.17442530332E+03  0.00000000000E+00 0.  1.
         22    1    3    3    0    0  0.51121012434E+01  0.86768101010E+01  0.46514623317E+02  0.47592339667E+02  0.00000000000E+00 0.  1.
</event>
<event>
 7    1  0.6089676E-006  0.1246794E+03  0.7818608E-02  0.1288717E+00
          2   -1    0    0  502    0  0.00000000000E+00  0.00000000000E+00  0.12284583060E+03  0.12284583060E+03  0.00000000000E+00 0. -1.
          1   -1    0    0  501    0 -0.00000000000E+00 -0.00000000000E+00 -0.15054570867E+04  0.15054570867E+04  0.00000000000E+00 0. -1.
         25    2    1    2    0    0 -0.17246867539E+03 -0.21043405444E+02 -0.97810029455E+03  0.10012459359E+04  0.12499987599E+03 0.  0.
          2    1    1    2  501    0  0.10284769068E+03 -0.42478252304E+01 -0.49757632194E+03  0.50811208179E+03  0.00000000000E+00 0. -1.
          1    1    1    2  502    0  0.69620984715E+02  0.25291230674E+02  0.93065360356E+02  0.11894489968E+03  0.00000000000E+00 0. -1.
         22    1    3    3    0    0 -0.14039507790E+03 -0.65532029038E+02 -0.62535378672E+03  0.64426126944E+03  0.00000000000E+00 0. -1.
         22    1    3    3    0    0 -0.32073597489E+02  0.44488623594E+02 -0.35274650783E+03  0.35698466644E+03  0.00000000000E+00 0. -1.
</event>
<event>
 7    1  0.6089676E-006  0.1627537E+03  0.7818608E-02  0.1241070E+00
          2   -1    0    0  502    0  0.00000000000E+00  0.00000000000E+00  0.19737296542E+04  0.19737296542E+04  0.00000000000E+00 0. -1.
          1   -1    0    0  501    0 -0.00000000000E+00 -0.00000000000E+00 -0.33411452139E+04  0.33411452139E+04  0.00000000000E+00 0. -1.
         25    2    1    2    0    0 -0.18202018996E+03  0.80611983584E+02  0.47223635456E+03  0.52750521098E+03  0.12499972640E+03 0.  0.
          2    1    1    2  501    0  0.10361496905E+03 -0.12542992175E+03 -0.33101275945E+04  0.33141233259E+04  0.00000000000E+00 0. -1.
          1    1    1    2  502    0  0.78405220911E+02  0.44817938166E+02  0.14704756803E+04  0.14732463312E+04  0.00000000000E+00 0. -1.
         22    1    3    3    0    0 -0.14977969102E+02 -0.17953167714E+02  0.14684178882E+03  0.14869151534E+03  0.00000000000E+00 0.  1.
         22    1    3    3    0    0 -0.16704222085E+03  0.98565151298E+02  0.32539456574E+03  0.37881369565E+03  0.00000000000E+00 0.  1.
</event>
<event>
 7    1  0.6089676E-006  0.7210365E+02  0.7818608E-02  0.1413205E+00
          2   -1    0    0  502    0  0.00000000000E+00  0.00000000000E+00  0.26602328999E+03  0.26602328999E+03  0.00000000000E+00 0. -1.
          1   -1    0    0  501    0 -0.00000000000E+00 -0.00000000000E+00 -0.11786551476E+03  0.11786551476E+03  0.00000000000E+00 0. -1.
         25    2    1    2    0    0 -0.37289637028E+02  0.54679957574E+02  0.93481307041E+02  0.16954280146E+03  0.12500236786E+03 0.  0.
          2    1    1    2  501    0  0.70174194165E+02 -0.25072360703E+02 -0.57262234751E+02  0.93978744015E+02  0.00000000000E+00 0. -1.
          1    1    1    2  502    0 -0.32884557137E+02 -0.29607596872E+02  0.11193870293E+03  0.12036725927E+03  0.00000000000E+00 0. -1.
         22    1    3    3    0    0  0.18043616411E+02  0.74598814565E+02  0.76422139533E+02  0.10830927310E+03  0.00000000000E+00 0.  1.
         22    1    3    3    0    0 -0.55333253439E+02 -0.19918856991E+02  0.17059167508E+02  0.61233528366E+02  0.00000000000E+00 0.  1.
</event>
<event>
 7    1  0.6089676E-006  0.4537185E+03  0.7818608E-02  0.1117626E+00
          2   -1    0    0  502    0  0.00000000000E+00  0.00000000000E+00  0.51449596177E+03  0.51449596177E+03  0.00000000000E+00 0. -1.
          1   -1    0    0  501    0 -0.00000000000E+00 -0.00000000000E+00 -0.14939589332E+04  0.14939589332E+04  0.00000000000E+00 0. -1.
         25    2    1    2    0    0 -0.43286216036E+03  0.36297194487E+02 -0.98137091845E+03  0.10804645834E+04  0.12501080020E+03 0.  0.
          2    1    1    2  501    0 -0.15254479254E+02 -0.12955101404E+03 -0.33509693793E+03  0.35959160472E+03  0.00000000000E+00 0. -1.
          1    1    1    2  502    0  0.44811663962E+03  0.93253819550E+02  0.33700488491E+03  0.56839870691E+03  0.00000000000E+00 0. -1.
         22    1    3    3    0    0 -0.37455078114E+03 -0.69795303980E+01 -0.75675383336E+03  0.84440118771E+03  0.00000000000E+00 0.  1.
         22    1    3    3    0    0 -0.58311379218E+02  0.43276724885E+02 -0.22461708509E+03  0.23606339567E+03  0.00000000000E+00 0.  1.
</event>
<event>
 7    1  0.6089676E-006  0.9715046E+02  0.7818608E-02  0.1395527E+00
          2   -1    0    0  502    0  0.00000000000E+00  0.00000000000E+00  0.15369873020E+04  0.15369873020E+04  0.00000000000E+00 0. -1.
          1   -1    0    0  501    0 -0.00000000000E+00 -0.00000000000E+00 -0.23080442847E+04  0.23080442847E+04  0.00000000000E+00 0. -1.
         25    2    1    2    0    0 -0.51698318709E+02 -0.38518010004E+02  0.80713050886E+03  0.81929225268E+03  0.12499513479E+03 0.  0.
          2    1    1    2  501    0  0.89437202733E+02  0.38048115906E+02 -0.23004445398E+04  0.23024968519E+04  0.00000000000E+00 0. -1.
          1    1    1    2  502    0 -0.37738884024E+02  0.46989409854E+00  0.72225704821E+03  0.72324248206E+03  0.00000000000E+00 0. -1.
         22    1    3    3    0    0 -0.37063761293E+02  0.39551970501E+02  0.46041555824E+03  0.46359526210E+03  0.00000000000E+00 0.  1.
         22    1    3    3    0    0 -0.14634557416E+02 -0.78069980505E+02  0.34671495062E+03  0.35569699058E+03  0.00000000000E+00 0.  1.
</event>
<event>
 7    1  0.6089676E-006  0.1109796E+03  0.7818608E-02  0.1338064E+00
          2   -1    0    0  502    0  0.00000000000E+00  0.00000000000E+00  0.31712944981E+04  0.31712944981E+04  0.00000000000E+00 0. -1.
          1   -1    0    0  501    0 -0.00000000000E+00 -0.00000000000E+00 -0.61707388300E+02  0.61707388300E+02  0.00000000000E+00 0. -1.
         25    2    1    2    0    0  0.68259432399E+02  0.10440074811E+03  0.19642527487E+03  0.26413280919E+03  0.12499754383E+03 0.  0.
          2    1    1    2  501    0 -0.92170453780E+02 -0.56769875822E+02  0.78528045744E+02  0.13373430868E+03  0.00000000000E+00 0. -1.
          1    1    1    2  502    0  0.23911021381E+02 -0.47630872292E+02  0.28346337892E+04  0.28351347685E+04  0.00000000000E+00 0. -1.
         22    1    3    3    0    0 -0.12002213569E+02  0.47950115253E+02  0.58439726803E+01  0.49773674769E+02  0.00000000000E+00 0.  1.
         22    1    3    3    0    0  0.80261645968E+02  0.56450632861E+02  0.19058130219E+03  0.21435913442E+03  0.00000000000E+00 0.  1.
</event>
<event>
 7    1  0.6089676E-006  0.9513390E+02  0.7818608E-02  0.1396191E+00
          2   -1    0    0  502    0  0.00000000000E+00  0.00000000000E+00  0.10175994498E+04  0.10175994498E+04  0.00000000000E+00 0. -1.
          1   -1    0    0  501    0 -0.00000000000E+00 -0.00000000000E+00 -0.10209701037E+03  0.10209701037E+03  0.00000000000E+00 0. -1.
         25    2    1    2    0    0 -0.11429661382E+03  0.38546584134E+02  0.46529563154E+03  0.49666373905E+03  0.12500115953E+03 0.  0.
          2    1    1    2  501    0  0.93768909663E+02 -0.61670402092E+01 -0.59931431989E+02  0.11145589865E+03  0.00000000000E+00 0. -1.
          1    1    1    2  502    0  0.20527704156E+02 -0.32379543925E+02  0.51013823991E+03  0.51157682250E+03  0.00000000000E+00 0. -1.
         22    1    3    3    0    0 -0.60217320145E+02  0.27055973492E+02  0.65267429458E+02  0.92833122834E+02  0.00000000000E+00 0. -1.
         22    1    3    3    0    0 -0.54079293673E+02  0.11490610642E+02  0.40002820208E+03  0.40383061622E+03  0.00000000000E+00 0. -1.
</event>
<event>
 7    1  0.6089676E-006  0.1524376E+03  0.7818608E-02  0.1374876E+00
          2   -1    0    0  502    0  0.00000000000E+00  0.00000000000E+00  0.32569329188E+04  0.32569329188E+04  0.00000000000E+00 0. -1.
          1   -1    0    0  501    0 -0.00000000000E+00 -0.00000000000E+00 -0.98021171455E+03  0.98021171455E+03  0.00000000000E+00 0. -1.
         25    2    1    2    0    0 -0.34226224293E+02 -0.14479399878E+03  0.12250040042E+04  0.12403210845E+04  0.12499938378E+03 0.  0.
          2    1    1    2  501    0  0.62108044810E+02  0.13924460621E+03 -0.96647682150E+03  0.97842931073E+03  0.00000000000E+00 0. -1.
          1    1    1    2  502    0 -0.27881820517E+02  0.55493925705E+01  0.20181940216E+04  0.20183942381E+04  0.00000000000E+00 0. -1.
         22    1    3    3    0    0 -0.71150727122E+02 -0.11699046087E+03  0.10652637549E+04  0.10740279612E+04  0.00000000000E+00 0.  1.
         22    1    3    3    0    0  0.36924502829E+02 -0.27803537908E+02  0.15974024926E+03  0.16629312332E+03  0.00000000000E+00 0.  1.
</event>
<event>
 7    1  0.6089676E-006  0.1208444E+03  0.7818608E-02  0.1283715E+00
          2   -1    0    0  502    0  0.00000000000E+00  0.00000000000E+00  0.10261730694E+04  0.10261730694E+04  0.00000000000E+00 0. -1.
          1   -1    0    0  501    0 -0.00000000000E+00 -0.00000000000E+00 -0.67918716101E+03  0.67918716101E+03  0.00000000000E+00 0. -1.
         25    2    1    2    0    0  0.38737786862E+02  0.62858276735E+02  0.20073601442E+03  0.24774335178E+03  0.12502016550E+03 0.  0.
          2    1    1    2  501    0  0.15921064194E+02 -0.12142506856E+03 -0.64793248763E+03  0.65940430397E+03  0.00000000000E+00 0. -1.
          1    1    1    2  502    0 -0.54658851055E+02  0.58566791821E+02  0.79418238160E+03  0.79821257466E+03  0.00000000000E+00 0. -1.
         22    1    3    3    0    0  0.13137254116E+02 -0.10664517663E+02 -0.12305632183E+02  0.20922427348E+02  0.00000000000E+00 0. -1.
         22    1    3    3    0    0  0.25600532745E+02  0.73522794398E+02  0.21304164660E+03  0.22682092443E+03  0.00000000000E+00 0. -1.
</event>
<event>
 7    1  0.6089676E-006  0.5735712E+02  0.7818608E-02  0.1429582E+00
          2   -1    0    0  502    0  0.00000000000E+00  0.00000000000E+00  0.63898005210E+03  0.63898005210E+03  0.00000000000E+00 0. -1.
          1   -1    0    0  501    0 -0.00000000000E+00 -0.00000000000E+00 -0.12167463658E+04  0.12167463658E+04  0.00000000000E+00 0. -1.
         25    2    1    2    0    0  0.24816902089E+02 -0.80061073904E+02  0.15489060650E+03  0.21596801192E+03  0.12500171202E+03 0.  0.
          2    1    1    2  501    0  0.17163854129E+02  0.54683075647E+02 -0.11841861215E+04  0.11855722698E+04  0.00000000000E+00 0. -1.
          1    1    1    2  502    0 -0.41980756219E+02  0.25377998256E+02  0.45152920127E+03  0.45418613617E+03  0.00000000000E+00 0. -1.
         22    1    3    3    0    0  0.62560492742E+02 -0.64392810315E+02  0.14999321932E+03  0.17480908190E+03  0.00000000000E+00 0. -1.
         22    1    3    3    0    0 -0.37743590653E+02 -0.15668263589E+02  0.48973871758E+01  0.41158930020E+02  0.00000000000E+00 0. -1.
</event>
<event>
 7    1  0.6089676E-006  0.2782100E+03  0.7818608E-02  0.1148882E+00
          2   -1    0    0  502    0  0.00000000000E+00  0.00000000000E+00  0.17211551970E+04  0.17211551970E+04  0.00000000000E+00 0. -1.
          1   -1    0    0  501    0 -0.00000000000E+00 -0.00000000000E+00 -0.11673501549E+03  0.11673501549E+03  0.00000000000E+00 0. -1.
         25    2    1    2    0    0 -0.22455205449E+03  0.32860505499E+02  0.47052784285E+03  0.53714749381E+03  0.12501016444E+03 0.  0.
          2    1    1    2  501    0 -0.49678946513E+02  0.13648503499E+03  0.26810893430E+02  0.14769897261E+03  0.00000000000E+00 0. -1.
          1    1    1    2  502    0  0.27423100100E+03 -0.16934554049E+03  0.11070814452E+04  0.11530437461E+04  0.00000000000E+00 0. -1.
         22    1    3    3    0    0 -0.13812508311E+03  0.14931541958E+02  0.14898966718E+03  0.20371404089E+03  0.00000000000E+00 0. -1.
         22    1    3    3    0    0 -0.86426971381E+02  0.17928963541E+02  0.32153817567E+03  0.33343345292E+03  0.00000000000E+00 0. -1.
</event>
<event>
 7    1  0.6089676E-006  0.1579387E+03  0.7818608E-02  0.1362493E+00
          2   -1    0    0  502    0  0.00000000000E+00  0.00000000000E+00  0.16408832710E+03  0.16408832710E+03  0.00000000000E+00 0. -1.
          1   -1    0    0  501    0 -0.00000000000E+00 -0.00000000000E+00 -0.62611817883E+03  0.62611817883E+03  0.00000000000E+00 0. -1.
         25    2    1    2    0    0  0.15993384285E+03  0.11237768380E+02 -0.68810467792E+02  0.21462744231E+03  0.12499974794E+03 0.  0.
          2    1    1    2  501    0 -0.15680477406E+03  0.19007190654E+02 -0.46848914252E+03  0.49439972403E+03  0.00000000000E+00 0. -1.
          1    1    1    2  502    0 -0.31290687979E+01 -0.30244959034E+02  0.75269758589E+02  0.81179339591E+02  0.00000000000E+00 0. -1.
         22    1    3    3    0    0  0.53406049321E+02  0.33124409463E+02  0.28211578384E+02  0.68886324922E+02  0.00000000000E+00 0.  1.
         22    1    3    3    0    0  0.10652779353E+03 -0.21886641083E+02 -0.97022046176E+02  0.14574111739E+03  0.00000000000E+00 0.  1.
</event>
<event>
 7    1  0.6089676E-006  0.9238959E+02  0.7818608E-02  0.1373433E+00
          2   -1    0    0  502    0  0.00000000000E+00  0.00000000000E+00  0.11833520857E+04  0.11833520857E+04  0.00000000000E+00 0. -1.
          1   -1    0    0  501    0 -0.00000000000E+00 -0.00000000000E+00 -0.19385228298E+03  0.19385228298E+03  0.00000000000E+00 0. -1.
         25    2    1    2    0    0  0.67126268380E+02  0.20823850099E+02  0.50854454267E+03  0.52838758212E+03  0.12504525752E+03 0.  0.
          2    1    1    2  501    0 -0.90868394792E+02  0.20277361378E+02 -0.17123083360E+03  0.19490570780E+03  0.00000000000E+00 0. -1.
          1    1    1    2  502    0  0.23742126412E+02 -0.41101211477E+02  0.65218609365E+03  0.65391107875E+03  0.00000000000E+00 0. -1.
         22    1    3    3    0    0  0.93685515143E+02  0.46203758321E+02  0.41350651260E+03  0.42649665766E+03  0.00000000000E+00 0. -1.
         22    1    3    3    0    0 -0.26559246763E+02 -0.25379908222E+02  0.95038030065E+02  0.10189092447E+03  0.00000000000E+00 0. -1.
</event>
<event>
 7    1  0.6089676E-006  0.8046879E+02  0.7818608E-02  0.1349346E+00
          2   -1    0    0  502    0  0.00000000000E+00  0.00000000000E+00  0.12351555165E+04  0.12351555165E+04  0.00000000000E+00 0. -1.
          1   -1    0    0  501    0 -0.00000000000E+00 -0.00000000000E+00 -0.94583342775E+03  0.94583342775E+03  0.00000000000E+00 0. -1.
         25    2    1    2    0    0  0.12913416093E+03  0.67649646793E+02  0.16786194620E+03  0.25508521789E+03  0.12505490463E+03 0.  0.
          2    1    1    2  501    0 -0.66832547789E+02 -0.43837970876E+02 -0.89936120244E+03  0.90290582543E+03  0.00000000000E+00 0. -1.
          1    1    1    2  502    0 -0.62301613140E+02 -0.23811675917E+02  0.10208213450E+04  0.10229979010E+04  0.00000000000E+00 0. -1.
         22    1    3    3    0    0  0.73710548779E+02  0.35404405180E+02  0.17239337418E+03  0.19080406801E+03  0.00000000000E+00 0. -1.
         22    1    3    3    0    0  0.55423612149E+02  0.32245241613E+02 -0.45314279801E+01  0.64281149880E+02  0.00000000000E+00 0. -1.
</event>
<event>
 7    1  0.6089676E-006  0.1492797E+03  0.7818608E-02  0.1271226E+00
          2   -1    0    0  502    0  0.00000000000E+00  0.00000000000E+00  0.68654505074E+03  0.68654505074E+03  0.00000000000E+00 0. -1.
          1   -1    0    0  501    0 -0.00000000000E+00 -0.00000000000E+00 -0.72412269586E+03  0.72412269586E+03  0.00000000000E+00 0. -1.
         25    2    1    2    0    0  0.21857759245E+02 -0.17182627962E+03  0.21575390362E+03  0.30360609413E+03  0.12499952584E+03 0.  0.
          2    1    1    2  501    0 -0.65378651491E+02  0.32630859772E+02 -0.66568208539E+03  0.66968035651E+03  0.00000000000E+00 0. -1.
          1    1    1    2  502    0  0.43520892246E+02  0.13919541985E+03  0.41235053665E+03  0.43738129595E+03  0.00000000000E+00 0. -1.
         22    1    3    3    0    0  0.54463715577E+02 -0.90549623429E+02  0.51688791627E+02  0.11763189107E+03  0.00000000000E+00 0.  1.
         22    1    3    3    0    0 -0.32605956332E+02 -0.81276656189E+02  0.16406511200E+03  0.18597420306E+03  0.00000000000E+00 0.  1.
</event>
<event>
 7    1  0.6089676E-006  0.2470941E+03  0.7818608E-02  0.1234430E+00
          2   -1    0    0  502    0  0.00000000000E+00  0.00000000000E+00  0.12300423312E+04  0.12300423312E+04  0.00000000000E+00 0. -1.
          1   -1    0    0  501    0 -0.00000000000E+00 -0.00000000000E+00 -0.78457523693E+03  0.78457523693E+03  0.00000000000E+00 0. -1.
         25    2    1    2    0    0 -0.14418137040E+03  0.25376829636E+03  0.20175699300E+02  0.31815086409E+03  0.12500519056E+03 0.  0.
          2    1    1    2  501    0  0.57921702775E+02 -0.26389787895E+02 -0.61999993159E+03  0.62325858176E+03  0.00000000000E+00 0. -1.
          1    1    1    2  502    0  0.86259667625E+02 -0.22737850847E+03  0.10452913266E+04  0.10732081223E+04  0.00000000000E+00 0. -1.
         22    1    3    3    0    0 -0.67402110452E+02  0.19612148501E+03 -0.30459233857E+02  0.20960545390E+03  0.00000000000E+00 0. -1.
         22    1    3    3    0    0 -0.76779259947E+02  0.57646811352E+02  0.50634933158E+02  0.10854541019E+03  0.00000000000E+00 0. -1.
</event>
<event>
 7    1  0.6089676E-006  0.8885888E+02  0.7818608E-02  0.1326999E+00
          2   -1    0    0  502    0  0.00000000000E+00  0.00000000000E+00  0.17380460748E+04  0.17380460748E+04  0.00000000000E+00 0. -1.
          1   -1    0    0  501    0 -0.00000000000E+00 -0.00000000000E+00 -0.13839686973E+03  0.13839686973E+03  0.00000000000E+00 0. -1.
         25    2    1    2    0    0 -0.37591184976E+02 -0.33132890456E+02  0.19685370205E+03  0.23850044447E+03  0.12498078407E+03 0.  0.
          2    1    1    2  501    0 -0.53650475527E+02  0.50004578451E+02 -0.10456926425E+03  0.12772455682E+03  0.00000000000E+00 0. -1.
          1    1    1    2  502    0  0.91241660503E+02 -0.16871687995E+02  0.15073647672E+04  0.15102179432E+04  0.00000000000E+00 0. -1.
         22    1    3    3    0    0  0.33345134429E+02 -0.34623879078E+02  0.13859614441E+03  0.14669561083E+03  0.00000000000E+00 0.  1.
         22    1    3    3    0    0 -0.70936319404E+02  0.14909886221E+01  0.58257557640E+02  0.91804833641E+02  0.00000000000E+00 0.  1.
</event>
<event>
 7    1  0.6089676E-006  0.2897448E+02  0.7818608E-02  0.1663469E+00
          2   -1    0    0  502    0  0.00000000000E+00  0.00000000000E+00  0.88580198645E+02  0.88580198645E+02  0.00000000000E+00 0. -1.
          1   -1    0    0  501    0 -0.00000000000E+00 -0.00000000000E+00 -0.21612634592E+04  0.21612634592E+04  0.00000000000E+00 0. -1.
         25    2    1    2    0    0 -0.18545186187E+02 -0.34168355229E+02 -0.11229940480E+04  0.11305994020E+04  0.12501190120E+03 0.  0.
          2    1    1    2  501    0  0.20612226709E+02  0.52760775573E+01 -0.10318796323E+04  0.10320989664E+04  0.00000000000E+00 0. -1.
          1    1    1    2  502    0 -0.20670405223E+01  0.28892277671E+02  0.82190419792E+02  0.87145289438E+02  0.00000000000E+00 0. -1.
         22    1    3    3    0    0  0.37508896669E+02 -0.16559982297E+02 -0.86618565811E+03  0.86715554813E+03  0.00000000000E+00 0.  1.
         22    1    3    3    0    0 -0.56054082856E+02 -0.17608372932E+02 -0.25680838992E+03  0.26344385386E+03  0.00000000000E+00 0.  1.
</event>
<event>
 7    1  0.6089676E-006  0.5378722E+02  0.7818608E-02  0.1435133E+00
          2   -1    0    0  502    0  0.00000000000E+00  0.00000000000E+00  0.41514032381E+03  0.41514032381E+03  0.00000000000E+00 0. -1.
          1   -1    0    0  501    0 -0.00000000000E+00 -0.00000000000E+00 -0.16062396856E+04  0.16062396856E+04  0.00000000000E+00 0. -1.
         25    2    1    2    0    0 -0.37101952809E+01 -0.10375592347E+03 -0.77137916754E+03  0.78830456872E+03  0.12497686086E+03 0.  0.
          2    1    1    2  501    0  0.26364965939E+01  0.50093256185E+02 -0.82386067313E+03  0.82538639082E+03  0.00000000000E+00 0. -1.
          1    1    1    2  502    0  0.10736986870E+01  0.53662667289E+02  0.40414047889E+03  0.40768904985E+03  0.00000000000E+00 0. -1.
         22    1    3    3    0    0  0.58562883191E+01 -0.10126173034E+03 -0.77177363594E+03  0.77841041827E+03  0.00000000000E+00 0.  1.
         22    1    3    3    0    0 -0.95664836000E+01 -0.24941931312E+01  0.39446839844E+00  0.98941504517E+01  0.00000000000E+00 0.  1.
</event>
<event>
 7    1  0.6089676E-006  0.3346216E+02  0.7818608E-02  0.1571192E+00
          2   -1    0    0  502    0  0.00000000000E+00  0.00000000000E+00  0.12627379638E+04  0.12627379638E+04  0.00000000000E+00 0. -1.
          1   -1    0    0  501    0 -0.00000000000E+00 -0.00000000000E+00 -0.62059008242E+03  0.62059008242E+03  0.00000000000E+00 0. -1.
         25    2    1    2    0    0  0.53342164350E+02 -0.98065796709E+01  0.12868413669E+03  0.18741940578E+03  0.12499948450E+03 0.  0.
          2    1    1    2  501    0 -0.30938109308E+02 -0.12653141301E+02 -0.59052197559E+03  0.59146721992E+03  0.00000000000E+00 0. -1.
          1    1    1    2  502    0 -0.22404055042E+02  0.22459720972E+02  0.11039857203E+04  0.11044414205E+04  0.00000000000E+00 0. -1.
         22    1    3    3    0    0  0.41984983062E+02 -0.31627604641E+02  0.14741114706E+03  0.15650268514E+03  0.00000000000E+00 0. -1.
         22    1    3    3    0    0  0.11357181287E+02  0.21821024970E+02 -0.18727010374E+02  0.30916720639E+02  0.00000000000E+00 0. -1.
</event>
<event>
 7    1  0.6089676E-006  0.1060480E+03  0.7818608E-02  0.1320602E+00
          2   -1    0    0  502    0  0.00000000000E+00  0.00000000000E+00  0.25061532249E+04  0.25061532249E+04  0.00000000000E+00 0. -1.
          1   -1    0    0  501    0 -0.00000000000E+00 -0.00000000000E+00 -0.35867800761E+02  0.35867800761E+02  0.00000000000E+00 0. -1.
         25    2    1    2    0    0 -0.61658279254E+02  0.94786040487E+02  0.55154961591E+03  0.57673028101E+03  0.12499880537E+03 0.  0.
          2    1    1    2  501    0  0.63831763750E+02  0.12505024677E+02  0.26858334986E+02  0.70372152616E+02  0.00000000000E+00 0. -1.
          1    1    1    2  502    0 -0.21734844955E+01 -0.10729106516E+03  0.18918774733E+04  0.18949185921E+04  0.00000000000E+00 0. -1.
         22    1    3    3    0    0  0.37259381116E+02  0.17380574802E+02  0.17579077845E+03  0.18053460513E+03  0.00000000000E+00 0. -1.
         22    1    3    3    0    0 -0.98917660370E+02  0.77405465686E+02  0.37575883746E+03  0.39619567588E+03  0.00000000000E+00 0. -1.
</event>
