<event>
 7    1  0.6122298E-006  0.4679008E+02  0.7818608E-02  0.1554278E+00
          2   -1    0    0  502    0  0.00000000000E+00  0.00000000000E+00  0.14072148433E+03  0.14072148433E+03  0.00000000000E+00 0. -1.
          1   -1    0    0  501    0 -0.00000000000E+00 -0.00000000000E+00 -0.52713888772E+03  0.52713888772E+03  0.00000000000E+00 0. -1.
         25    2    1    2    0    0 -0.19389757868E+02 -0.52757462746E+02 -0.28801037121E+03  0.31895876239E+03  0.12500162236E+03 0.  0.
          2    1    1    2  501    0  0.24447634503E+02  0.62946745658E+01 -0.21854212700E+03  0.21999538866E+03  0.00000000000E+00 0. -1.
          1    1    1    2  502    0 -0.50578766352E+01  0.46462788180E+02  0.12013509482E+03  0.12890622099E+03  0.00000000000E+00 0. -1.
         22    1    3    3    0    0  0.10060456007E+02  0.33996556704E+02 -0.34781127511E+02  0.49665938769E+02  0.00000000000E+00 0. -1.
         22    1    3    3    0    0 -0.29450213875E+02 -0.86754019450E+02 -0.25322924370E+03  0.26929282362E+03  0.00000000000E+00 0. -1.
</event>
<event>
 7    1  0.6122298E-006  0.3876793E+02  0.7818608E-02  0.1532592E+00
          2   -1    0    0  502    0  0.00000000000E+00  0.00000000000E+00  0.41239056228E+03  0.41239056228E+03  0.00000000000E+00 0. -1.
          1   -1    0    0  501    0 -0.00000000000E+00 -0.00000000000E+00 -0.54959527502E+02  0.54959527502E+02  0.00000000000E+00 0. -1.
         25    2    1    2    0    0  0.51226342122E+02 -0.77557548128E+01  0.95570823094E+02  0.16565772712E+03  0.12499764185E+03 0.  0.
          2    1    1    2  501    0 -0.24151881796E+02  0.30039725122E+02  0.10745167732E+01  0.38559733738E+02  0.00000000000E+00 0. -1.
          1    1    1    2  502    0 -0.27074460327E+02 -0.22283970309E+02  0.26078569491E+03  0.26313262892E+03  0.00000000000E+00 0. -1.
         22    1    3    3    0    0  0.41456123157E+02 -0.41365443614E+02  0.11246002021E+03  0.12679497710E+03  0.00000000000E+00 0.  1.
         22    1    3    3    0    0  0.97702189654E+01  0.33609688802E+02 -0.16889197113E+02  0.38862750020E+02  0.00000000000E+00 0.  1.
</event>
<event>
 7    1  0.6122298E-006  0.7698346E+02  0.7818608E-02  0.1375972E+00
          2   -1    0    0  502    0  0.00000000000E+00  0.00000000000E+00  0.38226135735E+03  0.38226135735E+03  0.00000000000E+00 0. -1.
          1   -1    0    0  501    0 -0.00000000000E+00 -0.00000000000E+00 -0.45159269956E+03  0.45159269956E+03  0.00000000000E+00 0. -1.
         25    2    1    2    0    0 -0.61419513861E+02  0.89099030716E+02  0.12067199369E+03  0.20468859984E+03  0.12499879555E+03 0.  0.
          2    1    1    2  501    0 -0.44957272623E+01 -0.55606856507E+02 -0.40137612754E+03  0.40523466018E+03  0.00000000000E+00 0. -1.
          1    1    1    2  502    0  0.65915241123E+02 -0.33492174209E+02  0.21137279164E+03  0.22393079688E+03  0.00000000000E+00 0. -1.
         22    1    3    3    0    0 -0.87969166926E+02  0.30347131782E+02  0.10088325369E+03  0.13724778181E+03  0.00000000000E+00 0. -1.
         22    1    3    3    0    0  0.26549653065E+02  0.58751898934E+02  0.19788739995E+02  0.67440818032E+02  0.00000000000E+00 0. -1.
</event>
<event>
 7    1  0.6122298E-006  0.7199895E+02  0.7818608E-02  0.1366222E+00
          2   -1    0    0  502    0  0.00000000000E+00  0.00000000000E+00  0.33962302689E+03  0.33962302689E+03  0.00000000000E+00 0. -1.
          1   -1    0    0  501    0 -0.00000000000E+00 -0.00000000000E+00 -0.27590003418E+03  0.27590003418E+03  0.00000000000E+00 0. -1.
         25    2    1    2    0    0 -0.24586044311E+02  0.82659578656E+01 -0.79056293232E+02  0.15015845587E+03  0.12499945894E+03 0.  0.
          2    1    1    2  501    0  0.69944188102E+02 -0.54342049167E+02 -0.14527284383E+03  0.17014536994E+03  0.00000000000E+00 0. -1.
          1    1    1    2  502    0 -0.45358143791E+02  0.46076091301E+02  0.28805212978E+03  0.29521923526E+03  0.00000000000E+00 0. -1.
         22    1    3    3    0    0  0.44541982233E+02  0.23136694130E+02 -0.97173639232E+01  0.51124572938E+02  0.00000000000E+00 0. -1.
         22    1    3    3    0    0 -0.69128026544E+02 -0.14870736264E+02 -0.69338929309E+02  0.99033882932E+02  0.00000000000E+00 0. -1.
</event>
<event>
 7    1  0.6122298E-006  0.7332857E+02  0.7818608E-02  0.1358436E+00
          2   -1    0    0  502    0  0.00000000000E+00  0.00000000000E+00  0.15193425027E+04  0.15193425027E+04  0.00000000000E+00 0. -1.
          1   -1    0    0  501    0 -0.00000000000E+00 -0.00000000000E+00 -0.55486129926E+02  0.55486129926E+02  0.00000000000E+00 0. -1.
         25    2    1    2    0    0 -0.19656017501E+02  0.29144602152E+02  0.62703631889E+03  0.64034013397E+03  0.12500070042E+03 0.  0.
          2    1    1    2  501    0 -0.36842483117E+02 -0.66553576296E+02 -0.17030268852E+02  0.77953685847E+02  0.00000000000E+00 0. -1.
          1    1    1    2  502    0  0.56498500618E+02  0.37408974144E+02  0.85385032272E+03  0.85653481279E+03  0.00000000000E+00 0. -1.
         22    1    3    3    0    0 -0.50255184352E+02 -0.26648530840E+01  0.54381399621E+03  0.54613766347E+03  0.00000000000E+00 0. -1.
         22    1    3    3    0    0  0.30599166851E+02  0.31809455236E+02  0.83222322689E+02  0.94202470499E+02  0.00000000000E+00 0. -1.
</event>
<event>
 7    1  0.6122298E-006  0.3759130E+02  0.7818608E-02  0.1628313E+00
          2   -1    0    0  502    0  0.00000000000E+00  0.00000000000E+00  0.31190410837E+03  0.31190410837E+03  0.00000000000E+00 0. -1.
          1   -1    0    0  501    0 -0.00000000000E+00 -0.00000000000E+00 -0.47863337946E+03  0.47863337946E+03  0.00000000000E+00 0. -1.
         25    2    1    2    0    0 -0.35606113220E+01  0.32533923998E+02 -0.74690229997E+02  0.14924735315E+03  0.12500003120E+03 0.  0.
          2    1    1    2  501    0 -0.16399166787E+02 -0.34108416061E+02 -0.36532079695E+03  0.36727591999E+03  0.00000000000E+00 0. -1.
          1    1    1    2  502    0  0.19959778109E+02  0.15744920632E+01  0.27328175586E+03  0.27401421469E+03  0.00000000000E+00 0. -1.
         22    1    3    3    0    0  0.51821493782E+01  0.78838361390E+02 -0.30639446369E+02  0.84741474926E+02  0.00000000000E+00 0.  1.
         22    1    3    3    0    0 -0.87427607002E+01 -0.46304437392E+02 -0.44050783628E+02  0.64505878221E+02  0.00000000000E+00 0.  1.
</event>
<event>
 7    1  0.6122298E-006  0.4606071E+02  0.7818608E-02  0.1585465E+00
          2   -1    0    0  502    0  0.00000000000E+00  0.00000000000E+00  0.12297710748E+04  0.12297710748E+04  0.00000000000E+00 0. -1.
          1   -1    0    0  501    0 -0.00000000000E+00 -0.00000000000E+00 -0.41984978334E+02  0.41984978334E+02  0.00000000000E+00 0. -1.
         25    2    1    2    0    0  0.43796876721E+02 -0.14550832404E+02  0.21208919016E+03  0.25047153918E+03  0.12499709685E+03 0.  0.
          2    1    1    2  501    0 -0.33052611071E+02  0.32708522046E+02  0.11558943354E+01  0.46515143822E+02  0.00000000000E+00 0. -1.
          1    1    1    2  502    0 -0.10744265650E+02 -0.18157689641E+02  0.97454101200E+03  0.97476937016E+03  0.00000000000E+00 0. -1.
         22    1    3    3    0    0 -0.12327295678E+01 -0.59123084472E+02  0.15221112726E+03  0.16329508873E+03  0.00000000000E+00 0. -1.
         22    1    3    3    0    0  0.45029606289E+02  0.44572252068E+02  0.59878062895E+02  0.87176450450E+02  0.00000000000E+00 0. -1.
</event>
<event>
 7    1  0.6122298E-006  0.3601614E+02  0.7818608E-02  0.1548915E+00
          2   -1    0    0  502    0  0.00000000000E+00  0.00000000000E+00  0.19481929152E+03  0.19481929152E+03  0.00000000000E+00 0. -1.
          1   -1    0    0  501    0 -0.00000000000E+00 -0.00000000000E+00 -0.34720619718E+03  0.34720619718E+03  0.00000000000E+00 0. -1.
         25    2    1    2    0    0 -0.62947820864E+02 -0.16111358390E+01 -0.13497007772E+03  0.19444072172E+03  0.12500099390E+03 0.  0.
          2    1    1    2  501    0  0.30084840850E+02  0.15718874624E+02 -0.17894957688E+03  0.18214041763E+03  0.00000000000E+00 0. -1.
          1    1    1    2  502    0  0.32862980013E+02 -0.14107738785E+02  0.16153274894E+03  0.16544434934E+03  0.00000000000E+00 0. -1.
         22    1    3    3    0    0 -0.52865328524E+02  0.40980251890E+02 -0.13501105105E+03  0.15067218692E+03  0.00000000000E+00 0.  1.
         22    1    3    3    0    0 -0.10082492339E+02 -0.42591387728E+02  0.40973330169E-01  0.43768534808E+02  0.00000000000E+00 0.  1.
</event>
<event>
 7    1  0.8425613E-006  0.1072516E+03  0.7818608E-02  0.1374639E+00
          2   -1    0    0  502    0  0.00000000000E+00  0.00000000000E+00  0.11373500039E+04  0.11373500039E+04  0.00000000000E+00 0. -1.
          1   -1    0    0  501    0 -0.00000000000E+00 -0.00000000000E+00 -0.21550604207E+04  0.21550604207E+04  0.00000000000E+00 0. -1.
         25    2    1    2    0    0  0.85900776739E+02 -0.46557819355E+02 -0.69814886235E+03  0.71594946757E+03  0.12500092855E+03 0.  0.
          2    1    1    2  501    0 -0.10994989822E+03  0.13990228475E+02 -0.14455259663E+04  0.14497689560E+04  0.00000000000E+00 0. -1.
          1    1    1    2  502    0  0.24049121479E+02  0.32567590880E+02  0.11259644119E+04  0.11266920010E+04  0.00000000000E+00 0. -1.
         22    1    3    3    0    0 -0.20042106789E+02 -0.40658038992E+01 -0.32712772922E+03  0.32776633145E+03  0.00000000000E+00 0.  1.
         22    1    3    3    0    0  0.10594288353E+03 -0.42492015456E+02 -0.37102113313E+03  0.38818313613E+03  0.00000000000E+00 0.  1.
</event>
<event>
 7    1  0.6122298E-006  0.4518262E+02  0.7818608E-02  0.1544582E+00
          2   -1    0    0  502    0  0.00000000000E+00  0.00000000000E+00  0.35812948760E+03  0.35812948760E+03  0.00000000000E+00 0. -1.
          1   -1    0    0  501    0 -0.00000000000E+00 -0.00000000000E+00 -0.15251127014E+03  0.15251127014E+03  0.00000000000E+00 0. -1.
         25    2    1    2    0    0 -0.33866220555E+02 -0.18260840547E+02  0.12935219090E+02  0.13142048976E+03  0.12499458406E+03 0.  0.
          2    1    1    2  501    0  0.15135775688E+02 -0.23347510346E+02 -0.89317942922E+02  0.93551551953E+02  0.00000000000E+00 0. -1.
          1    1    1    2  502    0  0.18730444867E+02  0.41608350894E+02  0.28200094129E+03  0.28566871603E+03  0.00000000000E+00 0. -1.
         22    1    3    3    0    0 -0.12139984539E+02  0.53942565296E+02  0.30753914412E+01  0.55377230048E+02  0.00000000000E+00 0. -1.
         22    1    3    3    0    0 -0.21726236016E+02 -0.72203405843E+02  0.98598276490E+01  0.76043259714E+02  0.00000000000E+00 0. -1.
</event>
<event>
 7    1  0.6122298E-006  0.8038217E+02  0.7818608E-02  0.1447028E+00
          2   -1    0    0  502    0  0.00000000000E+00  0.00000000000E+00  0.15126971423E+04  0.15126971423E+04  0.00000000000E+00 0. -1.
          1   -1    0    0  501    0 -0.00000000000E+00 -0.00000000000E+00 -0.93888479710E+02  0.93888479710E+02  0.00000000000E+00 0. -1.
         25    2    1    2    0    0  0.74507676019E+02 -0.56441943003E+02  0.13109893476E+04  0.13202481349E+04  0.12499992639E+03 0.  0.
          2    1    1    2  501    0 -0.16842150092E+02  0.25686026219E+02 -0.80946558778E+02  0.86578145861E+02  0.00000000000E+00 0. -1.
          1    1    1    2  502    0 -0.57665525926E+02  0.30755916784E+02  0.18876587377E+03  0.19975934120E+03  0.00000000000E+00 0. -1.
         22    1    3    3    0    0  0.20923473892E+00  0.36540374241E+02  0.26448451402E+03  0.26699681812E+03  0.00000000000E+00 0. -1.
         22    1    3    3    0    0  0.74298441280E+02 -0.92982317244E+02  0.10465048336E+04  0.10532513168E+04  0.00000000000E+00 0. -1.
</event>
<event>
 7    1  0.6122298E-006  0.1443888E+03  0.7818608E-02  0.1330817E+00
          2   -1    0    0  502    0  0.00000000000E+00  0.00000000000E+00  0.10487118120E+04  0.10487118120E+04  0.00000000000E+00 0. -1.
          1   -1    0    0  501    0 -0.00000000000E+00 -0.00000000000E+00 -0.27210504426E+03  0.27210504426E+03  0.00000000000E+00 0. -1.
         25    2    1    2    0    0 -0.14940303145E+03  0.76113559220E+02  0.38664890291E+03  0.43958712634E+03  0.12499971126E+03 0.  0.
          2    1    1    2  501    0  0.10916961041E+03 -0.93020598064E+02 -0.22385865261E+03  0.26586374677E+03  0.00000000000E+00 0. -1.
          1    1    1    2  502    0  0.40233421038E+02  0.16907038845E+02  0.61381651744E+03  0.61536598314E+03  0.00000000000E+00 0. -1.
         22    1    3    3    0    0 -0.15465845724E+03  0.10001292304E+03  0.35032416864E+03  0.39578889109E+03  0.00000000000E+00 0. -1.
         22    1    3    3    0    0  0.52554257897E+01 -0.23899363824E+02  0.36324734266E+02  0.43798235249E+02  0.00000000000E+00 0. -1.
</event>
<event>
 7    1  0.6122298E-006  0.7197877E+02  0.7818608E-02  0.1416672E+00
          2   -1    0    0  502    0  0.00000000000E+00  0.00000000000E+00  0.70001428097E+03  0.70001428097E+03  0.00000000000E+00 0. -1.
          1   -1    0    0  501    0 -0.00000000000E+00 -0.00000000000E+00 -0.18673614855E+04  0.18673614855E+04  0.00000000000E+00 0. -1.
         25    2    1    2    0    0  0.11268839680E+03 -0.19908807477E+02  0.16309313281E+02  0.17025374304E+03  0.12500123173E+03 0.  0.
          2    1    1    2  501    0 -0.71201643396E+02  0.80390996381E+01 -0.17889038887E+04  0.17903383546E+04  0.00000000000E+00 0. -1.
          1    1    1    2  502    0 -0.41486753401E+02  0.11869707839E+02  0.60524737090E+03  0.60678366875E+03  0.00000000000E+00 0. -1.
         22    1    3    3    0    0  0.25764618946E+02  0.46652309325E+02 -0.16793824902E+02  0.55877420392E+02  0.00000000000E+00 0.  1.
         22    1    3    3    0    0  0.86923777851E+02 -0.66561116802E+02  0.33103138182E+02  0.11437632265E+03  0.00000000000E+00 0.  1.
</event>
<event>
 7    1  0.6122298E-006  0.3770697E+02  0.7818608E-02  0.1559613E+00
          2   -1    0    0  502    0  0.00000000000E+00  0.00000000000E+00  0.97357371419E+03  0.97357371419E+03  0.00000000000E+00 0. -1.
          1   -1    0    0  501    0 -0.00000000000E+00 -0.00000000000E+00 -0.16952813434E+02  0.16952813434E+02  0.00000000000E+00 0. -1.
         25    2    1    2    0    0 -0.36254404657E+02  0.36822487378E+02  0.29966359796E+03  0.32877538692E+03  0.12499882268E+03 0.  0.
          2    1    1    2  501    0  0.62033128964E+01 -0.33103116971E+02  0.14340042116E+03  0.14730233614E+03  0.00000000000E+00 0. -1.
          1    1    1    2  502    0  0.30051091760E+02 -0.37193704066E+01  0.51355688164E+03  0.51444880456E+03  0.00000000000E+00 0. -1.
         22    1    3    3    0    0 -0.44982656887E+02  0.25362845875E+02  0.32056835413E+02  0.60781198312E+02  0.00000000000E+00 0.  1.
         22    1    3    3    0    0  0.87282522308E+01  0.11459641503E+02  0.26760676255E+03  0.26799418861E+03  0.00000000000E+00 0.  1.
</event>
<event>
 7    1  0.6122298E-006  0.1596980E+03  0.7818608E-02  0.1283550E+00
          2   -1    0    0  502    0  0.00000000000E+00  0.00000000000E+00  0.37488498345E+02  0.37488498345E+02  0.00000000000E+00 0. -1.
          1   -1    0    0  501    0 -0.00000000000E+00 -0.00000000000E+00 -0.29229037208E+04  0.29229037208E+04  0.00000000000E+00 0. -1.
         25    2    1    2    0    0  0.50074029863E+02  0.13764186161E+03 -0.15600848873E+04  0.15719231507E+04  0.12499938165E+03 0.  0.
          2    1    1    2  501    0 -0.55291464552E+02  0.25082442043E+02 -0.11406772404E+04  0.11422919249E+04  0.00000000000E+00 0. -1.
          1    1    1    2  502    0  0.52174346891E+01 -0.16272430365E+03 -0.18465309475E+03  0.24617714358E+03  0.00000000000E+00 0. -1.
         22    1    3    3    0    0 -0.63906790878E+01  0.57879438667E+02 -0.11016427744E+04  0.11031807071E+04  0.00000000000E+00 0.  1.
         22    1    3    3    0    0  0.56464708951E+02  0.79762422939E+02 -0.45844211295E+03  0.46874244356E+03  0.00000000000E+00 0.  1.
</event>
<event>
 7    1  0.6122298E-006  0.9373656E+02  0.7818608E-02  0.1386119E+00
          2   -1    0    0  502    0  0.00000000000E+00  0.00000000000E+00  0.19437074064E+03  0.19437074064E+03  0.00000000000E+00 0. -1.
          1   -1    0    0  501    0 -0.00000000000E+00 -0.00000000000E+00 -0.16842335074E+04  0.16842335074E+04  0.00000000000E+00 0. -1.
         25    2    1    2    0    0 -0.16679383921E+01 -0.54939045413E+02 -0.24911230758E+03  0.28408205138E+03  0.12499835758E+03 0.  0.
          2    1    1    2  501    0 -0.15845300034E+02 -0.39095175365E+02 -0.14043655606E+04  0.14049989801E+04  0.00000000000E+00 0. -1.
          1    1    1    2  502    0  0.17513238426E+02  0.94034220778E+02  0.16361510144E+03  0.18952321656E+03  0.00000000000E+00 0. -1.
         22    1    3    3    0    0  0.16528266136E+02 -0.14884076258E+02  0.76933487753E+01  0.23535227276E+02  0.00000000000E+00 0.  1.
         22    1    3    3    0    0 -0.18196204529E+02 -0.40054969154E+02 -0.25680565635E+03  0.26054682410E+03  0.00000000000E+00 0.  1.
</event>
<event>
 7    1  0.6122298E-006  0.3236393E+02  0.7818608E-02  0.1609749E+00
          2   -1    0    0  502    0  0.00000000000E+00  0.00000000000E+00  0.72475951349E+03  0.72475951349E+03  0.00000000000E+00 0. -1.
          1   -1    0    0  501    0 -0.00000000000E+00 -0.00000000000E+00 -0.41475712536E+03  0.41475712536E+03  0.00000000000E+00 0. -1.
         25    2    1    2    0    0  0.37235560482E+02 -0.20056700870E+02 -0.50144960251E+02  0.14116747770E+03  0.12499992603E+03 0.  0.
          2    1    1    2  501    0 -0.24120840254E+02 -0.95260634059E+01 -0.31818764807E+03  0.31924276061E+03  0.00000000000E+00 0. -1.
          1    1    1    2  502    0 -0.13114720228E+02  0.29582764276E+02  0.67833499646E+03  0.67910640053E+03  0.00000000000E+00 0. -1.
         22    1    3    3    0    0  0.62977092331E+02  0.33595061210E+02 -0.18349694029E+02  0.73698395960E+02  0.00000000000E+00 0.  1.
         22    1    3    3    0    0 -0.25741531849E+02 -0.53651762080E+02 -0.31795266222E+02  0.67469081736E+02  0.00000000000E+00 0.  1.
</event>
<event>
 7    1  0.6122298E-006  0.5947963E+02  0.7818608E-02  0.1458452E+00
          2   -1    0    0  502    0  0.00000000000E+00  0.00000000000E+00  0.75405125916E+03  0.75405125916E+03  0.00000000000E+00 0. -1.
          1   -1    0    0  501    0 -0.00000000000E+00 -0.00000000000E+00 -0.83447171781E+02  0.83447171781E+02  0.00000000000E+00 0. -1.
         25    2    1    2    0    0 -0.13359300165E+02 -0.43096917754E+02  0.24981548112E+03  0.28296351933E+03  0.12499905378E+03 0.  0.
          2    1    1    2  501    0  0.34968374114E+02 -0.15305072595E+02 -0.59246177582E+02  0.70477953953E+02  0.00000000000E+00 0. -1.
          1    1    1    2  502    0 -0.21609073949E+02  0.58401990349E+02  0.48003478385E+03  0.48405695766E+03  0.00000000000E+00 0. -1.
         22    1    3    3    0    0  0.46145746605E+02 -0.44129721096E+02  0.76110852196E+02  0.99346484768E+02  0.00000000000E+00 0. -1.
         22    1    3    3    0    0 -0.59505046770E+02  0.10328033422E+01  0.17370462892E+03  0.18361703457E+03  0.00000000000E+00 0. -1.
</event>
<event>
 7    1  0.6122298E-006  0.8139613E+02  0.7818608E-02  0.1409807E+00
          2   -1    0    0  502    0  0.00000000000E+00  0.00000000000E+00  0.45744432034E+03  0.45744432034E+03  0.00000000000E+00 0. -1.
          1   -1    0    0  501    0 -0.00000000000E+00 -0.00000000000E+00 -0.28782667324E+03  0.28782667324E+03  0.00000000000E+00 0. -1.
         25    2    1    2    0    0  0.10899877203E+03 -0.42717060311E+02  0.30887343043E+02  0.17402320996E+03  0.12499828038E+03 0.  0.
          2    1    1    2  501    0 -0.68985082692E+02  0.38377299215E+02 -0.20785108835E+03  0.22233720709E+03  0.00000000000E+00 0. -1.
          1    1    1    2  502    0 -0.40013689336E+02  0.43397610966E+01  0.34658139240E+03  0.34891057654E+03  0.00000000000E+00 0. -1.
         22    1    3    3    0    0  0.52391412636E+02  0.40537236330E+02  0.31486720738E+02  0.73345355887E+02  0.00000000000E+00 0. -1.
         22    1    3    3    0    0  0.56607359392E+02 -0.83254296642E+02 -0.59937769590E+00  0.10067785407E+03  0.00000000000E+00 0. -1.
</event>
<event>
 7    1  0.6122298E-006  0.1016724E+03  0.7818608E-02  0.1336254E+00
          2   -1    0    0  502    0  0.00000000000E+00  0.00000000000E+00  0.12653216105E+03  0.12653216105E+03  0.00000000000E+00 0. -1.
          1   -1    0    0  501    0 -0.00000000000E+00 -0.00000000000E+00 -0.13514291219E+04  0.13514291219E+04  0.00000000000E+00 0. -1.
         25    2    1    2    0    0 -0.11255541008E+03  0.10245165550E+02 -0.14202408919E+03  0.22038510734E+03  0.12500027948E+03 0.  0.
          2    1    1    2  501    0  0.91462601289E+02  0.44960342009E+02 -0.11577273384E+04  0.11622045559E+04  0.00000000000E+00 0. -1.
          1    1    1    2  502    0  0.21092808794E+02 -0.55205507559E+02  0.74854466735E+02  0.95371619667E+02  0.00000000000E+00 0. -1.
         22    1    3    3    0    0 -0.34017392997E+02 -0.54174558558E+02 -0.75527184737E+02  0.98976873338E+02  0.00000000000E+00 0.  1.
         22    1    3    3    0    0 -0.78538017085E+02  0.64419724108E+02 -0.66496904450E+02  0.12140823400E+03  0.00000000000E+00 0.  1.
</event>
<event>
 7    1  0.6122298E-006  0.8509057E+02  0.7818608E-02  0.1369327E+00
          2   -1    0    0  502    0  0.00000000000E+00  0.00000000000E+00  0.19300102985E+03  0.19300102985E+03  0.00000000000E+00 0. -1.
          1   -1    0    0  501    0 -0.00000000000E+00 -0.00000000000E+00 -0.17468043680E+04  0.17468043680E+04  0.00000000000E+00 0. -1.
         25    2    1    2    0    0 -0.57257994398E+02  0.12399187557E+03 -0.47779388156E+02  0.19120507716E+03  0.12499619382E+03 0.  0.
          2    1    1    2  501    0  0.27657172840E+02 -0.79648303749E+02 -0.16203035126E+04  0.16224956839E+04  0.00000000000E+00 0. -1.
          1    1    1    2  502    0  0.29600821557E+02 -0.44343571818E+02  0.11427956257E+03  0.12610463678E+03  0.00000000000E+00 0. -1.
         22    1    3    3    0    0 -0.86288201501E+02  0.45344498197E+02 -0.63260247686E+01  0.97682116195E+02  0.00000000000E+00 0. -1.
         22    1    3    3    0    0  0.29030207104E+02  0.78647377370E+02 -0.41453363387E+02  0.93522960966E+02  0.00000000000E+00 0. -1.
</event>
<event>
 7    1  0.6122298E-006  0.1451703E+03  0.7818608E-02  0.1316720E+00
          2   -1    0    0  502    0  0.00000000000E+00  0.00000000000E+00  0.15934048059E+04  0.15934048059E+04  0.00000000000E+00 0. -1.
          1   -1    0    0  501    0 -0.00000000000E+00 -0.00000000000E+00 -0.51773253804E+03  0.51773253804E+03  0.00000000000E+00 0. -1.
         25    2    1    2    0    0  0.10591927998E+03  0.14017818905E+03 -0.44388376212E+02  0.22014673772E+03  0.12500175850E+03 0.  0.
          2    1    1    2  501    0 -0.10796662816E+03 -0.91024173893E+02 -0.37211211845E+03  0.39800706241E+03  0.00000000000E+00 0. -1.
          1    1    1    2  502    0  0.20473481855E+01 -0.49154015162E+02  0.14921727625E+04  0.14929835438E+04  0.00000000000E+00 0. -1.
         22    1    3    3    0    0  0.85608756320E+02  0.14768692216E+03 -0.71820037767E+02  0.18519828282E+03  0.00000000000E+00 0.  1.
         22    1    3    3    0    0  0.20310523659E+02 -0.75087331024E+01  0.27431661555E+02  0.34948454898E+02  0.00000000000E+00 0.  1.
</event>
<event>
 7    1  0.6122298E-006  0.8023063E+02  0.7818608E-02  0.1433610E+00
          2   -1    0    0  502    0  0.00000000000E+00  0.00000000000E+00  0.21976882796E+03  0.21976882796E+03  0.00000000000E+00 0. -1.
          1   -1    0    0  501    0 -0.00000000000E+00 -0.00000000000E+00 -0.20960047698E+04  0.20960047698E+04  0.00000000000E+00 0. -1.
         25    2    1    2    0    0 -0.92795305455E+02 -0.61854518123E+02 -0.14281908221E+03  0.22013359453E+03  0.12499823627E+03 0.  0.
          2    1    1    2  501    0  0.71176401924E+02  0.35590348186E+02 -0.19120961358E+04  0.19137513907E+04  0.00000000000E+00 0. -1.
          1    1    1    2  502    0  0.21618903531E+02  0.26264169938E+02  0.17867927618E+03  0.18188861247E+03  0.00000000000E+00 0. -1.
         22    1    3    3    0    0 -0.27122443987E+01  0.27946161345E+02  0.10519354569E+01  0.28097166615E+02  0.00000000000E+00 0. -1.
         22    1    3    3    0    0 -0.90083061056E+02 -0.89800679468E+02 -0.14387101767E+03  0.19203642792E+03  0.00000000000E+00 0. -1.
</event>
<event>
 7    1  0.6122298E-006  0.5851114E+02  0.7818608E-02  0.1454031E+00
          2   -1    0    0  502    0  0.00000000000E+00  0.00000000000E+00  0.16580494391E+04  0.16580494391E+04  0.00000000000E+00 0. -1.
          1   -1    0    0  501    0 -0.00000000000E+00 -0.00000000000E+00 -0.33379501170E+03  0.33379501170E+03  0.00000000000E+00 0. -1.
         25    2    1    2    0    0 -0.28900665643E+02 -0.17978240546E+02 -0.62247739447E+02  0.14372604408E+03  0.12499571622E+03 0.  0.
          2    1    1    2  501    0  0.12033349887E+02 -0.38227043625E+02 -0.22853156789E+03  0.23201893434E+03  0.00000000000E+00 0. -1.
          1    1    1    2  502    0  0.16867315757E+02  0.56205284171E+02  0.16150337347E+04  0.16160994724E+04  0.00000000000E+00 0. -1.
         22    1    3    3    0    0  0.26834835269E+02 -0.49339093633E+02 -0.56255865383E+02  0.79493250874E+02  0.00000000000E+00 0.  1.
         22    1    3    3    0    0 -0.55735500913E+02  0.31360853086E+02 -0.59918740635E+01  0.64232793206E+02  0.00000000000E+00 0.  1.
</event>
<event>
 7    1  0.6122298E-006  0.1430860E+03  0.7818608E-02  0.1324660E+00
          2   -1    0    0  502    0  0.00000000000E+00  0.00000000000E+00  0.21429454105E+04  0.21429454105E+04  0.00000000000E+00 0. -1.
          1   -1    0    0  501    0 -0.00000000000E+00 -0.00000000000E+00 -0.63832712674E+02  0.63832712674E+02  0.00000000000E+00 0. -1.
         25    2    1    2    0    0 -0.46168805438E+00 -0.12050214849E+03  0.89987253881E+03  0.91646959446E+03  0.12499980207E+03 0.  0.
          2    1    1    2  501    0 -0.31516512795E+02 -0.34188192896E+02 -0.39721359291E+02  0.61154799453E+02  0.00000000000E+00 0. -1.
          1    1    1    2  502    0  0.31978200849E+02  0.15469034138E+03  0.12189615183E+04  0.12291537293E+04  0.00000000000E+00 0. -1.
         22    1    3    3    0    0  0.16466829530E+01  0.13620015925E+02  0.11143794969E+02  0.17674856856E+02  0.00000000000E+00 0.  1.
         22    1    3    3    0    0 -0.21083710074E+01 -0.13412216441E+03  0.88872874384E+03  0.89879473761E+03  0.00000000000E+00 0.  1.
</event>
<event>
 7    1  0.6122298E-006  0.9531595E+02  0.7818608E-02  0.1361407E+00
          2   -1    0    0  502    0  0.00000000000E+00  0.00000000000E+00  0.17573419949E+03  0.17573419949E+03  0.00000000000E+00 0. -1.
          1   -1    0    0  501    0 -0.00000000000E+00 -0.00000000000E+00 -0.97357571685E+03  0.97357571685E+03  0.00000000000E+00 0. -1.
         25    2    1    2    0    0  0.64754981566E+02 -0.19778889969E+02 -0.11745178041E+03  0.18440435263E+03  0.12500252966E+03 0.  0.
          2    1    1    2  501    0 -0.68762615128E+02  0.70464971825E+02 -0.81504541062E+03  0.82097054202E+03  0.00000000000E+00 0. -1.
          1    1    1    2  502    0  0.40076335617E+01 -0.50686081857E+02  0.13465567366E+03  0.14393502169E+03  0.00000000000E+00 0. -1.
         22    1    3    3    0    0  0.73669942176E+02  0.51832418450E+01 -0.13410863806E+03  0.15309883468E+03  0.00000000000E+00 0. -1.
         22    1    3    3    0    0 -0.89149606094E+01 -0.24962131814E+02  0.16656857657E+02  0.31305517954E+02  0.00000000000E+00 0. -1.
</event>
<event>
 7    1  0.6122298E-006  0.2817166E+03  0.7818608E-02  0.1237905E+00
          2   -1    0    0  502    0  0.00000000000E+00  0.00000000000E+00  0.34784354153E+03  0.34784354153E+03  0.00000000000E+00 0. -1.
          1   -1    0    0  501    0 -0.00000000000E+00 -0.00000000000E+00 -0.10386949729E+04  0.10386949729E+04  0.00000000000E+00 0. -1.
         25    2    1    2    0    0 -0.16861819295E+03  0.20606844328E+03 -0.90936888028E+01  0.29428519832E+03  0.12499913787E+03 0.  0.
          2    1    1    2  501    0  0.22358771543E+02  0.49022008296E+02 -0.78028230186E+03  0.78214035988E+03  0.00000000000E+00 0. -1.
          1    1    1    2  502    0  0.14625942141E+03 -0.25509045157E+03  0.98524559290E+02  0.31011295623E+03  0.00000000000E+00 0. -1.
         22    1    3    3    0    0 -0.18687900402E+03  0.18027421447E+03  0.49403448967E+01  0.25970552854E+03  0.00000000000E+00 0. -1.
         22    1    3    3    0    0  0.18260811066E+02  0.25794228806E+02 -0.14034033699E+02  0.34579669784E+02  0.00000000000E+00 0. -1.
</event>
<event>
 7    1  0.6122298E-006  0.9675352E+02  0.7818608E-02  0.1355234E+00
          2   -1    0    0  502    0  0.00000000000E+00  0.00000000000E+00  0.10773892606E+04  0.10773892606E+04  0.00000000000E+00 0. -1.
          1   -1    0    0  501    0 -0.00000000000E+00 -0.00000000000E+00 -0.52928366865E+03  0.52928366865E+03  0.00000000000E+00 0. -1.
         25    2    1    2    0    0  0.18277408370E+02  0.13800036626E+03  0.15693266189E+03  0.24419477244E+03  0.12500024710E+03 0.  0.
          2    1    1    2  501    0  0.12376389594E+02 -0.95056210686E+02 -0.48011662418E+03  0.48959251529E+03  0.00000000000E+00 0. -1.
          1    1    1    2  502    0 -0.30653797964E+02 -0.42944155578E+02  0.87128955423E+03  0.87288564150E+03  0.00000000000E+00 0. -1.
         22    1    3    3    0    0  0.67197060089E+02  0.87105806079E+02  0.12557925916E+03  0.16695213886E+03  0.00000000000E+00 0. -1.
         22    1    3    3    0    0 -0.48919651719E+02  0.50894560185E+02  0.31353402727E+02  0.77242633586E+02  0.00000000000E+00 0. -1.
</event>
<event>
 7    1  0.6122298E-006  0.1876975E+03  0.7818608E-02  0.1291820E+00
          2   -1    0    0  502    0  0.00000000000E+00  0.00000000000E+00  0.10004795176E+04  0.10004795176E+04  0.00000000000E+00 0. -1.
          1   -1    0    0  501    0 -0.00000000000E+00 -0.00000000000E+00 -0.37881353167E+03  0.37881353167E+03  0.00000000000E+00 0. -1.
         25    2    1    2    0    0 -0.13993488561E+03 -0.34612500560E+02 -0.22093645468E+02  0.19207404437E+03  0.12499804775E+03 0.  0.
          2    1    1    2  501    0 -0.47252073985E+02 -0.71793871323E+01 -0.25947785844E+03  0.26384287202E+03  0.00000000000E+00 0. -1.
          1    1    1    2  502    0  0.18718695960E+03  0.41791887692E+02  0.90323748982E+03  0.92337613286E+03  0.00000000000E+00 0. -1.
         22    1    3    3    0    0  0.20942619050E+02  0.20555508856E+01  0.11060243655E+02  0.23772832642E+02  0.00000000000E+00 0. -1.
         22    1    3    3    0    0 -0.16087750466E+03 -0.36668051445E+02 -0.33153889123E+02  0.16830121172E+03  0.00000000000E+00 0. -1.
</event>
<event>
 7    1  0.6122298E-006  0.5554740E+02  0.7818608E-02  0.1421373E+00
          2   -1    0    0  502    0  0.00000000000E+00  0.00000000000E+00  0.24783618083E+04  0.24783618083E+04  0.00000000000E+00 0. -1.
          1   -1    0    0  501    0 -0.00000000000E+00 -0.00000000000E+00 -0.15212437128E+03  0.15212437128E+03  0.00000000000E+00 0. -1.
         25    2    1    2    0    0  0.18307361877E+01 -0.55501518298E+02  0.65046744084E+03  0.66469317327E+03  0.12500141146E+03 0.  0.
          2    1    1    2  501    0 -0.48219009868E+02  0.28000584868E+02 -0.13923607399E+03  0.14998596590E+03  0.00000000000E+00 0. -1.
          1    1    1    2  502    0  0.46388273680E+02  0.27500933430E+02  0.18150060702E+04  0.18158070404E+04  0.00000000000E+00 0. -1.
         22    1    3    3    0    0  0.14106641213E+02  0.18325366578E+02  0.22445332530E+02  0.32227462496E+02  0.00000000000E+00 0. -1.
         22    1    3    3    0    0 -0.12275905025E+02 -0.73826884876E+02  0.62802210831E+03  0.63246571077E+03  0.00000000000E+00 0. -1.
</event>
<event>
 7    1  0.6122298E-006  0.1038867E+03  0.7818608E-02  0.1417404E+00
          2   -1    0    0  502    0  0.00000000000E+00  0.00000000000E+00  0.15592374222E+04  0.15592374222E+04  0.00000000000E+00 0. -1.
          1   -1    0    0  501    0 -0.00000000000E+00 -0.00000000000E+00 -0.17082518318E+02  0.17082518318E+02  0.00000000000E+00 0. -1.
         25    2    1    2    0    0 -0.37691843597E+02  0.75887417222E+02  0.54002404641E+03  0.56073664386E+03  0.12498015000E+03 0.  0.
          2    1    1    2  501    0  0.51587230128E+01  0.29278091361E+02  0.59170585584E+02  0.66219160786E+02  0.00000000000E+00 0. -1.
          1    1    1    2  502    0  0.32533120584E+02 -0.10516550858E+03  0.94296027184E+03  0.94936413583E+03  0.00000000000E+00 0. -1.
         22    1    3    3    0    0 -0.79988824155E+02  0.68138495256E+02  0.42887390518E+03  0.44155848205E+03  0.00000000000E+00 0.  1.
         22    1    3    3    0    0  0.42296980558E+02  0.77489219658E+01  0.11115014123E+03  0.11917816181E+03  0.00000000000E+00 0.  1.
</event>
<event>
 7    1  0.6122298E-006  0.7802194E+02  0.7818608E-02  0.1342622E+00
          2   -1    0    0  502    0  0.00000000000E+00  0.00000000000E+00  0.11134439301E+04  0.11134439301E+04  0.00000000000E+00 0. -1.
          1   -1    0    0  501    0 -0.00000000000E+00 -0.00000000000E+00 -0.57538288424E+03  0.57538288424E+03  0.00000000000E+00 0. -1.
         25    2    1    2    0    0 -0.12642682904E+03 -0.18762036522E+02  0.11377414774E+03  0.21190935268E+03  0.12500103978E+03 0.  0.
          2    1    1    2  501    0  0.55098421595E+02  0.47697259760E+02 -0.52222272936E+03  0.52728307740E+03  0.00000000000E+00 0. -1.
          1    1    1    2  502    0  0.71328407447E+02 -0.28935223238E+02  0.94650962751E+03  0.94963438428E+03  0.00000000000E+00 0. -1.
         22    1    3    3    0    0 -0.17291259274E+02 -0.54299022266E+02  0.67031501473E+02  0.87980643644E+02  0.00000000000E+00 0.  1.
         22    1    3    3    0    0 -0.10913556977E+03  0.35536985744E+02  0.46742646267E+02  0.12392870904E+03  0.00000000000E+00 0.  1.
</event>
<event>
 7    1  0.6122298E-006  0.1888144E+03  0.7818608E-02  0.1244808E+00
          2   -1    0    0  502    0  0.00000000000E+00  0.00000000000E+00  0.36176375512E+03  0.36176375512E+03  0.00000000000E+00 0. -1.
          1   -1    0    0  501    0 -0.00000000000E+00 -0.00000000000E+00 -0.19034434805E+04  0.19034434805E+04  0.00000000000E+00 0. -1.
         25    2    1    2    0    0  0.23443934212E+02 -0.15283430600E+03 -0.18196792950E+03  0.26952801569E+03  0.12500032293E+03 0.  0.
          2    1    1    2  501    0 -0.96708582969E+02  0.16868825420E+03 -0.16675487781E+04  0.16788469866E+04  0.00000000000E+00 0. -1.
          1    1    1    2  502    0  0.73264648757E+02 -0.15853948196E+02  0.30783698223E+03  0.31683223330E+03  0.00000000000E+00 0. -1.
         22    1    3    3    0    0  0.33120461978E+02 -0.23614815014E+02 -0.11840357518E+03  0.12519597080E+03  0.00000000000E+00 0. -1.
         22    1    3    3    0    0 -0.96765277657E+01 -0.12921949099E+03 -0.63564354319E+02  0.14433204489E+03  0.00000000000E+00 0. -1.
</event>
<event>
 7    1  0.6122298E-006  0.7253321E+02  0.7818608E-02  0.1416844E+00
          2   -1    0    0  502    0  0.00000000000E+00  0.00000000000E+00  0.53898097236E+03  0.53898097236E+03  0.00000000000E+00 0. -1.
          1   -1    0    0  501    0 -0.00000000000E+00 -0.00000000000E+00 -0.23320363268E+03  0.23320363268E+03  0.00000000000E+00 0. -1.
         25    2    1    2    0    0 -0.89231889453E+02 -0.52844065558E+02  0.37010929149E+03  0.40418160738E+03  0.12500823466E+03 0.  0.
          2    1    1    2  501    0  0.35088406815E+02  0.24445900378E+02 -0.20774532987E+03  0.21210120325E+03  0.00000000000E+00 0. -1.
          1    1    1    2  502    0  0.54143482639E+02  0.28398165180E+02  0.14341337805E+03  0.15590179442E+03  0.00000000000E+00 0. -1.
         22    1    3    3    0    0 -0.10883901006E+03 -0.49742934848E+02  0.20110915302E+03  0.23401961693E+03  0.00000000000E+00 0. -1.
         22    1    3    3    0    0  0.19607120606E+02 -0.31011307100E+01  0.16900013847E+03  0.17016199045E+03  0.00000000000E+00 0. -1.
</event>
<event>
 7    1  0.6122298E-006  0.2334262E+02  0.7818608E-02  0.1687238E+00
          2   -1    0    0  502    0  0.00000000000E+00  0.00000000000E+00  0.15068186052E+03  0.15068186052E+03  0.00000000000E+00 0. -1.
          1   -1    0    0  501    0 -0.00000000000E+00 -0.00000000000E+00 -0.36918310359E+03  0.36918310359E+03  0.00000000000E+00 0. -1.
         25    2    1    2    0    0 -0.24004167593E+02  0.19897734783E+02 -0.15722196234E+03  0.20326441312E+03  0.12500222513E+03 0.  0.
          2    1    1    2  501    0  0.23175796024E+02  0.32766674412E+01 -0.18715181270E+03  0.18860979579E+03  0.00000000000E+00 0. -1.
          1    1    1    2  502    0  0.82837156927E+00 -0.23174402224E+02  0.12587253196E+03  0.12799075521E+03  0.00000000000E+00 0. -1.
         22    1    3    3    0    0 -0.63443101156E+02  0.36994714282E+02 -0.53125238088E+02  0.90641750265E+02  0.00000000000E+00 0.  1.
         22    1    3    3    0    0  0.39438933563E+02 -0.17096979500E+02 -0.10409672425E+03  0.11262266285E+03  0.00000000000E+00 0.  1.
</event>
<event>
 7    1  0.6122298E-006  0.1057215E+03  0.7818608E-02  0.1280008E+00
          2   -1    0    0  502    0  0.00000000000E+00  0.00000000000E+00  0.20358146199E+04  0.20358146199E+04  0.00000000000E+00 0. -1.
          1   -1    0    0  501    0 -0.00000000000E+00 -0.00000000000E+00 -0.11664606963E+03  0.11664606963E+03  0.00000000000E+00 0. -1.
         25    2    1    2    0    0 -0.35666281074E+02 -0.40799243675E+02  0.88559009085E+02  0.16248906427E+03  0.12499334393E+03 0.  0.
          2    1    1    2  501    0  0.11069067886E+02  0.13240158333E+03 -0.22226306030E+02  0.13470973317E+03  0.00000000000E+00 0. -1.
          1    1    1    2  502    0  0.24597213188E+02 -0.91602339652E+02  0.18528358472E+04  0.18552618921E+04  0.00000000000E+00 0. -1.
         22    1    3    3    0    0 -0.27761574251E+02 -0.25898576878E+02 -0.26436098205E+02  0.46263469147E+02  0.00000000000E+00 0. -1.
         22    1    3    3    0    0 -0.79047068231E+01 -0.14900666797E+02  0.11499510729E+03  0.11622559512E+03  0.00000000000E+00 0. -1.
</event>
<event>
 7    1  0.6122298E-006  0.3761333E+02  0.7818608E-02  0.1614225E+00
          2   -1    0    0  502    0  0.00000000000E+00  0.00000000000E+00  0.58975452013E+03  0.58975452013E+03  0.00000000000E+00 0. -1.
          1   -1    0    0  501    0 -0.00000000000E+00 -0.00000000000E+00 -0.99103697547E+02  0.99103697547E+02  0.00000000000E+00 0. -1.
         25    2    1    2    0    0  0.25208503650E+02 -0.22496509579E+02  0.41115123901E+03  0.43106102885E+03  0.12500683041E+03 0.  0.
          2    1    1    2  501    0 -0.87444661594E+01  0.36679283364E+02 -0.84412125084E+02  0.92451297328E+02  0.00000000000E+00 0. -1.
          1    1    1    2  502    0 -0.16464037490E+02 -0.14182773785E+02  0.16391170865E+03  0.16534589150E+03  0.00000000000E+00 0. -1.
         22    1    3    3    0    0 -0.11398075344E+02 -0.68898654664E+02  0.20269388226E+03  0.21438691807E+03  0.00000000000E+00 0. -1.
         22    1    3    3    0    0  0.36606578993E+02  0.46402145085E+02  0.20845735676E+03  0.21667411078E+03  0.00000000000E+00 0. -1.
</event>
<event>
 7    1  0.6122298E-006  0.7019691E+02  0.7818608E-02  0.1504917E+00
          2   -1    0    0  502    0  0.00000000000E+00  0.00000000000E+00  0.17183601573E+03  0.17183601573E+03  0.00000000000E+00 0. -1.
          1   -1    0    0  501    0 -0.00000000000E+00 -0.00000000000E+00 -0.18412140090E+03  0.18412140090E+03  0.00000000000E+00 0. -1.
         25    2    1    2    0    0 -0.30005642805E+02  0.73627219245E+02  0.18064801753E+02  0.14923975939E+03  0.12499945082E+03 0.  0.
          2    1    1    2  501    0 -0.12591966370E+02 -0.19616523206E+02 -0.10362496449E+03  0.10621440046E+03  0.00000000000E+00 0. -1.
          1    1    1    2  502    0  0.42597609175E+02 -0.54010696038E+02  0.73274777574E+02  0.10050325678E+03  0.00000000000E+00 0. -1.
         22    1    3    3    0    0  0.37552347114E+02  0.33548909216E+02  0.43634877845E+02  0.66631153734E+02  0.00000000000E+00 0. -1.
         22    1    3    3    0    0 -0.67557989920E+02  0.40078310029E+02 -0.25570076092E+02  0.82608605654E+02  0.00000000000E+00 0. -1.
</event>
<event>
 7    1  0.6122298E-006  0.6513979E+02  0.7818608E-02  0.1425221E+00
          2   -1    0    0  502    0  0.00000000000E+00  0.00000000000E+00  0.24085006808E+04  0.24085006808E+04  0.00000000000E+00 0. -1.
          1   -1    0    0  501    0 -0.00000000000E+00 -0.00000000000E+00 -0.62614081479E+02  0.62614081479E+02  0.00000000000E+00 0. -1.
         25    2    1    2    0    0 -0.22382544890E+02  0.82641280556E+02  0.11455197329E+04  0.11554960346E+04  0.12500027126E+03 0.  0.
          2    1    1    2  501    0 -0.22957279643E+02 -0.38298016953E+02 -0.48048853557E+02  0.65593194154E+02  0.00000000000E+00 0. -1.
          1    1    1    2  502    0  0.45339824533E+02 -0.44343263604E+02  0.12484157199E+04  0.12500255335E+04  0.00000000000E+00 0. -1.
         22    1    3    3    0    0 -0.14686692094E+02  0.10898070056E+03  0.65154383107E+03  0.66075854578E+03  0.00000000000E+00 0. -1.
         22    1    3    3    0    0 -0.76958527958E+01 -0.26339420005E+02  0.49397590185E+03  0.49473748878E+03  0.00000000000E+00 0. -1.
</event>
<event>
 7    1  0.6122298E-006  0.2112452E+03  0.7818608E-02  0.1244862E+00
          2   -1    0    0  502    0  0.00000000000E+00  0.00000000000E+00  0.10064309181E+04  0.10064309181E+04  0.00000000000E+00 0. -1.
          1   -1    0    0  501    0 -0.00000000000E+00 -0.00000000000E+00 -0.51837379299E+03  0.51837379299E+03  0.00000000000E+00 0. -1.
         25    2    1    2    0    0  0.18661468613E+03 -0.19589210292E+03  0.45355815335E+03  0.54271439885E+03  0.12500065269E+03 0.  0.
          2    1    1    2  501    0 -0.12695811952E+03  0.16547363096E+03 -0.44841997973E+03  0.49455066967E+03  0.00000000000E+00 0. -1.
          1    1    1    2  502    0 -0.59656566613E+02  0.30418471959E+02  0.48291895145E+03  0.48753964253E+03  0.00000000000E+00 0. -1.
         22    1    3    3    0    0  0.12307982934E+03 -0.13448352898E+03  0.39949822346E+03  0.43912787945E+03  0.00000000000E+00 0.  1.
         22    1    3    3    0    0  0.63534856798E+02 -0.61408573939E+02  0.54059929892E+02  0.10358651940E+03  0.00000000000E+00 0.  1.
</event>
<event>
 7    1  0.6122298E-006  0.1679032E+03  0.7818608E-02  0.1180085E+00
          2   -1    0    0  502    0  0.00000000000E+00  0.00000000000E+00  0.88323941303E+03  0.88323941303E+03  0.00000000000E+00 0. -1.
          1   -1    0    0  501    0 -0.00000000000E+00 -0.00000000000E+00 -0.28788990704E+03  0.28788990704E+03  0.00000000000E+00 0. -1.
         25    2    1    2    0    0 -0.94443233013E+02 -0.25913908469E+02 -0.49644137909E+02  0.16637455977E+03  0.12499959519E+03 0.  0.
          2    1    1    2  501    0 -0.17404831214E+02  0.16699869667E+03 -0.12796316971E+03  0.21110676361E+03  0.00000000000E+00 0. -1.
          1    1    1    2  502    0  0.11184806423E+03 -0.14108478820E+03  0.77295681361E+03  0.79364799669E+03  0.00000000000E+00 0. -1.
         22    1    3    3    0    0 -0.21579454089E+02  0.49340361346E+02 -0.20764015210E+02  0.57717314770E+02  0.00000000000E+00 0. -1.
         22    1    3    3    0    0 -0.72863778924E+02 -0.75254269816E+02 -0.28880122700E+02  0.10865724500E+03  0.00000000000E+00 0. -1.
</event>
<event>
 7    1  0.6122298E-006  0.8275978E+02  0.7818608E-02  0.1416775E+00
          2   -1    0    0  502    0  0.00000000000E+00  0.00000000000E+00  0.94785616280E+03  0.94785616280E+03  0.00000000000E+00 0. -1.
          1   -1    0    0  501    0 -0.00000000000E+00 -0.00000000000E+00 -0.70833559607E+03  0.70833559607E+03  0.00000000000E+00 0. -1.
         25    2    1    2    0    0  0.51409700505E+02  0.10412443261E+03 -0.30844969182E+02  0.17337856917E+03  0.12499544532E+03 0.  0.
          2    1    1    2  501    0 -0.27465372493E+02 -0.25532413827E+02 -0.60371569243E+03  0.60487923433E+03  0.00000000000E+00 0. -1.
          1    1    1    2  502    0 -0.23944328011E+02 -0.78592018781E+02  0.87408122834E+03  0.87793395537E+03  0.00000000000E+00 0. -1.
         22    1    3    3    0    0  0.12189447149E+02  0.90509236369E+02  0.33098941329E+02  0.97139304130E+02  0.00000000000E+00 0.  1.
         22    1    3    3    0    0  0.39220253356E+02  0.13615196239E+02 -0.63943910511E+02  0.76239265037E+02  0.00000000000E+00 0.  1.
</event>
<event>
 7    1  0.6122298E-006  0.7850515E+02  0.7818608E-02  0.1476468E+00
          2   -1    0    0  502    0  0.00000000000E+00  0.00000000000E+00  0.14245515192E+04  0.14245515192E+04  0.00000000000E+00 0. -1.
          1   -1    0    0  501    0 -0.00000000000E+00 -0.00000000000E+00 -0.16805715170E+03  0.16805715170E+03  0.00000000000E+00 0. -1.
         25    2    1    2    0    0 -0.61700002893E+02 -0.47001597005E+01  0.73234756156E+02  0.15753732536E+03  0.12500279002E+03 0.  0.
          2    1    1    2  501    0  0.76447489661E+02  0.25389509503E+02 -0.11288429503E+03  0.13867844076E+03  0.00000000000E+00 0. -1.
          1    1    1    2  502    0 -0.14747486767E+02 -0.20689349803E+02  0.12961439063E+04  0.12963929047E+04  0.00000000000E+00 0. -1.
         22    1    3    3    0    0 -0.68882613888E+02  0.38620598021E+01 -0.13319289967E+02  0.70264738576E+02  0.00000000000E+00 0.  1.
         22    1    3    3    0    0  0.71826109945E+01 -0.85622195027E+01  0.86554046123E+02  0.87272586783E+02  0.00000000000E+00 0.  1.
</event>
<event>
 7    1  0.6122298E-006  0.1152125E+03  0.7818608E-02  0.1356350E+00
          2   -1    0    0  502    0  0.00000000000E+00  0.00000000000E+00  0.27541202828E+04  0.27541202828E+04  0.00000000000E+00 0. -1.
          1   -1    0    0  501    0 -0.00000000000E+00 -0.00000000000E+00 -0.19959240981E+04  0.19959240981E+04  0.00000000000E+00 0. -1.
         25    2    1    2    0    0  0.74484173244E+02  0.71680784937E+02  0.18904087646E+04  0.18973552683E+04  0.12500275925E+03 0.  0.
          2    1    1    2  501    0 -0.46448877871E+02 -0.10545332720E+03 -0.19902233718E+04  0.19935563630E+04  0.00000000000E+00 0. -1.
          1    1    1    2  502    0 -0.28035295373E+02  0.33772542261E+02  0.85801079192E+03  0.85913274961E+03  0.00000000000E+00 0. -1.
         22    1    3    3    0    0  0.46339713101E+02 -0.30891917475E+02  0.61117496929E+03  0.61370719619E+03  0.00000000000E+00 0. -1.
         22    1    3    3    0    0  0.28144460143E+02  0.10257270241E+03  0.12792337954E+04  0.12836480721E+04  0.00000000000E+00 0. -1.
</event>
<event>
 7    1  0.6122298E-006  0.7209179E+02  0.7818608E-02  0.1438412E+00
          2   -1    0    0  502    0  0.00000000000E+00  0.00000000000E+00  0.10973675808E+04  0.10973675808E+04  0.00000000000E+00 0. -1.
          1   -1    0    0  501    0 -0.00000000000E+00 -0.00000000000E+00 -0.20727726711E+03  0.20727726711E+03  0.00000000000E+00 0. -1.
         25    2    1    2    0    0 -0.56117720776E+01 -0.10628693652E+03  0.18998045802E+03  0.25109353306E+03  0.12500793196E+03 0.  0.
          2    1    1    2  501    0 -0.34024020963E+01  0.36357139280E+02 -0.17339858457E+03  0.17720182575E+03  0.00000000000E+00 0. -1.
          1    1    1    2  502    0  0.90141741740E+01  0.69929797238E+02  0.87350844024E+03  0.87634948910E+03  0.00000000000E+00 0. -1.
         22    1    3    3    0    0  0.54814971914E+02 -0.58929831230E+02  0.13311617112E+03  0.15555488153E+03  0.00000000000E+00 0.  1.
         22    1    3    3    0    0 -0.60426743992E+02 -0.47357105288E+02  0.56864286896E+02  0.95538651523E+02  0.00000000000E+00 0.  1.
</event>
<event>
 7    1  0.6122298E-006  0.9515810E+02  0.7818608E-02  0.1449883E+00
          2   -1    0    0  502    0  0.00000000000E+00  0.00000000000E+00  0.20397802237E+04  0.20397802237E+04  0.00000000000E+00 0. -1.
          1   -1    0    0  501    0 -0.00000000000E+00 -0.00000000000E+00 -0.23628676587E+03  0.23628676587E+03  0.00000000000E+00 0. -1.
         25    2    1    2    0    0 -0.92205350668E+02 -0.40003106833E+01 -0.15428030207E+03  0.21896535728E+03  0.12500234759E+03 0.  0.
          2    1    1    2  501    0 -0.55408012456E+00  0.25398741811E+02 -0.45208960722E+02  0.51858010181E+02  0.00000000000E+00 0. -1.
          1    1    1    2  502    0  0.92759430793E+02 -0.21398431128E+02  0.20029827206E+04  0.20052436221E+04  0.00000000000E+00 0. -1.
         22    1    3    3    0    0 -0.37486520080E+02 -0.58049611750E+02 -0.11088908851E+03  0.13065751628E+03  0.00000000000E+00 0. -1.
         22    1    3    3    0    0 -0.54718830588E+02  0.54049301067E+02 -0.43391213569E+02  0.88307840998E+02  0.00000000000E+00 0. -1.
</event>
<event>
 7    1  0.6122298E-006  0.2023888E+03  0.7818608E-02  0.1226442E+00
          2   -1    0    0  502    0  0.00000000000E+00  0.00000000000E+00  0.21266667373E+04  0.21266667373E+04  0.00000000000E+00 0. -1.
          1   -1    0    0  501    0 -0.00000000000E+00 -0.00000000000E+00 -0.69061830185E+03  0.69061830185E+03  0.00000000000E+00 0. -1.
         25    2    1    2    0    0  0.55727225762E+01 -0.23441805498E+03 -0.86894907006E+02  0.27956871796E+03  0.12500025385E+03 0.  0.
          2    1    1    2  501    0 -0.72130933242E+02  0.43796389109E+02 -0.49881422399E+03  0.50590179411E+03  0.00000000000E+00 0. -1.
          1    1    1    2  502    0  0.66558210666E+02  0.19062166587E+03  0.20217575664E+04  0.20318145270E+04  0.00000000000E+00 0. -1.
         22    1    3    3    0    0 -0.33265212934E+02 -0.33839538203E+02 -0.55247006716E+02  0.72828019940E+02  0.00000000000E+00 0. -1.
         22    1    3    3    0    0  0.38837935510E+02 -0.20057851677E+03 -0.31647900290E+02  0.20674069802E+03  0.00000000000E+00 0. -1.
</event>
<event>
 7    1  0.6122298E-006  0.6960580E+02  0.7818608E-02  0.1399820E+00
          2   -1    0    0  502    0  0.00000000000E+00  0.00000000000E+00  0.13873228522E+03  0.13873228522E+03  0.00000000000E+00 0. -1.
          1   -1    0    0  501    0 -0.00000000000E+00 -0.00000000000E+00 -0.58467357539E+03  0.58467357539E+03  0.00000000000E+00 0. -1.
         25    2    1    2    0    0  0.69551883170E+02 -0.51624556167E+02 -0.10491681930E+02  0.15243893631E+03  0.12499997865E+03 0.  0.
          2    1    1    2  501    0 -0.69564321308E+02  0.71385119497E+00 -0.49083332296E+03  0.49573889832E+03  0.00000000000E+00 0. -1.
          1    1    1    2  502    0  0.12438138208E-01  0.50910704972E+02  0.55383714724E+02  0.75228025975E+02  0.00000000000E+00 0. -1.
         22    1    3    3    0    0  0.27594106436E+02  0.41472550140E+02 -0.28166352513E+00  0.49814520569E+02  0.00000000000E+00 0. -1.
         22    1    3    3    0    0  0.41957776734E+02 -0.93097106308E+02 -0.10210018405E+02  0.10262441575E+03  0.00000000000E+00 0. -1.
</event>
<event>
 7    1  0.6122298E-006  0.1602855E+03  0.7818608E-02  0.1281597E+00
          2   -1    0    0  502    0  0.00000000000E+00  0.00000000000E+00  0.36685546420E+03  0.36685546420E+03  0.00000000000E+00 0. -1.
          1   -1    0    0  501    0 -0.00000000000E+00 -0.00000000000E+00 -0.83416153572E+03  0.83416153572E+03  0.00000000000E+00 0. -1.
         25    2    1    2    0    0  0.10749221234E+03 -0.18743150023E+02  0.22188992581E+02  0.16740218950E+03  0.12500104108E+03 0.  0.
          2    1    1    2  501    0 -0.15467299557E+03  0.58382488915E+02 -0.74893070828E+03  0.76696118310E+03  0.00000000000E+00 0. -1.
          1    1    1    2  502    0  0.47180783226E+02 -0.39639338893E+02  0.25943564418E+03  0.26665362732E+03  0.00000000000E+00 0. -1.
         22    1    3    3    0    0  0.85895306191E+02 -0.27788556808E+02 -0.41636509650E+02  0.99417334760E+02  0.00000000000E+00 0. -1.
         22    1    3    3    0    0  0.21596906149E+02  0.90454067852E+01  0.63825502231E+02  0.67984854741E+02  0.00000000000E+00 0. -1.
</event>
<event>
 7    1  0.6122298E-006  0.1327862E+03  0.7818608E-02  0.1320694E+00
          2   -1    0    0  502    0  0.00000000000E+00  0.00000000000E+00  0.25478876495E+04  0.25478876495E+04  0.00000000000E+00 0. -1.
          1   -1    0    0  501    0 -0.00000000000E+00 -0.00000000000E+00 -0.16070234406E+03  0.16070234406E+03  0.00000000000E+00 0. -1.
         25    2    1    2    0    0  0.16439798335E+03 -0.16980360185E+02  0.46203720084E+03  0.50637764114E+03  0.12499964369E+03 0.  0.
          2    1    1    2  501    0 -0.35800970543E+02  0.37581956023E+02 -0.13153715043E+03  0.14140769022E+03  0.00000000000E+00 0. -1.
          1    1    1    2  502    0 -0.12859701281E+03 -0.20601595838E+02  0.20566852550E+04  0.20608046622E+04  0.00000000000E+00 0. -1.
         22    1    3    3    0    0  0.13612908758E+03 -0.36215624606E+02  0.44763490566E+03  0.46927572781E+03  0.00000000000E+00 0.  1.
         22    1    3    3    0    0  0.28268895776E+02  0.19235264421E+02  0.14402295176E+02  0.37101913321E+02  0.00000000000E+00 0.  1.
</event>
<event>
 7    1  0.6122298E-006  0.6335188E+02  0.7818608E-02  0.1409234E+00
          2   -1    0    0  502    0  0.00000000000E+00  0.00000000000E+00  0.28236358427E+03  0.28236358427E+03  0.00000000000E+00 0. -1.
          1   -1    0    0  501    0 -0.00000000000E+00 -0.00000000000E+00 -0.46441415871E+03  0.46441415871E+03  0.00000000000E+00 0. -1.
         25    2    1    2    0    0  0.36217178525E+02 -0.43304874184E+01  0.15129306703E+00  0.13021362811E+03  0.12500051566E+03 0.  0.
          2    1    1    2  501    0 -0.32791830966E+02  0.56161480294E+02 -0.39356995985E+03  0.39890691814E+03  0.00000000000E+00 0. -1.
          1    1    1    2  502    0 -0.34253475588E+01 -0.51830992876E+02  0.21136809234E+03  0.21765719673E+03  0.00000000000E+00 0. -1.
         22    1    3    3    0    0 -0.13906099111E+02  0.49761149192E+02 -0.17199906622E+02  0.54455379433E+02  0.00000000000E+00 0. -1.
         22    1    3    3    0    0  0.50123277636E+02 -0.54091636610E+02  0.17351199689E+02  0.75758248678E+02  0.00000000000E+00 0. -1.
</event>
<event>
 7    1  0.6122298E-006  0.1373137E+03  0.7818608E-02  0.1372613E+00
          2   -1    0    0  502    0  0.00000000000E+00  0.00000000000E+00  0.15361591556E+04  0.15361591556E+04  0.00000000000E+00 0. -1.
          1   -1    0    0  501    0 -0.00000000000E+00 -0.00000000000E+00 -0.46293356147E+03  0.46293356147E+03  0.00000000000E+00 0. -1.
         25    2    1    2    0    0 -0.10506229653E+03 -0.56797655911E+02  0.25611135059E+03  0.30900466360E+03  0.12500719323E+03 0.  0.
          2    1    1    2  501    0 -0.35296165958E+01 -0.31958817867E+02 -0.43196485218E+03  0.43315985242E+03  0.00000000000E+00 0. -1.
          1    1    1    2  502    0  0.10859191312E+03  0.88756473777E+02  0.12490790957E+04  0.12569282011E+04  0.00000000000E+00 0. -1.
         22    1    3    3    0    0 -0.79807866086E+02 -0.66690266761E+02  0.26143612021E+03  0.28136405620E+03  0.00000000000E+00 0.  1.
         22    1    3    3    0    0 -0.25254430441E+02  0.98926108501E+01 -0.53247696203E+01  0.27640607408E+02  0.00000000000E+00 0.  1.
</event>
<event>
 7    1  0.6122298E-006  0.7874048E+02  0.7818608E-02  0.1398281E+00
          2   -1    0    0  502    0  0.00000000000E+00  0.00000000000E+00  0.28080562299E+03  0.28080562299E+03  0.00000000000E+00 0. -1.
          1   -1    0    0  501    0 -0.00000000000E+00 -0.00000000000E+00 -0.28134891355E+03  0.28134891355E+03  0.00000000000E+00 0. -1.
         25    2    1    2    0    0  0.32273847743E+02 -0.29912247002E+02  0.63944616966E+02  0.14714050053E+03  0.12500027636E+03 0.  0.
          2    1    1    2  501    0 -0.30355436107E+02  0.75428974147E+02 -0.22968422922E+03  0.24365103693E+03  0.00000000000E+00 0. -1.
          1    1    1    2  502    0 -0.19184116363E+01 -0.45516727145E+02  0.16519632170E+03  0.17136299908E+03  0.00000000000E+00 0. -1.
         22    1    3    3    0    0 -0.18112678431E+01 -0.36972003957E+02 -0.29557502543E+02  0.47369354275E+02  0.00000000000E+00 0.  1.
         22    1    3    3    0    0  0.34085115586E+02  0.70597569553E+01  0.93502119509E+02  0.99771146257E+02  0.00000000000E+00 0.  1.
</event>
<event>
 7    1  0.6122298E-006  0.2061410E+03  0.7818608E-02  0.1226841E+00
          2   -1    0    0  502    0  0.00000000000E+00  0.00000000000E+00  0.18332340871E+04  0.18332340871E+04  0.00000000000E+00 0. -1.
          1   -1    0    0  501    0 -0.00000000000E+00 -0.00000000000E+00 -0.16725697211E+04  0.16725697211E+04  0.00000000000E+00 0. -1.
         25    2    1    2    0    0  0.14751223270E+03 -0.49450220261E+02  0.55999966964E+03  0.59450053869E+03  0.12500430962E+03 0.  0.
          2    1    1    2  501    0 -0.16004096399E+03  0.13100087280E+03 -0.16474918123E+04  0.16604227204E+04  0.00000000000E+00 0. -1.
          1    1    1    2  502    0  0.12528731294E+02 -0.81550652539E+02  0.12481565087E+04  0.12508805491E+04  0.00000000000E+00 0. -1.
         22    1    3    3    0    0  0.10356738250E+03 -0.90014659542E+02  0.43091358306E+03  0.45223374235E+03  0.00000000000E+00 0.  1.
         22    1    3    3    0    0  0.43944850192E+02  0.40564439282E+02  0.12908608658E+03  0.14226679634E+03  0.00000000000E+00 0.  1.
</event>
<event>
 7    1  0.6122298E-006  0.1856616E+03  0.7818608E-02  0.1222814E+00
          2   -1    0    0  502    0  0.00000000000E+00  0.00000000000E+00  0.19702694960E+04  0.19702694960E+04  0.00000000000E+00 0. -1.
          1   -1    0    0  501    0 -0.00000000000E+00 -0.00000000000E+00 -0.36049168962E+03  0.36049168962E+03  0.00000000000E+00 0. -1.
         25    2    1    2    0    0  0.23386600517E+03 -0.14048909990E+03  0.30602910143E+03  0.42861093091E+03  0.12499209418E+03 0.  0.
          2    1    1    2  501    0 -0.14492933702E+03  0.10560916315E+03 -0.27075261727E+03  0.32475342620E+03  0.00000000000E+00 0. -1.
          1    1    1    2  502    0 -0.88936668149E+02  0.34879936753E+02  0.15745013222E+04  0.15773968285E+04  0.00000000000E+00 0. -1.
         22    1    3    3    0    0  0.13546936760E+03 -0.12658912631E+03  0.12991477255E+03  0.22639479805E+03  0.00000000000E+00 0. -1.
         22    1    3    3    0    0  0.98396637572E+02 -0.13899973594E+02  0.17611432889E+03  0.20221613286E+03  0.00000000000E+00 0. -1.
</event>
<event>
 7    1  0.6122298E-006  0.4752188E+02  0.7818608E-02  0.1537209E+00
          2   -1    0    0  502    0  0.00000000000E+00  0.00000000000E+00  0.45097367275E+03  0.45097367275E+03  0.00000000000E+00 0. -1.
          1   -1    0    0  501    0 -0.00000000000E+00 -0.00000000000E+00 -0.50284552481E+03  0.50284552481E+03  0.00000000000E+00 0. -1.
         25    2    1    2    0    0 -0.11675383702E+02 -0.60812425709E+02 -0.31355216848E+03  0.34318163205E+03  0.12499681802E+03 0.  0.
          2    1    1    2  501    0 -0.16316321936E+02  0.22450974080E+02 -0.17207077853E+03  0.17429463968E+03  0.00000000000E+00 0. -1.
          1    1    1    2  502    0  0.27991705638E+02  0.38361451629E+02  0.43375109495E+03  0.43634292583E+03  0.00000000000E+00 0. -1.
         22    1    3    3    0    0 -0.20774805644E+02 -0.97326361480E+02 -0.19708546754E+03  0.22078653651E+03  0.00000000000E+00 0. -1.
         22    1    3    3    0    0  0.90994219420E+01  0.36513935771E+02 -0.11646670094E+03  0.12239509554E+03  0.00000000000E+00 0. -1.
</event>
<event>
 7    1  0.6122298E-006  0.3564554E+02  0.7818608E-02  0.1623564E+00
          2   -1    0    0  502    0  0.00000000000E+00  0.00000000000E+00  0.98772043687E+02  0.98772043687E+02  0.00000000000E+00 0. -1.
          1   -1    0    0  501    0 -0.00000000000E+00 -0.00000000000E+00 -0.19538073451E+03  0.19538073451E+03  0.00000000000E+00 0. -1.
         25    2    1    2    0    0  0.32878272085E+01 -0.18162007594E+02  0.44506451970E+02  0.13396427177E+03  0.12499973406E+03 0.  0.
          2    1    1    2  501    0 -0.35579367764E+02  0.21709553148E+01 -0.96286343477E+02  0.10267260782E+03  0.00000000000E+00 0. -1.
          1    1    1    2  502    0  0.32291540556E+02  0.15991052279E+02 -0.44828799319E+02  0.57515898610E+02  0.00000000000E+00 0. -1.
         22    1    3    3    0    0  0.16196480149E+02 -0.66629289775E+02  0.26233317707E+01  0.68619750033E+02  0.00000000000E+00 0.  1.
         22    1    3    3    0    0 -0.12908652940E+02  0.48467282181E+02  0.41883120199E+02  0.65344521732E+02  0.00000000000E+00 0.  1.
</event>
<event>
 7    1  0.6122298E-006  0.9413334E+02  0.7818608E-02  0.1301083E+00
          2   -1    0    0  502    0  0.00000000000E+00  0.00000000000E+00  0.40931711335E+03  0.40931711335E+03  0.00000000000E+00 0. -1.
          1   -1    0    0  501    0 -0.00000000000E+00 -0.00000000000E+00 -0.40787482732E+03  0.40787482732E+03  0.00000000000E+00 0. -1.
         25    2    1    2    0    0 -0.29105951917E+02 -0.11160301118E+02  0.13091199786E+03  0.18366850158E+03  0.12499783410E+03 0.  0.
          2    1    1    2  501    0  0.72831309346E+02 -0.64582675134E+02 -0.36737480597E+03  0.38005206171E+03  0.00000000000E+00 0. -1.
          1    1    1    2  502    0 -0.43725357429E+02  0.75742976252E+02  0.23790509414E+03  0.25347137738E+03  0.00000000000E+00 0. -1.
         22    1    3    3    0    0 -0.63370306933E+02 -0.21906243392E+02  0.24541461492E+02  0.71400018435E+02  0.00000000000E+00 0. -1.
         22    1    3    3    0    0  0.34264355016E+02  0.10745942274E+02  0.10637053637E+03  0.11226848315E+03  0.00000000000E+00 0. -1.
</event>
<event>
 7    1  0.6122298E-006  0.3268277E+02  0.7818608E-02  0.1641521E+00
          2   -1    0    0  502    0  0.00000000000E+00  0.00000000000E+00  0.42874878918E+03  0.42874878918E+03  0.00000000000E+00 0. -1.
          1   -1    0    0  501    0 -0.00000000000E+00 -0.00000000000E+00 -0.23919891043E+03  0.23919891043E+03  0.00000000000E+00 0. -1.
         25    2    1    2    0    0 -0.27039295073E+02  0.12462997033E+02  0.15381002429E+03  0.20042270821E+03  0.12500115448E+03 0.  0.
          2    1    1    2  501    0 -0.50315063734E+01 -0.20741648678E+02 -0.21427013097E+03  0.21533049267E+03  0.00000000000E+00 0. -1.
          1    1    1    2  502    0  0.32070801446E+02  0.82786516443E+01  0.25000998543E+03  0.25219449874E+03  0.00000000000E+00 0. -1.
         22    1    3    3    0    0 -0.47011376845E+02  0.38450966753E+00  0.22401837980E+01  0.47066291802E+02  0.00000000000E+00 0.  1.
         22    1    3    3    0    0  0.19972081772E+02  0.12078487366E+02  0.15156984049E+03  0.15335641641E+03  0.00000000000E+00 0.  1.
</event>
<event>
 7    1  0.6122298E-006  0.1254959E+03  0.7818608E-02  0.1296019E+00
          2   -1    0    0  502    0  0.00000000000E+00  0.00000000000E+00  0.57032129260E+03  0.57032129260E+03  0.00000000000E+00 0. -1.
          1   -1    0    0  501    0 -0.00000000000E+00 -0.00000000000E+00 -0.29071284847E+03  0.29071284847E+03  0.00000000000E+00 0. -1.
         25    2    1    2    0    0  0.16681447146E+02  0.73998449218E+02  0.10796976430E+03  0.18175958466E+03  0.12500014178E+03 0.  0.
          2    1    1    2  501    0 -0.76644329619E+02 -0.10761666914E+03 -0.23353122122E+03  0.26831424119E+03  0.00000000000E+00 0. -1.
          1    1    1    2  502    0  0.59962882473E+02  0.33618219918E+02  0.40516990104E+03  0.41096031523E+03  0.00000000000E+00 0. -1.
         22    1    3    3    0    0  0.11386108861E+01  0.10700124809E+03  0.64230037078E+02  0.12480409124E+03  0.00000000000E+00 0.  1.
         22    1    3    3    0    0  0.15542836260E+02 -0.33002798873E+02  0.43739727226E+02  0.56955493416E+02  0.00000000000E+00 0.  1.
</event>
<event>
 7    1  0.6122298E-006  0.3333523E+02  0.7818608E-02  0.1613788E+00
          2   -1    0    0  502    0  0.00000000000E+00  0.00000000000E+00  0.17772768560E+03  0.17772768560E+03  0.00000000000E+00 0. -1.
          1   -1    0    0  501    0 -0.00000000000E+00 -0.00000000000E+00 -0.40633019210E+03  0.40633019210E+03  0.00000000000E+00 0. -1.
         25    2    1    2    0    0 -0.18647264095E+02 -0.40393452004E+01 -0.69381203376E+02  0.14423491269E+03  0.12500368750E+03 0.  0.
          2    1    1    2  501    0  0.18073763070E+02  0.28615385023E+02 -0.29747832542E+03  0.29939748707E+03  0.00000000000E+00 0. -1.
          1    1    1    2  502    0  0.57350102557E+00 -0.24576039823E+02  0.13825702230E+03  0.14042547793E+03  0.00000000000E+00 0. -1.
         22    1    3    3    0    0  0.49608475995E+02  0.19779319360E+02 -0.21770243728E+02  0.57672921522E+02  0.00000000000E+00 0.  1.
         22    1    3    3    0    0 -0.68255740090E+02 -0.23818664560E+02 -0.47610959648E+02  0.86561991170E+02  0.00000000000E+00 0.  1.
</event>
<event>
 7    1  0.6122298E-006  0.1699755E+03  0.7818608E-02  0.1249062E+00
          2   -1    0    0  502    0  0.00000000000E+00  0.00000000000E+00  0.21485158476E+03  0.21485158476E+03  0.00000000000E+00 0. -1.
          1   -1    0    0  501    0 -0.00000000000E+00 -0.00000000000E+00 -0.60601994828E+03  0.60601994828E+03  0.00000000000E+00 0. -1.
         25    2    1    2    0    0 -0.24440216212E+02 -0.99004583472E+02 -0.24434699291E+03  0.29279791518E+03  0.12500373784E+03 0.  0.
          2    1    1    2  501    0 -0.70604570537E+01 -0.79473691421E+02 -0.28767733872E+03  0.29853671281E+03  0.00000000000E+00 0. -1.
          1    1    1    2  502    0  0.31500673266E+02  0.17847827489E+03  0.14085596811E+03  0.22953690504E+03  0.00000000000E+00 0. -1.
         22    1    3    3    0    0  0.33940992615E+02 -0.85204204452E+02 -0.95947366411E+02  0.13273147538E+03  0.00000000000E+00 0. -1.
         22    1    3    3    0    0 -0.58381208827E+02 -0.13800379020E+02 -0.14839962650E+03  0.16006643980E+03  0.00000000000E+00 0. -1.
</event>
<event>
 7    1  0.6122298E-006  0.2552676E+03  0.7818608E-02  0.1128952E+00
          2   -1    0    0  502    0  0.00000000000E+00  0.00000000000E+00  0.19246005552E+03  0.19246005552E+03  0.00000000000E+00 0. -1.
          1   -1    0    0  501    0 -0.00000000000E+00 -0.00000000000E+00 -0.20503241383E+04  0.20503241383E+04  0.00000000000E+00 0. -1.
         25    2    1    2    0    0  0.20617331280E+03  0.19670888356E+03 -0.36071692075E+03  0.47639308624E+03  0.12502742071E+03 0.  0.
          2    1    1    2  501    0 -0.26191193225E+03 -0.31657226058E+01 -0.15386200816E+04  0.15607561108E+04  0.00000000000E+00 0. -1.
          1    1    1    2  502    0  0.55738619453E+02 -0.19354316095E+03  0.41472919502E+02  0.20563499678E+03  0.00000000000E+00 0. -1.
         22    1    3    3    0    0  0.34715579566E+02  0.10692322160E+03 -0.17606870527E+03  0.20889695009E+03  0.00000000000E+00 0. -1.
         22    1    3    3    0    0  0.17145773323E+03  0.89785661956E+02 -0.18464821547E+03  0.26749613615E+03  0.00000000000E+00 0. -1.
</event>
<event>
 7    1  0.6122298E-006  0.8044508E+02  0.7818608E-02  0.1340244E+00
          2   -1    0    0  502    0  0.00000000000E+00  0.00000000000E+00  0.97263849235E+03  0.97263849235E+03  0.00000000000E+00 0. -1.
          1   -1    0    0  501    0 -0.00000000000E+00 -0.00000000000E+00 -0.20132397316E+03  0.20132397316E+03  0.00000000000E+00 0. -1.
         25    2    1    2    0    0 -0.42751071864E+02  0.70709515584E+02  0.42451663863E+03  0.45018523602E+03  0.12499952205E+03 0.  0.
          2    1    1    2  501    0  0.71295505832E+02  0.11058017248E+02 -0.17790337311E+03  0.19197640236E+03  0.00000000000E+00 0. -1.
          1    1    1    2  502    0 -0.28544433968E+02 -0.81767532832E+02  0.52470125367E+03  0.53180082713E+03  0.00000000000E+00 0. -1.
         22    1    3    3    0    0  0.43118624875E+02  0.14037817643E+02  0.16201413247E+03  0.16824046854E+03  0.00000000000E+00 0.  1.
         22    1    3    3    0    0 -0.85869696739E+02  0.56671697941E+02  0.26250250616E+03  0.28194476748E+03  0.00000000000E+00 0.  1.
</event>
<event>
 7    1  0.6122298E-006  0.1572973E+03  0.7818608E-02  0.1383210E+00
          2   -1    0    0  502    0  0.00000000000E+00  0.00000000000E+00  0.52831669307E+03  0.52831669307E+03  0.00000000000E+00 0. -1.
          1   -1    0    0  501    0 -0.00000000000E+00 -0.00000000000E+00 -0.57716275151E+03  0.57716275151E+03  0.00000000000E+00 0. -1.
         25    2    1    2    0    0  0.73853155619E+02 -0.14560600179E+03  0.12344451333E+03  0.23982995794E+03  0.12499785799E+03 0.  0.
          2    1    1    2  501    0  0.17288162099E+02  0.19066844222E+02 -0.50108600906E+03  0.50174656309E+03  0.00000000000E+00 0. -1.
          1    1    1    2  502    0 -0.91141317717E+02  0.12653915756E+03  0.32879543728E+03  0.36390292355E+03  0.00000000000E+00 0. -1.
         22    1    3    3    0    0 -0.36208218413E+01 -0.10872981248E+03  0.29751542783E+02  0.11278491375E+03  0.00000000000E+00 0. -1.
         22    1    3    3    0    0  0.77473977460E+02 -0.36876189307E+02  0.93692970551E+02  0.12704504418E+03  0.00000000000E+00 0. -1.
</event>
<event>
 7    1  0.6122298E-006  0.5243731E+02  0.7818608E-02  0.1537650E+00
          2   -1    0    0  502    0  0.00000000000E+00  0.00000000000E+00  0.33970916136E+03  0.33970916136E+03  0.00000000000E+00 0. -1.
          1   -1    0    0  501    0 -0.00000000000E+00 -0.00000000000E+00 -0.23217545713E+03  0.23217545713E+03  0.00000000000E+00 0. -1.
         25    2    1    2    0    0 -0.51380692473E+02 -0.11623652042E+02 -0.10553970591E+03  0.17188036871E+03  0.12501658601E+03 0.  0.
          2    1    1    2  501    0  0.40948601634E+02  0.34430780609E+02 -0.85239926274E+02  0.10063851976E+03  0.00000000000E+00 0. -1.
          1    1    1    2  502    0  0.10432090838E+02 -0.22807128567E+02  0.29831333641E+03  0.29936573002E+03  0.00000000000E+00 0. -1.
         22    1    3    3    0    0  0.36511075330E+02 -0.56531645973E+01 -0.65307479067E+02  0.75033883771E+02  0.00000000000E+00 0.  1.
         22    1    3    3    0    0 -0.87891767803E+02 -0.59704874450E+01 -0.40232226841E+02  0.96846484936E+02  0.00000000000E+00 0.  1.
</event>
<event>
 7    1  0.6122298E-006  0.9157124E+02  0.7818608E-02  0.1348860E+00
          2   -1    0    0  502    0  0.00000000000E+00  0.00000000000E+00  0.10809532939E+03  0.10809532939E+03  0.00000000000E+00 0. -1.
          1   -1    0    0  501    0 -0.00000000000E+00 -0.00000000000E+00 -0.11865479012E+04  0.11865479012E+04  0.00000000000E+00 0. -1.
         25    2    1    2    0    0 -0.51582552969E+02 -0.40179374265E+02 -0.10675525107E+03  0.17690896947E+03  0.12499983184E+03 0.  0.
          2    1    1    2  501    0  0.20314387367E+02 -0.55236824256E+02 -0.10089295354E+04  0.10106446401E+04  0.00000000000E+00 0. -1.
          1    1    1    2  502    0  0.31268165602E+02  0.95416198521E+02  0.37232214693E+02  0.10708962103E+03  0.00000000000E+00 0. -1.
         22    1    3    3    0    0 -0.71268807985E+02 -0.70296145705E+02 -0.56026716798E+02  0.11471610213E+03  0.00000000000E+00 0.  1.
         22    1    3    3    0    0  0.19686255016E+02  0.30116771440E+02 -0.50728534273E+02  0.62192867340E+02  0.00000000000E+00 0.  1.
</event>
<event>
 7    1  0.6122298E-006  0.1816646E+03  0.7818608E-02  0.1256010E+00
          2   -1    0    0  502    0  0.00000000000E+00  0.00000000000E+00  0.26240822277E+04  0.26240822277E+04  0.00000000000E+00 0. -1.
          1   -1    0    0  501    0 -0.00000000000E+00 -0.00000000000E+00 -0.31996294883E+03  0.31996294883E+03  0.00000000000E+00 0. -1.
         25    2    1    2    0    0  0.10458846621E+03 -0.13670143375E+03  0.60277879592E+03  0.63921345574E+03  0.12500214374E+03 0.  0.
          2    1    1    2  501    0  0.55790266737E+02  0.41725032766E+02 -0.29332076803E+03  0.30148068791E+03  0.00000000000E+00 0. -1.
          1    1    1    2  502    0 -0.16037873295E+03  0.94976400986E+02  0.19946612510E+04  0.20033510329E+04  0.00000000000E+00 0. -1.
         22    1    3    3    0    0  0.22694053687E+02 -0.14786752522E+02  0.10587545428E+02  0.29082026083E+02  0.00000000000E+00 0. -1.
         22    1    3    3    0    0  0.81894412527E+02 -0.12191468123E+03  0.59219125049E+03  0.61013142966E+03  0.00000000000E+00 0. -1.
</event>
<event>
 7    1  0.6122298E-006  0.8795594E+02  0.7818608E-02  0.1488577E+00
          2   -1    0    0  502    0  0.00000000000E+00  0.00000000000E+00  0.46056695410E+03  0.46056695410E+03  0.00000000000E+00 0. -1.
          1   -1    0    0  501    0 -0.00000000000E+00 -0.00000000000E+00 -0.24039776159E+03  0.24039776159E+03  0.00000000000E+00 0. -1.
         25    2    1    2    0    0  0.93385675241E+02 -0.43413460967E+02 -0.13260071402E+02  0.16250201560E+03  0.12500185058E+03 0.  0.
          2    1    1    2  501    0 -0.20390433474E+02 -0.42307972996E+01 -0.14685086977E+03  0.14832008419E+03  0.00000000000E+00 0. -1.
          1    1    1    2  502    0 -0.72995241767E+02  0.47644258266E+02  0.38028013368E+03  0.39014261589E+03  0.00000000000E+00 0. -1.
         22    1    3    3    0    0  0.67939613803E+01  0.39712184850E+02 -0.13429979828E+02  0.42468575383E+02  0.00000000000E+00 0. -1.
         22    1    3    3    0    0  0.86591713861E+02 -0.83125645817E+02  0.16990842666E+00  0.12003344022E+03  0.00000000000E+00 0. -1.
</event>
<event>
 7    1  0.6122298E-006  0.6734675E+02  0.7818608E-02  0.1400025E+00
          2   -1    0    0  502    0  0.00000000000E+00  0.00000000000E+00  0.18630952670E+03  0.18630952670E+03  0.00000000000E+00 0. -1.
          1   -1    0    0  501    0 -0.00000000000E+00 -0.00000000000E+00 -0.27086127103E+03  0.27086127103E+03  0.00000000000E+00 0. -1.
         25    2    1    2    0    0 -0.75318347994E+02 -0.28481862058E+02  0.24244792272E+02  0.15066097584E+03  0.12500739850E+03 0.  0.
          2    1    1    2  501    0  0.11395405905E+02  0.51282210308E+02 -0.19204623355E+03  0.19910167300E+03  0.00000000000E+00 0. -1.
          1    1    1    2  502    0  0.63922942089E+02 -0.22800348251E+02  0.83249696946E+02  0.10740814889E+03  0.00000000000E+00 0. -1.
         22    1    3    3    0    0 -0.90384617914E+02 -0.31164617609E+02  0.59235738151E+02  0.11246993030E+03  0.00000000000E+00 0.  1.
         22    1    3    3    0    0  0.15066269920E+02  0.26827555509E+01 -0.34990945879E+02  0.38191045550E+02  0.00000000000E+00 0.  1.
</event>
<event>
 7    1  0.6122298E-006  0.1146550E+03  0.7818608E-02  0.1259088E+00
          2   -1    0    0  502    0  0.00000000000E+00  0.00000000000E+00  0.18795726082E+04  0.18795726082E+04  0.00000000000E+00 0. -1.
          1   -1    0    0  501    0 -0.00000000000E+00 -0.00000000000E+00 -0.13972406973E+04  0.13972406973E+04  0.00000000000E+00 0. -1.
         25    2    1    2    0    0  0.20093437785E+03  0.71465219100E+02  0.33871253711E+03  0.41932500616E+03  0.12500150503E+03 0.  0.
          2    1    1    2  501    0 -0.92433199269E+02 -0.54062924956E+02 -0.13528040556E+04  0.13570355592E+04  0.00000000000E+00 0. -1.
          1    1    1    2  502    0 -0.10850117858E+03 -0.17402294144E+02  0.14964234294E+04  0.15004527402E+04  0.00000000000E+00 0. -1.
         22    1    3    3    0    0  0.19519033889E+03  0.83973878630E+02  0.34420142334E+03  0.40450649008E+03  0.00000000000E+00 0. -1.
         22    1    3    3    0    0  0.57440389599E+01 -0.12508659530E+02 -0.54888862352E+01  0.14818516083E+02  0.00000000000E+00 0. -1.
</event>
<event>
 7    1  0.6122298E-006  0.1328142E+03  0.7818608E-02  0.1249953E+00
          2   -1    0    0  502    0  0.00000000000E+00  0.00000000000E+00  0.13663491271E+04  0.13663491271E+04  0.00000000000E+00 0. -1.
          1   -1    0    0  501    0 -0.00000000000E+00 -0.00000000000E+00 -0.43242463772E+03  0.43242463772E+03  0.00000000000E+00 0. -1.
         25    2    1    2    0    0  0.67234508063E+02  0.17885077440E+03  0.30958585799E+03  0.38467673044E+03  0.12499881958E+03 0.  0.
          2    1    1    2  501    0  0.21394223994E+02 -0.12998854436E+03 -0.38128078399E+03  0.40339778225E+03  0.00000000000E+00 0. -1.
          1    1    1    2  502    0 -0.88628732058E+02 -0.48862230042E+02  0.10056194153E+04  0.10106992521E+04  0.00000000000E+00 0. -1.
         22    1    3    3    0    0  0.46818363553E+02  0.17303985022E+03  0.31529774376E+03  0.36269465967E+03  0.00000000000E+00 0.  1.
         22    1    3    3    0    0  0.20416144511E+02  0.58109241810E+01 -0.57118857698E+01  0.21982070775E+02  0.00000000000E+00 0.  1.
</event>
<event>
 7    1  0.6122298E-006  0.3649349E+02  0.7818608E-02  0.1572352E+00
          2   -1    0    0  502    0  0.00000000000E+00  0.00000000000E+00  0.58854838102E+02  0.58854838102E+02  0.00000000000E+00 0. -1.
          1   -1    0    0  501    0 -0.00000000000E+00 -0.00000000000E+00 -0.38282810826E+03  0.38282810826E+03  0.00000000000E+00 0. -1.
         25    2    1    2    0    0 -0.16831111595E+02  0.22236312245E+02 -0.69659140401E+02  0.14579084580E+03  0.12499933991E+03 0.  0.
          2    1    1    2  501    0 -0.84772084670E+01 -0.36145377808E+02 -0.26310004959E+03  0.26570658158E+03  0.00000000000E+00 0. -1.
          1    1    1    2  502    0  0.25308320062E+02  0.13909065564E+02  0.87859198264E+01  0.30185518985E+02  0.00000000000E+00 0. -1.
         22    1    3    3    0    0  0.46981128414E+02 -0.13433179034E+02 -0.50385228014E+02  0.70187947170E+02  0.00000000000E+00 0.  1.
         22    1    3    3    0    0 -0.63812240009E+02  0.35669491279E+02 -0.19273912387E+02  0.75602898633E+02  0.00000000000E+00 0.  1.
</event>
<event>
 7    1  0.6122298E-006  0.1385550E+03  0.7818608E-02  0.1421546E+00
          2   -1    0    0  502    0  0.00000000000E+00  0.00000000000E+00  0.45354300458E+03  0.45354300458E+03  0.00000000000E+00 0. -1.
          1   -1    0    0  501    0 -0.00000000000E+00 -0.00000000000E+00 -0.66776985123E+03  0.66776985123E+03  0.00000000000E+00 0. -1.
         25    2    1    2    0    0  0.67406311001E+02 -0.13478523793E+03 -0.33392928813E+03  0.38709724736E+03  0.12499935328E+03 0.  0.
          2    1    1    2  501    0 -0.21104038004E+02  0.45602728398E+01 -0.29566743964E+03  0.29645473747E+03  0.00000000000E+00 0. -1.
          1    1    1    2  502    0 -0.46302272997E+02  0.13022496509E+03  0.41536988111E+03  0.43776087097E+03  0.00000000000E+00 0. -1.
         22    1    3    3    0    0  0.64000331597E+02 -0.11400693183E+03 -0.34074433203E+03  0.36496619399E+03  0.00000000000E+00 0. -1.
         22    1    3    3    0    0  0.34059794037E+01 -0.20778306094E+02  0.68150439005E+01  0.22131053368E+02  0.00000000000E+00 0. -1.
</event>
<event>
 7    1  0.6122298E-006  0.3045687E+02  0.7818608E-02  0.1639284E+00
          2   -1    0    0  502    0  0.00000000000E+00  0.00000000000E+00  0.50054768805E+03  0.50054768805E+03  0.00000000000E+00 0. -1.
          1   -1    0    0  501    0 -0.00000000000E+00 -0.00000000000E+00 -0.15974913551E+04  0.15974913551E+04  0.00000000000E+00 0. -1.
         25    2    1    2    0    0 -0.83600318737E+01 -0.41872246479E+02  0.94766262160E+01  0.13242841454E+03  0.12499721347E+03 0.  0.
          2    1    1    2  501    0 -0.12366407813E+02  0.19626648907E+02 -0.15353897560E+04  0.15355649893E+04  0.00000000000E+00 0. -1.
          1    1    1    2  502    0  0.20726439687E+02  0.22245597572E+02  0.42896946277E+03  0.43004563932E+03  0.00000000000E+00 0. -1.
         22    1    3    3    0    0 -0.37579676679E+02 -0.23716512442E+02 -0.48019895382E+02  0.65426412206E+02  0.00000000000E+00 0. -1.
         22    1    3    3    0    0  0.29219644805E+02 -0.18155734037E+02  0.57496521598E+02  0.67002002334E+02  0.00000000000E+00 0. -1.
</event>
<event>
 7    1  0.6122298E-006  0.3574971E+02  0.7818608E-02  0.1604998E+00
          2   -1    0    0  502    0  0.00000000000E+00  0.00000000000E+00  0.67974678778E+02  0.67974678778E+02  0.00000000000E+00 0. -1.
          1   -1    0    0  501    0 -0.00000000000E+00 -0.00000000000E+00 -0.52237645675E+03  0.52237645675E+03  0.00000000000E+00 0. -1.
         25    2    1    2    0    0 -0.97864952528E+01  0.18497587026E+02 -0.13865609652E+03  0.18785496108E+03  0.12500414827E+03 0.  0.
          2    1    1    2  501    0 -0.70672143912E+01 -0.35797082359E+02 -0.35474895467E+03  0.35662052306E+03  0.00000000000E+00 0. -1.
          1    1    1    2  502    0  0.16853709644E+02  0.17299495334E+02  0.39003273226E+02  0.45875651384E+02  0.00000000000E+00 0. -1.
         22    1    3    3    0    0  0.56732330530E+02 -0.28386989052E+01 -0.65583094911E+02  0.86762652547E+02  0.00000000000E+00 0.  1.
         22    1    3    3    0    0 -0.66518825783E+02  0.21336285931E+02 -0.73073001610E+02  0.10109230854E+03  0.00000000000E+00 0.  1.
</event>
<event>
 7    1  0.6122298E-006  0.6260776E+02  0.7818608E-02  0.1454695E+00
          2   -1    0    0  502    0  0.00000000000E+00  0.00000000000E+00  0.25575451456E+04  0.25575451456E+04  0.00000000000E+00 0. -1.
          1   -1    0    0  501    0 -0.00000000000E+00 -0.00000000000E+00 -0.52556933068E+03  0.52556933068E+03  0.00000000000E+00 0. -1.
         25    2    1    2    0    0  0.91510468818E+02 -0.27658269397E+02 -0.73748059217E+02  0.17379040666E+03  0.12500073376E+03 0.  0.
          2    1    1    2  501    0 -0.54242439888E+02  0.28221158875E+02 -0.39933445669E+03  0.40398847062E+03  0.00000000000E+00 0. -1.
          1    1    1    2  502    0 -0.37268028930E+02 -0.56288947827E+00  0.25050583308E+04  0.25053355990E+04  0.00000000000E+00 0. -1.
         22    1    3    3    0    0 -0.11247155645E+02  0.29366389059E+02 -0.41231696863E+02  0.51854952923E+02  0.00000000000E+00 0.  1.
         22    1    3    3    0    0  0.10275762446E+03 -0.57024658456E+02 -0.32516362354E+02  0.12193545374E+03  0.00000000000E+00 0.  1.
</event>
<event>
 7    1  0.6122298E-006  0.3360770E+02  0.7818608E-02  0.1646921E+00
          2   -1    0    0  502    0  0.00000000000E+00  0.00000000000E+00  0.49620727145E+03  0.49620727145E+03  0.00000000000E+00 0. -1.
          1   -1    0    0  501    0 -0.00000000000E+00 -0.00000000000E+00 -0.39217392394E+03  0.39217392394E+03  0.00000000000E+00 0. -1.
         25    2    1    2    0    0  0.26018821064E+02  0.34571873138E+02 -0.10602984246E+03  0.16953157831E+03  0.12500574022E+03 0.  0.
          2    1    1    2  501    0 -0.20070842440E+02 -0.15173382142E+01 -0.25338644254E+03  0.25418463819E+03  0.00000000000E+00 0. -1.
          1    1    1    2  502    0 -0.59479786247E+01 -0.33054534924E+02  0.46344963251E+03  0.46466497888E+03  0.00000000000E+00 0. -1.
         22    1    3    3    0    0  0.24105523432E+02  0.49031496797E+02  0.74286856009E+01  0.55139362599E+02  0.00000000000E+00 0.  1.
         22    1    3    3    0    0  0.19132976323E+01 -0.14459623659E+02 -0.11345852807E+03  0.11439221571E+03  0.00000000000E+00 0.  1.
</event>
<event>
 7    1  0.6122298E-006  0.5846919E+02  0.7818608E-02  0.1422306E+00
          2   -1    0    0  502    0  0.00000000000E+00  0.00000000000E+00  0.13863337971E+04  0.13863337971E+04  0.00000000000E+00 0. -1.
          1   -1    0    0  501    0 -0.00000000000E+00 -0.00000000000E+00 -0.20447271437E+03  0.20447271437E+03  0.00000000000E+00 0. -1.
         25    2    1    2    0    0 -0.93606470546E+00 -0.38670694521E+02  0.68104898610E+01  0.13102582749E+03  0.12500034346E+03 0.  0.
          2    1    1    2  501    0  0.51613024617E+02  0.34273542591E+02 -0.13510731058E+03  0.14863568012E+03  0.00000000000E+00 0. -1.
          1    1    1    2  502    0 -0.50676959912E+02  0.43971519293E+01  0.13101579034E+04  0.13111450039E+04  0.00000000000E+00 0. -1.
         22    1    3    3    0    0  0.57105527237E+02 -0.41945339465E+02 -0.72221608022E+01  0.71222274258E+02  0.00000000000E+00 0.  1.
         22    1    3    3    0    0 -0.58041591942E+02  0.32746449446E+01  0.14032650663E+02  0.59803553233E+02  0.00000000000E+00 0.  1.
</event>
<event>
 7    1  0.6122298E-006  0.8785854E+02  0.7818608E-02  0.1420319E+00
          2   -1    0    0  502    0  0.00000000000E+00  0.00000000000E+00  0.13737153394E+04  0.13737153394E+04  0.00000000000E+00 0. -1.
          1   -1    0    0  501    0 -0.00000000000E+00 -0.00000000000E+00 -0.37985609737E+03  0.37985609737E+03  0.00000000000E+00 0. -1.
         25    2    1    2    0    0  0.12055069925E+03  0.25856931236E+01  0.44320423250E+03  0.47601926809E+03  0.12500077994E+03 0.  0.
          2    1    1    2  501    0 -0.86940377948E+02 -0.97821259838E+01 -0.35785381546E+03  0.36839336658E+03  0.00000000000E+00 0. -1.
          1    1    1    2  502    0 -0.33610321299E+02  0.71964328602E+01  0.90850882494E+03  0.90915880205E+03  0.00000000000E+00 0. -1.
         22    1    3    3    0    0 -0.18936133452E+02  0.14196579956E+01  0.15142223081E+03  0.15260827161E+03  0.00000000000E+00 0.  1.
         22    1    3    3    0    0  0.13948683270E+03  0.11660351280E+01  0.29178200169E+03  0.32341099648E+03  0.00000000000E+00 0.  1.
</event>
<event>
 7    1  0.6122298E-006  0.7918109E+02  0.7818608E-02  0.1347636E+00
          2   -1    0    0  502    0  0.00000000000E+00  0.00000000000E+00  0.56800040764E+03  0.56800040764E+03  0.00000000000E+00 0. -1.
          1   -1    0    0  501    0 -0.00000000000E+00 -0.00000000000E+00 -0.40440852176E+03  0.40440852176E+03  0.00000000000E+00 0. -1.
         25    2    1    2    0    0  0.75551905166E+02 -0.10285724436E+03 -0.96261527446E+02  0.20292544038E+03  0.12499899838E+03 0.  0.
          2    1    1    2  501    0 -0.66833263583E+02  0.34632296835E+02 -0.24688163438E+03  0.25810196144E+03  0.00000000000E+00 0. -1.
          1    1    1    2  502    0 -0.87186415832E+01  0.68224947521E+02  0.50673504771E+03  0.51138152758E+03  0.00000000000E+00 0. -1.
         22    1    3    3    0    0  0.29539845150E+02  0.25318348034E+02 -0.55582312119E+01  0.39300319756E+02  0.00000000000E+00 0.  1.
         22    1    3    3    0    0  0.46012060016E+02 -0.12817559239E+03 -0.90703296234E+02  0.16362512062E+03  0.00000000000E+00 0.  1.
</event>
<event>
 7    1  0.6122298E-006  0.2150386E+02  0.7818608E-02  0.1727233E+00
          2   -1    0    0  502    0  0.00000000000E+00  0.00000000000E+00  0.66115633470E+03  0.66115633470E+03  0.00000000000E+00 0. -1.
          1   -1    0    0  501    0 -0.00000000000E+00 -0.00000000000E+00 -0.21809091612E+02  0.21809091612E+02  0.00000000000E+00 0. -1.
         25    2    1    2    0    0 -0.20789811294E+02 -0.13795819158E+02  0.21441359992E+03  0.24944061334E+03  0.12499954749E+03 0.  0.
          2    1    1    2  501    0  0.18876249549E+02 -0.77185080670E+01  0.21945277218E+02  0.29958026570E+02  0.00000000000E+00 0. -1.
          1    1    1    2  502    0  0.19135617453E+01  0.21514327225E+02  0.40298836595E+03  0.40356678640E+03  0.00000000000E+00 0. -1.
         22    1    3    3    0    0 -0.29726128840E+02 -0.29612136869E+02  0.22468664578E+03  0.22857079905E+03  0.00000000000E+00 0.  1.
         22    1    3    3    0    0  0.89363175459E+01  0.15816317711E+02 -0.10273045862E+02  0.20869814290E+02  0.00000000000E+00 0.  1.
</event>
<event>
 7    1  0.6122298E-006  0.9241475E+02  0.7818608E-02  0.1336611E+00
          2   -1    0    0  502    0  0.00000000000E+00  0.00000000000E+00  0.27189240314E+03  0.27189240314E+03  0.00000000000E+00 0. -1.
          1   -1    0    0  501    0 -0.00000000000E+00 -0.00000000000E+00 -0.75971081437E+03  0.75971081437E+03  0.00000000000E+00 0. -1.
         25    2    1    2    0    0 -0.46956522259E+01  0.14025122424E+03 -0.74444896545E+02  0.20214626632E+03  0.12501446044E+03 0.  0.
          2    1    1    2  501    0  0.35392042163E+02 -0.83164822212E+02 -0.61297129926E+03  0.61959890092E+03  0.00000000000E+00 0. -1.
          1    1    1    2  502    0 -0.30696389937E+02 -0.57086402023E+02  0.19959778458E+03  0.20985805027E+03  0.00000000000E+00 0. -1.
         22    1    3    3    0    0  0.42914345391E+02  0.63274308918E+02  0.11520526489E+02  0.77317538372E+02  0.00000000000E+00 0.  1.
         22    1    3    3    0    0 -0.47609997616E+02  0.76976915318E+02 -0.85965423034E+02  0.12482872795E+03  0.00000000000E+00 0.  1.
</event>
<event>
 7    1  0.6122298E-006  0.6976104E+02  0.7818608E-02  0.1418275E+00
          2   -1    0    0  502    0  0.00000000000E+00  0.00000000000E+00  0.24639127469E+03  0.24639127469E+03  0.00000000000E+00 0. -1.
          1   -1    0    0  501    0 -0.00000000000E+00 -0.00000000000E+00 -0.12572151263E+04  0.12572151263E+04  0.00000000000E+00 0. -1.
         25    2    1    2    0    0  0.48621002199E+02  0.74001654022E+02  0.87964323384E+02  0.17664397977E+03  0.12500050699E+03 0.  0.
          2    1    1    2  501    0 -0.61885621115E+02 -0.32074348162E+02 -0.12075949733E+04  0.12096049824E+04  0.00000000000E+00 0. -1.
          1    1    1    2  502    0  0.13264618916E+02 -0.41927305860E+02  0.10880679830E+03  0.11735743883E+03  0.00000000000E+00 0. -1.
         22    1    3    3    0    0 -0.33338195696E+02  0.28732822922E+02  0.67855739707E+02  0.80878994903E+02  0.00000000000E+00 0.  1.
         22    1    3    3    0    0  0.81959197895E+02  0.45268831100E+02  0.20108583677E+02  0.95764984865E+02  0.00000000000E+00 0.  1.
</event>
<event>
 7    1  0.6122298E-006  0.5890048E+02  0.7818608E-02  0.1427085E+00
          2   -1    0    0  502    0  0.00000000000E+00  0.00000000000E+00  0.61699574824E+03  0.61699574824E+03  0.00000000000E+00 0. -1.
          1   -1    0    0  501    0 -0.00000000000E+00 -0.00000000000E+00 -0.27861948551E+02  0.27861948551E+02  0.00000000000E+00 0. -1.
         25    2    1    2    0    0 -0.92011235463E+01 -0.41569562165E+01  0.32413485514E+03  0.34754793906E+03  0.12499689865E+03 0.  0.
          2    1    1    2  501    0 -0.45737776698E+02 -0.37112293789E+02  0.75631251715E+02  0.95861112050E+02  0.00000000000E+00 0. -1.
          1    1    1    2  502    0  0.54938900244E+02  0.41269250005E+02  0.18936769283E+03  0.20144864568E+03  0.00000000000E+00 0. -1.
         22    1    3    3    0    0 -0.74648895663E+01 -0.59622217263E+02  0.10016314497E+03  0.11680406233E+03  0.00000000000E+00 0. -1.
         22    1    3    3    0    0 -0.17362339800E+01  0.55465261047E+02  0.22397171017E+03  0.23074387673E+03  0.00000000000E+00 0. -1.
</event>
<event>
 7    1  0.6122298E-006  0.7110541E+02  0.7818608E-02  0.1430586E+00
          2   -1    0    0  502    0  0.00000000000E+00  0.00000000000E+00  0.59364724403E+03  0.59364724403E+03  0.00000000000E+00 0. -1.
          1   -1    0    0  501    0 -0.00000000000E+00 -0.00000000000E+00 -0.84492509999E+03  0.84492509999E+03  0.00000000000E+00 0. -1.
         25    2    1    2    0    0 -0.88012577152E+02 -0.76038239146E+01  0.11483846028E+03  0.19135206347E+03  0.12499483333E+03 0.  0.
          2    1    1    2  501    0  0.66401722277E+02 -0.25185422142E+02 -0.80422528062E+03  0.80735481432E+03  0.00000000000E+00 0. -1.
          1    1    1    2  502    0  0.21610854875E+02  0.32789246057E+02  0.43810896438E+03  0.43986546622E+03  0.00000000000E+00 0. -1.
         22    1    3    3    0    0 -0.60743013621E+02 -0.61861360165E+02  0.92159853850E+02  0.12653055065E+03  0.00000000000E+00 0.  1.
         22    1    3    3    0    0 -0.27269563531E+02  0.54257536250E+02  0.22678606434E+02  0.64821512825E+02  0.00000000000E+00 0.  1.
</event>
<event>
 7    1  0.6122298E-006  0.1002121E+03  0.7818608E-02  0.1372991E+00
          2   -1    0    0  502    0  0.00000000000E+00  0.00000000000E+00  0.10798479251E+04  0.10798479251E+04  0.00000000000E+00 0. -1.
          1   -1    0    0  501    0 -0.00000000000E+00 -0.00000000000E+00 -0.63263938064E+03  0.63263938064E+03  0.00000000000E+00 0. -1.
         25    2    1    2    0    0 -0.20335534376E+02  0.60838358009E+02 -0.36640074572E+01  0.14054239348E+03  0.12499559853E+03 0.  0.
          2    1    1    2  501    0  0.67815142568E+01 -0.10261494592E+03 -0.55533627047E+03  0.56477800006E+03  0.00000000000E+00 0. -1.
          1    1    1    2  502    0  0.13554020119E+02  0.41776587910E+02  0.10062088224E+04  0.10071669122E+04  0.00000000000E+00 0. -1.
         22    1    3    3    0    0  0.38557044081E+02  0.21812942289E+02 -0.41237966385E+02  0.60522887994E+02  0.00000000000E+00 0. -1.
         22    1    3    3    0    0 -0.58892578457E+02  0.39025415720E+02  0.37573958928E+02  0.80019505490E+02  0.00000000000E+00 0. -1.
</event>
<event>
 7    1  0.6122298E-006  0.8564381E+02  0.7818608E-02  0.1496840E+00
          2   -1    0    0  502    0  0.00000000000E+00  0.00000000000E+00  0.13984871607E+04  0.13984871607E+04  0.00000000000E+00 0. -1.
          1   -1    0    0  501    0 -0.00000000000E+00 -0.00000000000E+00 -0.23816792977E+03  0.23816792977E+03  0.00000000000E+00 0. -1.
         25    2    1    2    0    0  0.65196217708E+02  0.49417501332E+02  0.71450895373E+03  0.72995929754E+03  0.12499957945E+03 0.  0.
          2    1    1    2  501    0 -0.91830955241E+01  0.17986283746E+02 -0.22715345681E+03  0.22804939944E+03  0.00000000000E+00 0. -1.
          1    1    1    2  502    0 -0.56013122184E+02 -0.67403785078E+02  0.67296373396E+03  0.67864639344E+03  0.00000000000E+00 0. -1.
         22    1    3    3    0    0  0.61423114472E+02 -0.28055516098E+02  0.42066797975E+03  0.42605335366E+03  0.00000000000E+00 0. -1.
         22    1    3    3    0    0  0.37731032363E+01  0.77473017430E+02  0.29384097398E+03  0.30390594388E+03  0.00000000000E+00 0. -1.
</event>
<event>
 7    1  0.6122298E-006  0.1558210E+03  0.7818608E-02  0.1318363E+00
          2   -1    0    0  502    0  0.00000000000E+00  0.00000000000E+00  0.13646864388E+04  0.13646864388E+04  0.00000000000E+00 0. -1.
          1   -1    0    0  501    0 -0.00000000000E+00 -0.00000000000E+00 -0.23286728227E+04  0.23286728227E+04  0.00000000000E+00 0. -1.
         25    2    1    2    0    0 -0.26467897193E+02 -0.16646884463E+03  0.14496074727E+03  0.25505160850E+03  0.12500111573E+03 0.  0.
          2    1    1    2  501    0 -0.37517823388E+02  0.25142429709E+02 -0.22682355221E+04  0.22686851065E+04  0.00000000000E+00 0. -1.
          1    1    1    2  502    0  0.63985720581E+02  0.14132641492E+03  0.11592883909E+04  0.11696225465E+04  0.00000000000E+00 0. -1.
         22    1    3    3    0    0 -0.50270992529E+02 -0.12974877982E+02  0.19777986996E+02  0.55557977988E+02  0.00000000000E+00 0. -1.
         22    1    3    3    0    0  0.23803095336E+02 -0.15349396664E+03  0.12518276027E+03  0.19949363051E+03  0.00000000000E+00 0. -1.
</event>
<event>
 7    1  0.6122298E-006  0.6924684E+02  0.7818608E-02  0.1428317E+00
          2   -1    0    0  502    0  0.00000000000E+00  0.00000000000E+00  0.14059559164E+04  0.14059559164E+04  0.00000000000E+00 0. -1.
          1   -1    0    0  501    0 -0.00000000000E+00 -0.00000000000E+00 -0.18470819680E+03  0.18470819680E+03  0.00000000000E+00 0. -1.
         25    2    1    2    0    0 -0.10161786894E+03  0.35561956519E+02  0.91141191864E+02  0.18847453307E+03  0.12500035489E+03 0.  0.
          2    1    1    2  501    0  0.61707674641E+02 -0.26065886151E+02 -0.12744057470E+03  0.14397349621E+03  0.00000000000E+00 0. -1.
          1    1    1    2  502    0  0.39910194301E+02 -0.94960703675E+01  0.12575471025E+04  0.12582160839E+04  0.00000000000E+00 0. -1.
         22    1    3    3    0    0 -0.31441487992E+02  0.27445016007E+02 -0.27792654236E+02  0.50142075150E+02  0.00000000000E+00 0. -1.
         22    1    3    3    0    0 -0.70176380950E+02  0.81169405114E+01  0.11893384610E+03  0.13833245792E+03  0.00000000000E+00 0. -1.
</event>
<event>
 7    1  0.6122298E-006  0.1437986E+03  0.7818608E-02  0.1299954E+00
          2   -1    0    0  502    0  0.00000000000E+00  0.00000000000E+00  0.24432777893E+03  0.24432777893E+03  0.00000000000E+00 0. -1.
          1   -1    0    0  501    0 -0.00000000000E+00 -0.00000000000E+00 -0.11182590400E+04  0.11182590400E+04  0.00000000000E+00 0. -1.
         25    2    1    2    0    0  0.12773091672E+03  0.53887825503E+01 -0.52716101710E+03  0.55665758378E+03  0.12499880624E+03 0.  0.
          2    1    1    2  501    0  0.75383196228E+01 -0.57357034703E+02 -0.55181986851E+03  0.55484396273E+03  0.00000000000E+00 0. -1.
          1    1    1    2  502    0 -0.13526923634E+03  0.51968252153E+02  0.20504962451E+03  0.25108527245E+03  0.00000000000E+00 0. -1.
         22    1    3    3    0    0  0.90175990466E+02 -0.55990246898E+02 -0.33789184400E+03  0.35417159012E+03  0.00000000000E+00 0. -1.
         22    1    3    3    0    0  0.37554926250E+02  0.61379029449E+02 -0.18926917310E+03  0.20248599366E+03  0.00000000000E+00 0. -1.
</event>
<event>
 7    1  0.6122298E-006  0.6286163E+02  0.7818608E-02  0.1509866E+00
          2   -1    0    0  502    0  0.00000000000E+00  0.00000000000E+00  0.27092493395E+04  0.27092493395E+04  0.00000000000E+00 0. -1.
          1   -1    0    0  501    0 -0.00000000000E+00 -0.00000000000E+00 -0.70678094636E+03  0.70678094636E+03  0.00000000000E+00 0. -1.
         25    2    1    2    0    0 -0.44190913259E+02  0.26061057056E+02  0.11875825253E+04  0.11952445308E+04  0.12500087367E+03 0.  0.
          2    1    1    2  501    0 -0.20361495270E+02 -0.14793975784E+02 -0.70201707757E+03  0.70246809850E+03  0.00000000000E+00 0. -1.
          1    1    1    2  502    0  0.64552408530E+02 -0.11267081272E+02  0.15169029454E+04  0.15183176566E+04  0.00000000000E+00 0. -1.
         22    1    3    3    0    0 -0.37982177800E+01  0.60889379691E+02  0.94023390542E+03  0.94221109096E+03  0.00000000000E+00 0.  1.
         22    1    3    3    0    0 -0.40392695479E+02 -0.34828322635E+02  0.24734861987E+03  0.25303343980E+03  0.00000000000E+00 0.  1.
</event>
<event>
 7    1  0.7725120E-006  0.1082110E+03  0.7818608E-02  0.1347578E+00
          2   -1    0    0  502    0  0.00000000000E+00  0.00000000000E+00  0.13440476045E+04  0.13440476045E+04  0.00000000000E+00 0. -1.
          1   -1    0    0  501    0 -0.00000000000E+00 -0.00000000000E+00 -0.29484802052E+04  0.29484802052E+04  0.00000000000E+00 0. -1.
         25    2    1    2    0    0 -0.91742174421E+02  0.46457551350E+02 -0.76103576175E+03  0.77805705022E+03  0.12498964795E+03 0.  0.
          2    1    1    2  501    0  0.65368887926E+02 -0.89351417834E+02 -0.21770521023E+04  0.21798652764E+04  0.00000000000E+00 0. -1.
          1    1    1    2  502    0  0.26373286496E+02  0.42893866483E+02  0.13336552634E+04  0.13346054831E+04  0.00000000000E+00 0. -1.
         22    1    3    3    0    0 -0.13985949332E+02  0.74883541142E+02 -0.29214972674E+03  0.30191822460E+03  0.00000000000E+00 0.  1.
         22    1    3    3    0    0 -0.77756225089E+02 -0.28425989792E+02 -0.46888603501E+03  0.47613882562E+03  0.00000000000E+00 0.  1.
</event>
<event>
 7    1  0.6122298E-006  0.3726803E+02  0.7818608E-02  0.1554738E+00
          2   -1    0    0  502    0  0.00000000000E+00  0.00000000000E+00  0.51859040047E+03  0.51859040047E+03  0.00000000000E+00 0. -1.
          1   -1    0    0  501    0 -0.00000000000E+00 -0.00000000000E+00 -0.17586903561E+04  0.17586903561E+04  0.00000000000E+00 0. -1.
         25    2    1    2    0    0  0.12802899168E+02 -0.39957405268E+02  0.55021251682E+02  0.14287580112E+03  0.12500259175E+03 0.  0.
          2    1    1    2  501    0 -0.33599878624E+02  0.16162764342E+02 -0.17139650731E+04  0.17143705721E+04  0.00000000000E+00 0. -1.
          1    1    1    2  502    0  0.20796979456E+02  0.23794640926E+02  0.41884386577E+03  0.42003438334E+03  0.00000000000E+00 0. -1.
         22    1    3    3    0    0  0.51197196826E+02 -0.66829864813E+02  0.27686789969E+02  0.88622469682E+02  0.00000000000E+00 0. -1.
         22    1    3    3    0    0 -0.38394297658E+02  0.26872459545E+02  0.27334461713E+02  0.54253331435E+02  0.00000000000E+00 0. -1.
</event>
<event>
 7    1  0.6122298E-006  0.4524459E+02  0.7818608E-02  0.1538348E+00
          2   -1    0    0  502    0  0.00000000000E+00  0.00000000000E+00  0.15234116748E+04  0.15234116748E+04  0.00000000000E+00 0. -1.
          1   -1    0    0  501    0 -0.00000000000E+00 -0.00000000000E+00 -0.21557444876E+02  0.21557444876E+02  0.00000000000E+00 0. -1.
         25    2    1    2    0    0 -0.65733246520E+02 -0.29794968177E+02  0.12995165883E+04  0.13075075737E+04  0.12499636898E+03 0.  0.
          2    1    1    2  501    0  0.37276302189E+02  0.24558837516E+02  0.13810255145E+02  0.46726677094E+02  0.00000000000E+00 0. -1.
          1    1    1    2  502    0  0.28456944331E+02  0.52361306605E+01  0.18852738646E+03  0.19073486883E+03  0.00000000000E+00 0. -1.
         22    1    3    3    0    0  0.69568812123E+01 -0.31119916193E+02  0.94875516375E+03  0.94929089753E+03  0.00000000000E+00 0.  1.
         22    1    3    3    0    0 -0.72690127732E+02  0.13249480164E+01  0.35076142457E+03  0.35821667622E+03  0.00000000000E+00 0.  1.
</event>
<event>
 7    1  0.6122298E-006  0.9297614E+02  0.7818608E-02  0.1359377E+00
          2   -1    0    0  502    0  0.00000000000E+00  0.00000000000E+00  0.76238368833E+03  0.76238368833E+03  0.00000000000E+00 0. -1.
          1   -1    0    0  501    0 -0.00000000000E+00 -0.00000000000E+00 -0.14404178089E+04  0.14404178089E+04  0.00000000000E+00 0. -1.
         25    2    1    2    0    0  0.11621777319E+03 -0.48538743715E+02  0.35715971865E+03  0.39881124827E+03  0.12499906670E+03 0.  0.
          2    1    1    2  501    0 -0.52140525031E+02 -0.96158585879E+01 -0.14142191289E+04  0.14152126496E+04  0.00000000000E+00 0. -1.
          1    1    1    2  502    0 -0.64077248154E+02  0.58154602303E+02  0.37902528970E+03  0.38877759932E+03  0.00000000000E+00 0. -1.
         22    1    3    3    0    0 -0.22524705682E+02  0.11135115132E+02  0.69695839814E+02  0.74086862819E+02  0.00000000000E+00 0.  1.
         22    1    3    3    0    0  0.13874247887E+03 -0.59673858846E+02  0.28746387884E+03  0.32472438545E+03  0.00000000000E+00 0.  1.
</event>
<event>
 7    1  0.6122298E-006  0.1254003E+03  0.7818608E-02  0.1261035E+00
          2   -1    0    0  502    0  0.00000000000E+00  0.00000000000E+00  0.17072802810E+04  0.17072802810E+04  0.00000000000E+00 0. -1.
          1   -1    0    0  501    0 -0.00000000000E+00 -0.00000000000E+00 -0.48083132365E+03  0.48083132365E+03  0.00000000000E+00 0. -1.
         25    2    1    2    0    0 -0.98243339761E+02  0.41158419677E+02  0.33316997272E+03  0.37146455697E+03  0.12505165752E+03 0.  0.
          2    1    1    2  501    0  0.48615673008E+02  0.82839549109E+02 -0.45334867768E+03  0.46341223345E+03  0.00000000000E+00 0. -1.
          1    1    1    2  502    0  0.49627666753E+02 -0.12399796879E+03  0.13466276623E+04  0.13532348143E+04  0.00000000000E+00 0. -1.
         22    1    3    3    0    0 -0.97359157546E+02  0.74695252598E+02  0.30070615896E+03  0.32478051104E+03  0.00000000000E+00 0. -1.
         22    1    3    3    0    0 -0.88418221546E+00 -0.33536832921E+02  0.32463813763E+02  0.46684045932E+02  0.00000000000E+00 0. -1.
</event>
<event>
 7    1  0.6122298E-006  0.5103467E+02  0.7818608E-02  0.1517302E+00
          2   -1    0    0  502    0  0.00000000000E+00  0.00000000000E+00  0.15092834477E+04  0.15092834477E+04  0.00000000000E+00 0. -1.
          1   -1    0    0  501    0 -0.00000000000E+00 -0.00000000000E+00 -0.30848426964E+04  0.30848426964E+04  0.00000000000E+00 0. -1.
         25    2    1    2    0    0  0.36639164903E+02 -0.24062095284E+02  0.17559078243E+03  0.21995365561E+03  0.12500429955E+03 0.  0.
          2    1    1    2  501    0 -0.51023505828E+02 -0.16757996042E+01 -0.30622827661E+04  0.30627082698E+04  0.00000000000E+00 0. -1.
          1    1    1    2  502    0  0.14384340925E+02  0.25737894888E+02  0.13111327349E+04  0.13114642188E+04  0.00000000000E+00 0. -1.
         22    1    3    3    0    0 -0.32339011788E+01  0.16899702683E+02 -0.13842455751E+02  0.22083288904E+02  0.00000000000E+00 0.  1.
         22    1    3    3    0    0  0.39873066082E+02 -0.40961797967E+02  0.18943323818E+03  0.19787036670E+03  0.00000000000E+00 0.  1.
</event>
<event>
 7    1  0.6122298E-006  0.7385274E+02  0.7818608E-02  0.1502341E+00
          2   -1    0    0  502    0  0.00000000000E+00  0.00000000000E+00  0.17487045058E+04  0.17487045058E+04  0.00000000000E+00 0. -1.
          1   -1    0    0  501    0 -0.00000000000E+00 -0.00000000000E+00 -0.23288430067E+03  0.23288430067E+03  0.00000000000E+00 0. -1.
         25    2    1    2    0    0 -0.69555247316E+02  0.47405013546E+02  0.44573535595E+03  0.47052040450E+03  0.12499710306E+03 0.  0.
          2    1    1    2  501    0  0.69435077984E+02 -0.24855374263E+02 -0.21422311215E+03  0.22656248909E+03  0.00000000000E+00 0. -1.
          1    1    1    2  502    0  0.12016933231E+00 -0.22549639283E+02  0.12843079613E+04  0.12845059129E+04  0.00000000000E+00 0. -1.
         22    1    3    3    0    0  0.32896229647E+02  0.10295004846E+02  0.18072031888E+03  0.18397821258E+03  0.00000000000E+00 0.  1.
         22    1    3    3    0    0 -0.10245147696E+03  0.37110008700E+02  0.26501503707E+03  0.28654219192E+03  0.00000000000E+00 0.  1.
</event>
<event>
 7    1  0.6122298E-006  0.7824061E+02  0.7818608E-02  0.1390811E+00
          2   -1    0    0  502    0  0.00000000000E+00  0.00000000000E+00  0.23589499922E+04  0.23589499922E+04  0.00000000000E+00 0. -1.
          1   -1    0    0  501    0 -0.00000000000E+00 -0.00000000000E+00 -0.66928295105E+02  0.66928295105E+02  0.00000000000E+00 0. -1.
         25    2    1    2    0    0 -0.60450959948E+02  0.65799029958E+02  0.18339328197E+03  0.23925047318E+03  0.12499544847E+03 0.  0.
          2    1    1    2  501    0  0.13161324931E+02 -0.77285726232E+02  0.96667277589E+00  0.78404326471E+02  0.00000000000E+00 0. -1.
          1    1    1    2  502    0  0.47289635017E+02  0.11486696274E+02  0.21076617424E+04  0.21082234877E+04  0.00000000000E+00 0. -1.
         22    1    3    3    0    0 -0.52668123322E+01 -0.18163055998E+02 -0.99427844774E+01  0.21365740766E+02  0.00000000000E+00 0.  1.
         22    1    3    3    0    0 -0.55184147616E+02  0.83962085956E+02  0.19333606645E+03  0.21788473241E+03  0.00000000000E+00 0.  1.
</event>
<event>
 7    1  0.6122298E-006  0.1075201E+03  0.7818608E-02  0.1309112E+00
          2   -1    0    0  502    0  0.00000000000E+00  0.00000000000E+00  0.49909809201E+03  0.49909809201E+03  0.00000000000E+00 0. -1.
          1   -1    0    0  501    0 -0.00000000000E+00 -0.00000000000E+00 -0.89957534407E+03  0.89957534407E+03  0.00000000000E+00 0. -1.
         25    2    1    2    0    0 -0.10889865267E+03  0.10712544653E+03  0.55707751654E+02  0.20509629913E+03  0.12500544178E+03 0.  0.
          2    1    1    2  501    0  0.70394521654E+02 -0.10332197382E+02 -0.81594394817E+03  0.81904009031E+03  0.00000000000E+00 0. -1.
          1    1    1    2  502    0  0.38504131018E+02 -0.96793249146E+02  0.35975894446E+03  0.37453704664E+03  0.00000000000E+00 0. -1.
         22    1    3    3    0    0 -0.66065820510E+02  0.12304384919E+03  0.92999851878E+01  0.13996775053E+03  0.00000000000E+00 0. -1.
         22    1    3    3    0    0 -0.42832832162E+02 -0.15918402667E+02  0.46407766467E+02  0.65128548601E+02  0.00000000000E+00 0. -1.
</event>
<event>
 7    1  0.6122298E-006  0.9416247E+02  0.7818608E-02  0.1330548E+00
          2   -1    0    0  502    0  0.00000000000E+00  0.00000000000E+00  0.39107577071E+03  0.39107577071E+03  0.00000000000E+00 0. -1.
          1   -1    0    0  501    0 -0.00000000000E+00 -0.00000000000E+00 -0.10493286940E+04  0.10493286940E+04  0.00000000000E+00 0. -1.
         25    2    1    2    0    0 -0.14560485696E+03  0.27541097025E+02  0.17304609965E+03  0.25986101450E+03  0.12499403128E+03 0.  0.
          2    1    1    2  501    0  0.66981821058E+02 -0.35982201837E+01 -0.99505845955E+03  0.99731682501E+03  0.00000000000E+00 0. -1.
          1    1    1    2  502    0  0.78623035900E+02 -0.23942876842E+02  0.16375943657E+03  0.18322662522E+03  0.00000000000E+00 0. -1.
         22    1    3    3    0    0 -0.16370101345E+03  0.84283775758E+01  0.16440202985E+03  0.23215746116E+03  0.00000000000E+00 0. -1.
         22    1    3    3    0    0  0.18096156496E+02  0.19112719450E+02  0.86440698041E+01  0.27703553337E+02  0.00000000000E+00 0. -1.
</event>
<event>
 7    1  0.6122298E-006  0.3009183E+03  0.7818608E-02  0.1253609E+00
          2   -1    0    0  502    0  0.00000000000E+00  0.00000000000E+00  0.35890169397E+03  0.35890169397E+03  0.00000000000E+00 0. -1.
          1   -1    0    0  501    0 -0.00000000000E+00 -0.00000000000E+00 -0.60347334254E+03  0.60347334254E+03  0.00000000000E+00 0. -1.
         25    2    1    2    0    0  0.27749816017E+03  0.42573293300E+01 -0.13642967641E+02  0.30468660251E+03  0.12499776570E+03 0.  0.
          2    1    1    2  501    0  0.41010107003E+02 -0.13164205666E+02 -0.32312679446E+03  0.32598473965E+03  0.00000000000E+00 0. -1.
          1    1    1    2  502    0 -0.31850826717E+03  0.89068763360E+01  0.92198113534E+02  0.33170369435E+03  0.00000000000E+00 0. -1.
         22    1    3    3    0    0  0.13275101359E+03  0.12561888179E+02 -0.68204531969E+02  0.14977480037E+03  0.00000000000E+00 0.  1.
         22    1    3    3    0    0  0.14474714658E+03 -0.83045588491E+01  0.54561564328E+02  0.15491180214E+03  0.00000000000E+00 0.  1.
</event>
<event>
 7    1  0.6122298E-006  0.1399047E+03  0.7818608E-02  0.1405406E+00
          2   -1    0    0  502    0  0.00000000000E+00  0.00000000000E+00  0.19472211255E+04  0.19472211255E+04  0.00000000000E+00 0. -1.
          1   -1    0    0  501    0 -0.00000000000E+00 -0.00000000000E+00 -0.86136928696E+02  0.86136928696E+02  0.00000000000E+00 0. -1.
         25    2    1    2    0    0  0.13332763025E+03  0.46307805167E+02  0.26155557956E+03  0.32242300755E+03  0.12499841916E+03 0.  0.
          2    1    1    2  501    0 -0.13818690011E+03 -0.22562450232E+02  0.32526002271E+02  0.14374499764E+03  0.00000000000E+00 0. -1.
          1    1    1    2  502    0  0.48592698578E+01 -0.23745354935E+02  0.15670026150E+04  0.15671900491E+04  0.00000000000E+00 0. -1.
         22    1    3    3    0    0  0.86653350895E+02  0.62528717698E+02  0.24970588301E+03  0.27160941031E+03  0.00000000000E+00 0.  1.
         22    1    3    3    0    0  0.46674279354E+02 -0.16220912530E+02  0.11849696553E+02  0.50813597245E+02  0.00000000000E+00 0.  1.
</event>
<event>
 7    1  0.6122298E-006  0.6355208E+02  0.7818608E-02  0.1499391E+00
          2   -1    0    0  502    0  0.00000000000E+00  0.00000000000E+00  0.68005961194E+02  0.68005961194E+02  0.00000000000E+00 0. -1.
          1   -1    0    0  501    0 -0.00000000000E+00 -0.00000000000E+00 -0.25598259431E+03  0.25598259431E+03  0.00000000000E+00 0. -1.
         25    2    1    2    0    0 -0.49593637238E+02 -0.29877771999E+02 -0.13407866587E+03  0.19223474161E+03  0.12499958851E+03 0.  0.
          2    1    1    2  501    0  0.12245646303E+02 -0.23772183535E+02 -0.60406742924E+02  0.66060935159E+02  0.00000000000E+00 0. -1.
          1    1    1    2  502    0  0.37347990935E+02  0.53649955533E+02  0.65087756765E+01  0.65692878734E+02  0.00000000000E+00 0. -1.
         22    1    3    3    0    0 -0.88972276599E+02 -0.13010649832E+01 -0.90493096212E+02  0.12691240773E+03  0.00000000000E+00 0. -1.
         22    1    3    3    0    0  0.39378639361E+02 -0.28576707015E+02 -0.43585569660E+02  0.65322333886E+02  0.00000000000E+00 0. -1.
</event>
<event>
 7    1  0.6122298E-006  0.1184064E+03  0.7818608E-02  0.1270457E+00
          2   -1    0    0  502    0  0.00000000000E+00  0.00000000000E+00  0.12929503818E+04  0.12929503818E+04  0.00000000000E+00 0. -1.
          1   -1    0    0  501    0 -0.00000000000E+00 -0.00000000000E+00 -0.26032424231E+04  0.26032424231E+04  0.00000000000E+00 0. -1.
         25    2    1    2    0    0 -0.22555593770E+02  0.22684266277E+02  0.78562774830E+02  0.15106149169E+03  0.12499653569E+03 0.  0.
          2    1    1    2  501    0  0.11474577330E+03 -0.33379559487E+02 -0.25637713412E+04  0.25665549434E+04  0.00000000000E+00 0. -1.
          1    1    1    2  502    0 -0.92190179533E+02  0.10695293211E+02  0.11749165251E+04  0.11785763698E+04  0.00000000000E+00 0. -1.
         22    1    3    3    0    0  0.46650227269E+02  0.10065167580E+02  0.29940695717E+01  0.47817525608E+02  0.00000000000E+00 0. -1.
         22    1    3    3    0    0 -0.69205821039E+02  0.12619098697E+02  0.75568705258E+02  0.10324396608E+03  0.00000000000E+00 0. -1.
</event>
<event>
 7    1  0.6122298E-006  0.8854138E+02  0.7818608E-02  0.1314415E+00
          2   -1    0    0  502    0  0.00000000000E+00  0.00000000000E+00  0.15122371617E+04  0.15122371617E+04  0.00000000000E+00 0. -1.
          1   -1    0    0  501    0 -0.00000000000E+00 -0.00000000000E+00 -0.56403425183E+02  0.56403425183E+02  0.00000000000E+00 0. -1.
         25    2    1    2    0    0 -0.40223635497E+01  0.28948623701E+02  0.29668714855E+03  0.32326925442E+03  0.12500217804E+03 0.  0.
          2    1    1    2  501    0  0.66687520596E+02  0.48317477060E+02  0.39056627629E+00  0.82352635262E+02  0.00000000000E+00 0. -1.
          1    1    1    2  502    0 -0.62665157046E+02 -0.77266100761E+02  0.11587560217E+04  0.11630186972E+04  0.00000000000E+00 0. -1.
         22    1    3    3    0    0  0.23675202196E+02  0.64088164006E+02  0.24758665185E+03  0.25684033589E+03  0.00000000000E+00 0.  1.
         22    1    3    3    0    0 -0.27697565746E+02 -0.35139540304E+02  0.49100496696E+02  0.66428918528E+02  0.00000000000E+00 0.  1.
</event>
<event>
 7    1  0.6122298E-006  0.4420279E+02  0.7818608E-02  0.1560446E+00
          2   -1    0    0  502    0  0.00000000000E+00  0.00000000000E+00  0.25579264352E+04  0.25579264352E+04  0.00000000000E+00 0. -1.
          1   -1    0    0  501    0 -0.00000000000E+00 -0.00000000000E+00 -0.38989507922E+03  0.38989507922E+03  0.00000000000E+00 0. -1.
         25    2    1    2    0    0 -0.24250730373E+02  0.58355075000E+02 -0.21343430478E+03  0.25528864320E+03  0.12499870476E+03 0.  0.
          2    1    1    2  501    0  0.21375278426E+02 -0.14258763084E+02 -0.15427857274E+03  0.15640362163E+03  0.00000000000E+00 0. -1.
          1    1    1    2  502    0  0.28754519473E+01 -0.44096311916E+02  0.25357442335E+04  0.25361292496E+04  0.00000000000E+00 0. -1.
         22    1    3    3    0    0 -0.41268905532E+02 -0.27048544989E+02 -0.10654686084E+03  0.11741797096E+03  0.00000000000E+00 0.  1.
         22    1    3    3    0    0  0.17018175159E+02  0.85403619990E+02 -0.10688744394E+03  0.13787067225E+03  0.00000000000E+00 0.  1.
</event>
<event>
 7    1  0.6122298E-006  0.4492326E+02  0.7818608E-02  0.1513398E+00
          2   -1    0    0  502    0  0.00000000000E+00  0.00000000000E+00  0.49610995997E+03  0.49610995997E+03  0.00000000000E+00 0. -1.
          1   -1    0    0  501    0 -0.00000000000E+00 -0.00000000000E+00 -0.55470595445E+03  0.55470595445E+03  0.00000000000E+00 0. -1.
         25    2    1    2    0    0 -0.31885653161E+02 -0.18012331639E+02 -0.16725317150E+03  0.21199230094E+03  0.12500389319E+03 0.  0.
          2    1    1    2  501    0  0.43977760485E+02 -0.14178844657E+02 -0.36299270133E+03  0.36592182808E+03  0.00000000000E+00 0. -1.
          1    1    1    2  502    0 -0.12092107324E+02  0.32191176296E+02  0.47164987835E+03  0.47290178540E+03  0.00000000000E+00 0. -1.
         22    1    3    3    0    0 -0.58991883787E+02 -0.47907602499E+02 -0.14990391813E+03  0.16806655051E+03  0.00000000000E+00 0.  1.
         22    1    3    3    0    0  0.27106230626E+02  0.29895270860E+02 -0.17349253378E+02  0.43925750436E+02  0.00000000000E+00 0.  1.
</event>
<event>
 7    1  0.6122298E-006  0.1933924E+03  0.7818608E-02  0.1217852E+00
          2   -1    0    0  502    0  0.00000000000E+00  0.00000000000E+00  0.96777281557E+03  0.96777281557E+03  0.00000000000E+00 0. -1.
          1   -1    0    0  501    0 -0.00000000000E+00 -0.00000000000E+00 -0.19805816142E+03  0.19805816142E+03  0.00000000000E+00 0. -1.
         25    2    1    2    0    0  0.13349099412E+03  0.13449662471E+02  0.13429107074E+03  0.22728774226E+03  0.12499954867E+03 0.  0.
          2    1    1    2  501    0 -0.20958353446E+03 -0.72982421988E+02 -0.65186700675E+02  0.23130282700E+03  0.00000000000E+00 0. -1.
          1    1    1    2  502    0  0.76092540336E+02  0.59532759517E+02  0.70061028409E+03  0.70724040773E+03  0.00000000000E+00 0. -1.
         22    1    3    3    0    0  0.37510667813E+02 -0.22081849938E+02  0.11523624778E+03  0.12318299842E+03  0.00000000000E+00 0. -1.
         22    1    3    3    0    0  0.95980326307E+02  0.35531512409E+02  0.19054822960E+02  0.10410474384E+03  0.00000000000E+00 0. -1.
</event>
<event>
 7    1  0.6122298E-006  0.7331827E+02  0.7818608E-02  0.1488850E+00
          2   -1    0    0  502    0  0.00000000000E+00  0.00000000000E+00  0.75657270813E+03  0.75657270813E+03  0.00000000000E+00 0. -1.
          1   -1    0    0  501    0 -0.00000000000E+00 -0.00000000000E+00 -0.93845926872E+03  0.93845926872E+03  0.00000000000E+00 0. -1.
         25    2    1    2    0    0  0.70926284015E+02 -0.51499691783E+02 -0.43994387076E+03  0.46567543185E+03  0.12498096814E+03 0.  0.
          2    1    1    2  501    0 -0.65400625546E+02  0.27185011678E+02 -0.48285652832E+03  0.48802325111E+03  0.00000000000E+00 0. -1.
          1    1    1    2  502    0 -0.55256584686E+01  0.24314680105E+02  0.74091383848E+03  0.74133329389E+03  0.00000000000E+00 0. -1.
         22    1    3    3    0    0  0.61130778617E+02  0.16749812660E+02 -0.97026268113E+02  0.11589488782E+03  0.00000000000E+00 0.  1.
         22    1    3    3    0    0  0.97955053983E+01 -0.68249504443E+02 -0.34291760265E+03  0.34978054404E+03  0.00000000000E+00 0.  1.
</event>
<event>
 7    1  0.6122298E-006  0.1227980E+03  0.7818608E-02  0.1447382E+00
          2   -1    0    0  502    0  0.00000000000E+00  0.00000000000E+00  0.13069029229E+03  0.13069029229E+03  0.00000000000E+00 0. -1.
          1   -1    0    0  501    0 -0.00000000000E+00 -0.00000000000E+00 -0.76997202305E+03  0.76997202305E+03  0.00000000000E+00 0. -1.
         25    2    1    2    0    0 -0.44659784873E+02  0.10525998755E+03 -0.42473444896E+02  0.17466459569E+03  0.12501826308E+03 0.  0.
          2    1    1    2  501    0  0.30793478311E+02 -0.11974666643E+03 -0.65389985582E+03  0.66548668196E+03  0.00000000000E+00 0. -1.
          1    1    1    2  502    0  0.13866306561E+02  0.14486678879E+02  0.57091569949E+02  0.60511037686E+02  0.00000000000E+00 0. -1.
         22    1    3    3    0    0 -0.59752431274E+02  0.85729111659E+02 -0.78706860907E+02  0.13082279458E+03  0.00000000000E+00 0. -1.
         22    1    3    3    0    0  0.15092646402E+02  0.19530875894E+02  0.36233416011E+02  0.43841801108E+02  0.00000000000E+00 0. -1.
</event>
<event>
 7    1  0.6122298E-006  0.2186482E+03  0.7818608E-02  0.1327325E+00
          2   -1    0    0  502    0  0.00000000000E+00  0.00000000000E+00  0.24933008785E+03  0.24933008785E+03  0.00000000000E+00 0. -1.
          1   -1    0    0  501    0 -0.00000000000E+00 -0.00000000000E+00 -0.15306036842E+04  0.15306036842E+04  0.00000000000E+00 0. -1.
         25    2    1    2    0    0 -0.22013738227E+03 -0.32976488964E+02 -0.84105367299E+03  0.87894703513E+03  0.12501477443E+03 0.  0.
          2    1    1    2  501    0  0.16394223424E+01  0.29674600949E+02 -0.61834777646E+03  0.61906158200E+03  0.00000000000E+00 0. -1.
          1    1    1    2  502    0  0.21849795993E+03  0.33018880152E+01  0.17812785306E+03  0.28192515495E+03  0.00000000000E+00 0. -1.
         22    1    3    3    0    0 -0.23367239548E+03 -0.41245848038E+02 -0.81052123592E+03  0.84454051547E+03  0.00000000000E+00 0.  1.
         22    1    3    3    0    0  0.13535013211E+02  0.82693590742E+01 -0.30532437065E+02  0.34406519662E+02  0.00000000000E+00 0.  1.
</event>
<event>
 7    1  0.6122298E-006  0.1349226E+03  0.7818608E-02  0.1262209E+00
          2   -1    0    0  502    0  0.00000000000E+00  0.00000000000E+00  0.30547001744E+04  0.30547001744E+04  0.00000000000E+00 0. -1.
          1   -1    0    0  501    0 -0.00000000000E+00 -0.00000000000E+00 -0.18067798333E+03  0.18067798333E+03  0.00000000000E+00 0. -1.
         25    2    1    2    0    0  0.12223818954E+03  0.27813687973E+02  0.11880376083E+03  0.21320573753E+03  0.12500630668E+03 0.  0.
          2    1    1    2  501    0 -0.19749249391E+00 -0.88250726797E+02 -0.11709796184E+03  0.14662933694E+03  0.00000000000E+00 0. -1.
          1    1    1    2  502    0 -0.12204069704E+03  0.60437038824E+02  0.28723163921E+04  0.28755430832E+04  0.00000000000E+00 0. -1.
         22    1    3    3    0    0  0.10155270981E+03  0.64267186547E+02  0.12189651656E+03  0.17117822550E+03  0.00000000000E+00 0. -1.
         22    1    3    3    0    0  0.20685479731E+02 -0.36453498574E+02 -0.30927557278E+01  0.42027512036E+02  0.00000000000E+00 0. -1.
</event>
<event>
 7    1  0.6122298E-006  0.4759683E+02  0.7818608E-02  0.1509721E+00
          2   -1    0    0  502    0  0.00000000000E+00  0.00000000000E+00  0.25228693003E+04  0.25228693003E+04  0.00000000000E+00 0. -1.
          1   -1    0    0  501    0 -0.00000000000E+00 -0.00000000000E+00 -0.18478865163E+03  0.18478865163E+03  0.00000000000E+00 0. -1.
         25    2    1    2    0    0 -0.14505519690E+02 -0.10616468573E+02 -0.29337848453E+02  0.12964771978E+03  0.12499880954E+03 0.  0.
          2    1    1    2  501    0 -0.50211526732E+01 -0.32892010150E+02 -0.10243138918E+03  0.10769998048E+03  0.00000000000E+00 0. -1.
          1    1    1    2  502    0  0.19526672363E+02  0.43508478723E+02  0.24698498863E+04  0.24703102517E+04  0.00000000000E+00 0. -1.
         22    1    3    3    0    0  0.28449533300E+02  0.43774060887E+02  0.47293479157E+01  0.52420521585E+02  0.00000000000E+00 0.  1.
         22    1    3    3    0    0 -0.42955052990E+02 -0.54390529461E+02 -0.34067196369E+02  0.77227198194E+02  0.00000000000E+00 0.  1.
</event>
<event>
 7    1  0.6122298E-006  0.9359942E+02  0.7818608E-02  0.1377653E+00
          2   -1    0    0  502    0  0.00000000000E+00  0.00000000000E+00  0.54522190690E+03  0.54522190690E+03  0.00000000000E+00 0. -1.
          1   -1    0    0  501    0 -0.00000000000E+00 -0.00000000000E+00 -0.46791466494E+03  0.46791466494E+03  0.00000000000E+00 0. -1.
         25    2    1    2    0    0  0.10165084167E+03  0.91770678734E+02  0.23798903213E+03  0.30169334856E+03  0.12500138424E+03 0.  0.
          2    1    1    2  501    0 -0.74136966961E+02 -0.55837513528E+02 -0.42920885141E+03  0.43912908799E+03  0.00000000000E+00 0. -1.
          1    1    1    2  502    0 -0.27513874705E+02 -0.35933165206E+02  0.26852706124E+03  0.27231413530E+03  0.00000000000E+00 0. -1.
         22    1    3    3    0    0  0.64985916326E+02 -0.18742482768E+02  0.10541559536E+03  0.12524734619E+03  0.00000000000E+00 0. -1.
         22    1    3    3    0    0  0.36664925341E+02  0.11051316150E+03  0.13257343677E+03  0.17644600237E+03  0.00000000000E+00 0. -1.
</event>
<event>
 7    1  0.6122298E-006  0.9021506E+02  0.7818608E-02  0.1380469E+00
          2   -1    0    0  502    0  0.00000000000E+00  0.00000000000E+00  0.92704836032E+03  0.92704836032E+03  0.00000000000E+00 0. -1.
          1   -1    0    0  501    0 -0.00000000000E+00 -0.00000000000E+00 -0.60584689707E+03  0.60584689707E+03  0.00000000000E+00 0. -1.
         25    2    1    2    0    0  0.13944259438E+02 -0.11590573445E+03  0.26770967338E+03  0.31768126260E+03  0.12499733493E+03 0.  0.
          2    1    1    2  501    0 -0.41994331807E+02  0.79590081932E+02 -0.57653627411E+03  0.58351707808E+03  0.00000000000E+00 0. -1.
          1    1    1    2  502    0  0.28050072370E+02  0.36315652521E+02  0.63002806398E+03  0.63169691671E+03  0.00000000000E+00 0. -1.
         22    1    3    3    0    0  0.18332107043E+02  0.15385830565E+02  0.57273265338E+01  0.24608782986E+02  0.00000000000E+00 0. -1.
         22    1    3    3    0    0 -0.43878476053E+01 -0.13129156502E+03  0.26198234684E+03  0.29307247962E+03  0.00000000000E+00 0. -1.
</event>
<event>
 7    1  0.6122298E-006  0.1760694E+03  0.7818608E-02  0.1276415E+00
          2   -1    0    0  502    0  0.00000000000E+00  0.00000000000E+00  0.21085715099E+04  0.21085715099E+04  0.00000000000E+00 0. -1.
          1   -1    0    0  501    0 -0.00000000000E+00 -0.00000000000E+00 -0.33527427195E+03  0.33527427195E+03  0.00000000000E+00 0. -1.
         25    2    1    2    0    0  0.18953299935E+03 -0.89546079262E+02  0.12152280972E+03  0.27264333838E+03  0.12500135409E+03 0.  0.
          2    1    1    2  501    0 -0.13362964036E+03  0.10821480469E+03 -0.23074075042E+03  0.28776486693E+03  0.00000000000E+00 0. -1.
          1    1    1    2  502    0 -0.55903358989E+02 -0.18668725428E+02  0.18825151787E+04  0.18834375766E+04  0.00000000000E+00 0. -1.
         22    1    3    3    0    0  0.16730644898E+03 -0.25281935420E+02  0.56050608538E+02  0.17824784668E+03  0.00000000000E+00 0. -1.
         22    1    3    3    0    0  0.22226550373E+02 -0.64264143841E+02  0.65472201178E+02  0.94395491694E+02  0.00000000000E+00 0. -1.
</event>
<event>
 7    1  0.6122298E-006  0.7882048E+02  0.7818608E-02  0.1508264E+00
          2   -1    0    0  502    0  0.00000000000E+00  0.00000000000E+00  0.10663981125E+03  0.10663981125E+03  0.00000000000E+00 0. -1.
          1   -1    0    0  501    0 -0.00000000000E+00 -0.00000000000E+00 -0.75972894129E+03  0.75972894129E+03  0.00000000000E+00 0. -1.
         25    2    1    2    0    0  0.59537286063E+02  0.27560875046E+02 -0.71167610490E+02  0.15809204089E+03  0.12499589732E+03 0.  0.
          2    1    1    2  501    0  0.19521933527E+02 -0.55371778498E+01 -0.61820957242E+03  0.61854251403E+03  0.00000000000E+00 0. -1.
          1    1    1    2  502    0 -0.79059219590E+02 -0.22023697196E+02  0.36288052875E+02  0.89734197616E+02  0.00000000000E+00 0. -1.
         22    1    3    3    0    0  0.88046593014E+01 -0.46149007996E+02 -0.59301664050E+01  0.47354195569E+02  0.00000000000E+00 0.  1.
         22    1    3    3    0    0  0.50732626761E+02  0.73709883042E+02 -0.65237444085E+02  0.11073784532E+03  0.00000000000E+00 0.  1.
</event>
<event>
 7    1  0.6122298E-006  0.3952125E+02  0.7818608E-02  0.1603056E+00
          2   -1    0    0  502    0  0.00000000000E+00  0.00000000000E+00  0.84851645832E+03  0.84851645832E+03  0.00000000000E+00 0. -1.
          1   -1    0    0  501    0 -0.00000000000E+00 -0.00000000000E+00 -0.46727582779E+02  0.46727582779E+02  0.00000000000E+00 0. -1.
         25    2    1    2    0    0  0.13154750101E+02  0.53937824656E+02  0.21602524817E+03  0.25568355984E+03  0.12499935418E+03 0.  0.
          2    1    1    2  501    0  0.27749623132E+01 -0.38615803885E+02 -0.12657006234E+02  0.40731812289E+02  0.00000000000E+00 0. -1.
          1    1    1    2  502    0 -0.15929712414E+02 -0.15322020771E+02  0.59842063361E+03  0.59882866898E+03  0.00000000000E+00 0. -1.
         22    1    3    3    0    0  0.51233924573E+02  0.72084500479E+02  0.10721147270E+03  0.13897981909E+03  0.00000000000E+00 0.  1.
         22    1    3    3    0    0 -0.38079174472E+02 -0.18146675823E+02  0.10881377547E+03  0.11670374075E+03  0.00000000000E+00 0.  1.
</event>
<event>
 7    1  0.6122298E-006  0.6596015E+02  0.7818608E-02  0.1412849E+00
          2   -1    0    0  502    0  0.00000000000E+00  0.00000000000E+00  0.27975417879E+04  0.27975417879E+04  0.00000000000E+00 0. -1.
          1   -1    0    0  501    0 -0.00000000000E+00 -0.00000000000E+00 -0.12129686438E+02  0.12129686438E+02  0.00000000000E+00 0. -1.
         25    2    1    2    0    0 -0.39028948988E+02  0.64233366271E+02  0.81214796092E+03  0.82514120664E+03  0.12499806506E+03 0.  0.
          2    1    1    2  501    0  0.48476596436E+02  0.16447014572E+01  0.11169849023E+03  0.12177535943E+03  0.00000000000E+00 0. -1.
          1    1    1    2  502    0 -0.94476474473E+01 -0.65878067728E+02  0.18615656503E+04  0.18627549083E+04  0.00000000000E+00 0. -1.
         22    1    3    3    0    0  0.35664332157E+02  0.74196533864E+01  0.92735407629E+02  0.99633587072E+02  0.00000000000E+00 0. -1.
         22    1    3    3    0    0 -0.74693281146E+02  0.56813712884E+02  0.71941255329E+03  0.72550761957E+03  0.00000000000E+00 0. -1.
</event>
<event>
 7    1  0.6122298E-006  0.8138371E+02  0.7818608E-02  0.1447855E+00
          2   -1    0    0  502    0  0.00000000000E+00  0.00000000000E+00  0.40053035742E+03  0.40053035742E+03  0.00000000000E+00 0. -1.
          1   -1    0    0  501    0 -0.00000000000E+00 -0.00000000000E+00 -0.11714145245E+04  0.11714145245E+04  0.00000000000E+00 0. -1.
         25    2    1    2    0    0  0.29115550367E+02  0.73184297996E+02  0.12574917995E+03  0.19401278783E+03  0.12499779533E+03 0.  0.
          2    1    1    2  501    0 -0.28553155816E+02  0.96897191691E+01 -0.11299403360E+04  0.11303425747E+04  0.00000000000E+00 0. -1.
          1    1    1    2  502    0 -0.56239455126E+00 -0.82874017165E+02  0.23330698895E+03  0.24758951937E+03  0.00000000000E+00 0. -1.
         22    1    3    3    0    0  0.31390434385E+02  0.21286977966E+02 -0.17400863273E+02  0.41728705281E+02  0.00000000000E+00 0. -1.
         22    1    3    3    0    0 -0.22748840175E+01  0.51897320030E+02  0.14315004322E+03  0.15228408255E+03  0.00000000000E+00 0. -1.
</event>
<event>
 7    1  0.6122298E-006  0.1798065E+03  0.7818608E-02  0.1276296E+00
          2   -1    0    0  502    0  0.00000000000E+00  0.00000000000E+00  0.13092414110E+04  0.13092414110E+04  0.00000000000E+00 0. -1.
          1   -1    0    0  501    0 -0.00000000000E+00 -0.00000000000E+00 -0.92391967052E+02  0.92391967052E+02  0.00000000000E+00 0. -1.
         25    2    1    2    0    0 -0.15415730598E+03  0.38630728101E+02  0.21057904637E+03  0.29193720466E+03  0.12500795396E+03 0.  0.
          2    1    1    2  501    0  0.17513047550E+03 -0.92468781143E+02  0.14246840080E+03  0.24396394029E+03  0.00000000000E+00 0. -1.
          1    1    1    2  502    0 -0.20973169515E+02  0.53838053042E+02  0.86380199674E+03  0.86573223306E+03  0.00000000000E+00 0. -1.
         22    1    3    3    0    0 -0.84438016206E+02 -0.37506200857E+02  0.13667718915E+03  0.16497620349E+03  0.00000000000E+00 0. -1.
         22    1    3    3    0    0 -0.69719289778E+02  0.76136928957E+02  0.73901857220E+02  0.12696100117E+03  0.00000000000E+00 0. -1.
</event>
<event>
 7    1  0.6122298E-006  0.1040023E+03  0.7818608E-02  0.1289288E+00
          2   -1    0    0  502    0  0.00000000000E+00  0.00000000000E+00  0.58338876336E+02  0.58338876336E+02  0.00000000000E+00 0. -1.
          1   -1    0    0  501    0 -0.00000000000E+00 -0.00000000000E+00 -0.25942213893E+04  0.25942213893E+04  0.00000000000E+00 0. -1.
         25    2    1    2    0    0 -0.25177469000E+01  0.23775389268E+02 -0.60895642180E+03  0.62211411850E+03  0.12500577829E+03 0.  0.
          2    1    1    2  501    0 -0.20870373564E+02  0.85823408842E+02 -0.19157930577E+04  0.19178280084E+04  0.00000000000E+00 0. -1.
          1    1    1    2  502    0  0.23388120464E+02 -0.10959879811E+03 -0.11133033445E+02  0.11261813868E+03  0.00000000000E+00 0. -1.
         22    1    3    3    0    0  0.48986990726E+02  0.12368821951E+02 -0.11840035665E+03  0.12872978471E+03  0.00000000000E+00 0. -1.
         22    1    3    3    0    0 -0.51504737626E+02  0.11406567318E+02 -0.49055606516E+03  0.49338433380E+03  0.00000000000E+00 0. -1.
</event>
<event>
 7    1  0.6122298E-006  0.8914951E+02  0.7818608E-02  0.1405125E+00
          2   -1    0    0  502    0  0.00000000000E+00  0.00000000000E+00  0.20073226206E+04  0.20073226206E+04  0.00000000000E+00 0. -1.
          1   -1    0    0  501    0 -0.00000000000E+00 -0.00000000000E+00 -0.10348049159E+03  0.10348049159E+03  0.00000000000E+00 0. -1.
         25    2    1    2    0    0 -0.15553110984E+02 -0.97093644533E+02  0.53123286913E+03  0.55452913354E+03  0.12500049455E+03 0.  0.
          2    1    1    2  501    0  0.47058257681E+02  0.75632177221E+02 -0.69920105801E+02  0.11324101308E+03  0.00000000000E+00 0. -1.
          1    1    1    2  502    0 -0.31505146697E+02  0.21461467312E+02  0.14425293657E+04  0.14430329656E+04  0.00000000000E+00 0. -1.
         22    1    3    3    0    0  0.25612163478E+02  0.16070073183E+02  0.19612865073E+03  0.19844565455E+03  0.00000000000E+00 0.  1.
         22    1    3    3    0    0 -0.41165274462E+02 -0.11316371772E+03  0.33510421839E+03  0.35608347900E+03  0.00000000000E+00 0.  1.
</event>
<event>
 7    1  0.6122298E-006  0.6744253E+02  0.7818608E-02  0.1404191E+00
          2   -1    0    0  502    0  0.00000000000E+00  0.00000000000E+00  0.13856620525E+04  0.13856620525E+04  0.00000000000E+00 0. -1.
          1   -1    0    0  501    0 -0.00000000000E+00 -0.00000000000E+00 -0.24220451521E+03  0.24220451521E+03  0.00000000000E+00 0. -1.
         25    2    1    2    0    0 -0.23402144713E+02  0.40611720796E+02  0.87605660740E+01  0.13378587468E+03  0.12499976201E+03 0.  0.
          2    1    1    2  501    0  0.68584032850E+02 -0.17474920640E+02 -0.17221090950E+03  0.18618737811E+03  0.00000000000E+00 0. -1.
          1    1    1    2  502    0 -0.45181888136E+02 -0.23136800157E+02  0.13069078807E+04  0.13078933149E+04  0.00000000000E+00 0. -1.
         22    1    3    3    0    0  0.39308872436E+02  0.11385112232E+02 -0.33348859418E+02  0.52791615407E+02  0.00000000000E+00 0. -1.
         22    1    3    3    0    0 -0.62711017149E+02  0.29226608564E+02  0.42109425492E+02  0.80994259274E+02  0.00000000000E+00 0. -1.
</event>
<event>
 7    1  0.6122298E-006  0.7244600E+02  0.7818608E-02  0.1472219E+00
          2   -1    0    0  502    0  0.00000000000E+00  0.00000000000E+00  0.53393005507E+03  0.53393005507E+03  0.00000000000E+00 0. -1.
          1   -1    0    0  501    0 -0.00000000000E+00 -0.00000000000E+00 -0.61841389238E+02  0.61841389238E+02  0.00000000000E+00 0. -1.
         25    2    1    2    0    0 -0.96275555704E+02  0.88311514410E+01  0.24475412230E+03  0.29133374072E+03  0.12499518487E+03 0.  0.
          2    1    1    2  501    0  0.69589583003E+02  0.82150829050E+00 -0.55641286899E+01  0.69816505688E+02  0.00000000000E+00 0. -1.
          1    1    1    2  502    0  0.26685972701E+02 -0.96526597315E+01  0.23289867223E+03  0.23462119790E+03  0.00000000000E+00 0. -1.
         22    1    3    3    0    0 -0.87312897648E+02  0.58386075452E+02  0.18883297598E+03  0.21607954258E+03  0.00000000000E+00 0. -1.
         22    1    3    3    0    0 -0.89626580560E+01 -0.49554924011E+02  0.55921146317E+02  0.75254198146E+02  0.00000000000E+00 0. -1.
</event>
<event>
 7    1  0.6122298E-006  0.8307840E+02  0.7818608E-02  0.1360098E+00
          2   -1    0    0  502    0  0.00000000000E+00  0.00000000000E+00  0.25454981878E+03  0.25454981878E+03  0.00000000000E+00 0. -1.
          1   -1    0    0  501    0 -0.00000000000E+00 -0.00000000000E+00 -0.63894670647E+03  0.63894670647E+03  0.00000000000E+00 0. -1.
         25    2    1    2    0    0  0.78913219772E+02  0.94279919189E+02 -0.86436083368E+02  0.19547556360E+03  0.12499400002E+03 0.  0.
          2    1    1    2  501    0 -0.58110489097E+01 -0.58691229825E+02 -0.48787905417E+03  0.49143097200E+03  0.00000000000E+00 0. -1.
          1    1    1    2  502    0 -0.73102170862E+02 -0.35588689364E+02  0.18991824985E+03  0.20658998964E+03  0.00000000000E+00 0. -1.
         22    1    3    3    0    0 -0.18838417007E+02 -0.15875909286E+02  0.14529592017E+00  0.24636386949E+02  0.00000000000E+00 0. -1.
         22    1    3    3    0    0  0.97751636779E+02  0.11015582848E+03 -0.86581379288E+02  0.17083917665E+03  0.00000000000E+00 0. -1.
</event>
<event>
 7    1  0.6122298E-006  0.3456995E+03  0.7818608E-02  0.1195389E+00
          2   -1    0    0  502    0  0.00000000000E+00  0.00000000000E+00  0.16766560984E+04  0.16766560984E+04  0.00000000000E+00 0. -1.
          1   -1    0    0  501    0 -0.00000000000E+00 -0.00000000000E+00 -0.82575408964E+03  0.82575408964E+03  0.00000000000E+00 0. -1.
         25    2    1    2    0    0 -0.43547328380E+02  0.27993883954E+03  0.47842123637E+03  0.56988941810E+03  0.12499978305E+03 0.  0.
          2    1    1    2  501    0  0.37172506976E+02 -0.34843642314E+03 -0.73954869145E+03  0.81836544604E+03  0.00000000000E+00 0. -1.
          1    1    1    2  502    0  0.63748214037E+01  0.68497583605E+02  0.11120294638E+04  0.11141553239E+04  0.00000000000E+00 0. -1.
         22    1    3    3    0    0 -0.55439897605E+02  0.21132609453E+03  0.43776231901E+03  0.48925264274E+03  0.00000000000E+00 0. -1.
         22    1    3    3    0    0  0.11892569225E+02  0.68612745009E+02  0.40658917352E+02  0.80636775362E+02  0.00000000000E+00 0. -1.
</event>
<event>
 7    1  0.6122298E-006  0.7938247E+02  0.7818608E-02  0.1427854E+00
          2   -1    0    0  502    0  0.00000000000E+00  0.00000000000E+00  0.41643613806E+04  0.41643613806E+04  0.00000000000E+00 0. -1.
          1   -1    0    0  501    0 -0.00000000000E+00 -0.00000000000E+00 -0.11246777108E+04  0.11246777108E+04  0.00000000000E+00 0. -1.
         25    2    1    2    0    0  0.11008350062E+03  0.14191867875E+02 -0.34720163232E+03  0.38534872886E+03  0.12499953249E+03 0.  0.
          2    1    1    2  501    0 -0.34500445700E+02  0.99716044244E+01 -0.75759738797E+03  0.75844809705E+03  0.00000000000E+00 0. -1.
          1    1    1    2  502    0 -0.75583054921E+02 -0.24163472299E+02  0.41444826900E+04  0.41452422655E+04  0.00000000000E+00 0. -1.
         22    1    3    3    0    0  0.58824699457E+02 -0.32049652140E+02 -0.28386295053E+03  0.29166024781E+03  0.00000000000E+00 0.  1.
         22    1    3    3    0    0  0.51258801164E+02  0.46241520015E+02 -0.63338681790E+02  0.93688481047E+02  0.00000000000E+00 0.  1.
</event>
<event>
 7    1  0.6122298E-006  0.1006032E+03  0.7818608E-02  0.1457536E+00
          2   -1    0    0  502    0  0.00000000000E+00  0.00000000000E+00  0.15073690365E+03  0.15073690365E+03  0.00000000000E+00 0. -1.
          1   -1    0    0  501    0 -0.00000000000E+00 -0.00000000000E+00 -0.15987865852E+04  0.15987865852E+04  0.00000000000E+00 0. -1.
         25    2    1    2    0    0  0.74205632079E+02 -0.53042128164E+02 -0.71547274405E+03  0.73201500629E+03  0.12499911509E+03 0.  0.
          2    1    1    2  501    0  0.18483871038E+02  0.13210047683E+02 -0.85701295184E+03  0.85731403725E+03  0.00000000000E+00 0. -1.
          1    1    1    2  502    0 -0.92689503117E+02  0.39832080481E+02  0.12443601437E+03  0.16019444527E+03  0.00000000000E+00 0. -1.
         22    1    3    3    0    0  0.10082840679E+03 -0.30052287223E+02 -0.64190721558E+03  0.65047242909E+03  0.00000000000E+00 0. -1.
         22    1    3    3    0    0 -0.26622774710E+02 -0.22989840940E+02 -0.73565528465E+02  0.81542577210E+02  0.00000000000E+00 0. -1.
</event>
<event>
 7    1  0.6122298E-006  0.2449414E+02  0.7818608E-02  0.1672489E+00
          2   -1    0    0  502    0  0.00000000000E+00  0.00000000000E+00  0.87689321913E+03  0.87689321913E+03  0.00000000000E+00 0. -1.
          1   -1    0    0  501    0 -0.00000000000E+00 -0.00000000000E+00 -0.10877219502E+03  0.10877219502E+03  0.00000000000E+00 0. -1.
         25    2    1    2    0    0 -0.40645515806E+02  0.25442787209E+02  0.21734208942E+03  0.25526867738E+03  0.12500048177E+03 0.  0.
          2    1    1    2  501    0  0.19001592022E+02 -0.15198729298E+02 -0.87932300095E+02  0.91236786833E+02  0.00000000000E+00 0. -1.
          1    1    1    2  502    0  0.21643923784E+02 -0.10244057910E+02  0.63871123479E+03  0.63915994994E+03  0.00000000000E+00 0. -1.
         22    1    3    3    0    0  0.38317360010E+02  0.34001008926E+02  0.11357447020E+03  0.12459313371E+03  0.00000000000E+00 0. -1.
         22    1    3    3    0    0 -0.78962875816E+02 -0.85582217171E+01  0.10376761922E+03  0.13067554367E+03  0.00000000000E+00 0. -1.
</event>
<event>
 7    1  0.6122298E-006  0.1202489E+03  0.7818608E-02  0.1350033E+00
          2   -1    0    0  502    0  0.00000000000E+00  0.00000000000E+00  0.91232810426E+03  0.91232810426E+03  0.00000000000E+00 0. -1.
          1   -1    0    0  501    0 -0.00000000000E+00 -0.00000000000E+00 -0.45341915547E+03  0.45341915547E+03  0.00000000000E+00 0. -1.
         25    2    1    2    0    0 -0.20688747510E+02 -0.13224050776E+03 -0.19522669585E+03  0.26768471980E+03  0.12500428103E+03 0.  0.
          2    1    1    2  501    0 -0.35800420822E+02  0.26213998458E+02 -0.21557479272E+03  0.22009392337E+03  0.00000000000E+00 0. -1.
          1    1    1    2  502    0  0.56489168332E+02  0.10602650930E+03  0.86971043737E+03  0.87796861657E+03  0.00000000000E+00 0. -1.
         22    1    3    3    0    0 -0.78659753718E+01 -0.81662680045E+01  0.17636666968E+02  0.20966962665E+02  0.00000000000E+00 0. -1.
         22    1    3    3    0    0 -0.12822772138E+02 -0.12407423975E+03 -0.21286336282E+03  0.24671775713E+03  0.00000000000E+00 0. -1.
</event>
<event>
 7    1  0.6122298E-006  0.5567996E+02  0.7818608E-02  0.1438510E+00
          2   -1    0    0  502    0  0.00000000000E+00  0.00000000000E+00  0.59494848716E+03  0.59494848716E+03  0.00000000000E+00 0. -1.
          1   -1    0    0  501    0 -0.00000000000E+00 -0.00000000000E+00 -0.24796074071E+04  0.24796074071E+04  0.00000000000E+00 0. -1.
         25    2    1    2    0    0 -0.55838580788E+02 -0.44303119473E+01 -0.10379532894E+02  0.13731754536E+03  0.12494318225E+03 0.  0.
          2    1    1    2  501    0  0.16420029939E+02  0.44299081733E+02 -0.24040475525E+04  0.24045117303E+04  0.00000000000E+00 0. -1.
          1    1    1    2  502    0  0.39418550849E+02 -0.39868769785E+02  0.52976816554E+03  0.53272661861E+03  0.00000000000E+00 0. -1.
         22    1    3    3    0    0  0.35197076882E+02  0.23484508183E+01 -0.27135396849E+02  0.44504822260E+02  0.00000000000E+00 0.  1.
         22    1    3    3    0    0 -0.91035657670E+02 -0.67787627657E+01  0.16755863955E+02  0.92812723098E+02  0.00000000000E+00 0.  1.
</event>
<event>
 7    1  0.6122298E-006  0.4702952E+02  0.7818608E-02  0.1501166E+00
          2   -1    0    0  502    0  0.00000000000E+00  0.00000000000E+00  0.23954045638E+03  0.23954045638E+03  0.00000000000E+00 0. -1.
          1   -1    0    0  501    0 -0.00000000000E+00 -0.00000000000E+00 -0.42113034605E+03  0.42113034605E+03  0.00000000000E+00 0. -1.
         25    2    1    2    0    0 -0.46117310482E+02 -0.92931122581E+01 -0.28776875487E+02  0.13663820990E+03  0.12501489344E+03 0.  0.
          2    1    1    2  501    0  0.26668797063E+02  0.39227515618E+02 -0.33502013728E+03  0.33836151539E+03  0.00000000000E+00 0. -1.
          1    1    1    2  502    0  0.19448513419E+02 -0.29934403360E+02  0.18220712309E+03  0.18567107713E+03  0.00000000000E+00 0. -1.
         22    1    3    3    0    0 -0.87882338197E+02 -0.16318298470E+02 -0.88158903312E+01  0.89818217274E+02  0.00000000000E+00 0.  1.
         22    1    3    3    0    0  0.41765027715E+02  0.70251862116E+01 -0.19960985156E+02  0.46819992629E+02  0.00000000000E+00 0.  1.
</event>
<event>
 7    1  0.6122298E-006  0.9665454E+02  0.7818608E-02  0.1307331E+00
          2   -1    0    0  502    0  0.00000000000E+00  0.00000000000E+00  0.61933189536E+02  0.61933189536E+02  0.00000000000E+00 0. -1.
          1   -1    0    0  501    0 -0.00000000000E+00 -0.00000000000E+00 -0.61640368023E+03  0.61640368023E+03  0.00000000000E+00 0. -1.
         25    2    1    2    0    0  0.72960133533E+02 -0.45638828627E+02 -0.13042198913E+03  0.20010352994E+03  0.12500177471E+03 0.  0.
          2    1    1    2  501    0 -0.99854896621E+02 -0.30172588599E+02 -0.36174969230E+03  0.37648934296E+03  0.00000000000E+00 0. -1.
          1    1    1    2  502    0  0.26894763088E+02  0.75811417227E+02 -0.62298809257E+02  0.10174399687E+03  0.00000000000E+00 0. -1.
         22    1    3    3    0    0  0.34728180031E+02 -0.64282408682E-01  0.18779299880E+02  0.39480536021E+02  0.00000000000E+00 0. -1.
         22    1    3    3    0    0  0.38231953501E+02 -0.45574546219E+02 -0.14920128901E+03  0.16062299391E+03  0.00000000000E+00 0. -1.
</event>
<event>
 7    1  0.6122298E-006  0.1265291E+03  0.7818608E-02  0.1304620E+00
          2   -1    0    0  502    0  0.00000000000E+00  0.00000000000E+00  0.23195607611E+04  0.23195607611E+04  0.00000000000E+00 0. -1.
          1   -1    0    0  501    0 -0.00000000000E+00 -0.00000000000E+00 -0.57631094960E+03  0.57631094960E+03  0.00000000000E+00 0. -1.
         25    2    1    2    0    0  0.81116822421E+02 -0.59581236049E+02 -0.31081997574E+02  0.16346648975E+03  0.12500136051E+03 0.  0.
          2    1    1    2  501    0 -0.12997973327E+03  0.19833219187E+02 -0.46956411142E+03  0.48762541195E+03  0.00000000000E+00 0. -1.
          1    1    1    2  502    0  0.48862910847E+02  0.39748016862E+02  0.22438959205E+04  0.22447798090E+04  0.00000000000E+00 0. -1.
         22    1    3    3    0    0  0.13004174030E+02  0.22186075796E+02 -0.49199685744E+02  0.55515219343E+02  0.00000000000E+00 0.  1.
         22    1    3    3    0    0  0.68112648391E+02 -0.81767311845E+02  0.18117688170E+02  0.10795127040E+03  0.00000000000E+00 0.  1.
</event>
<event>
 7    1  0.6122298E-006  0.1056341E+03  0.7818608E-02  0.1273887E+00
          2   -1    0    0  502    0  0.00000000000E+00  0.00000000000E+00  0.10787962960E+03  0.10787962960E+03  0.00000000000E+00 0. -1.
          1   -1    0    0  501    0 -0.00000000000E+00 -0.00000000000E+00 -0.57298473456E+03  0.57298473456E+03  0.00000000000E+00 0. -1.
         25    2    1    2    0    0  0.12621142463E+02 -0.22798457162E+02 -0.21519161825E+03  0.25022150845E+03  0.12499723133E+03 0.  0.
          2    1    1    2  501    0 -0.18339255652E+02 -0.98963463804E+02 -0.28626394540E+03  0.30344215578E+03  0.00000000000E+00 0. -1.
          1    1    1    2  502    0  0.57181131889E+01  0.12176192097E+03  0.36350458693E+02  0.12720069993E+03  0.00000000000E+00 0. -1.
         22    1    3    3    0    0  0.39865554298E+02 -0.65760404956E+01 -0.87267525870E+01  0.41335976326E+02  0.00000000000E+00 0. -1.
         22    1    3    3    0    0 -0.27244411835E+02 -0.16222416666E+02 -0.20646486566E+03  0.20888553213E+03  0.00000000000E+00 0. -1.
</event>
<event>
 7    1  0.6122298E-006  0.1783394E+03  0.7818608E-02  0.1258957E+00
          2   -1    0    0  502    0  0.00000000000E+00  0.00000000000E+00  0.16775425336E+03  0.16775425336E+03  0.00000000000E+00 0. -1.
          1   -1    0    0  501    0 -0.00000000000E+00 -0.00000000000E+00 -0.62817741130E+03  0.62817741130E+03  0.00000000000E+00 0. -1.
         25    2    1    2    0    0 -0.12299303034E+03  0.14992378628E+01 -0.29620600002E+02  0.17785396069E+03  0.12500047265E+03 0.  0.
          2    1    1    2  501    0  0.19184123886E+03  0.19136678229E+01 -0.49062822070E+03  0.52680430332E+03  0.00000000000E+00 0. -1.
          1    1    1    2  502    0 -0.68848208520E+02 -0.34129056856E+01  0.59825662761E+02  0.91273400651E+02  0.00000000000E+00 0. -1.
         22    1    3    3    0    0 -0.52641935315E+02 -0.54067004003E+02 -0.43554814035E+02  0.87128847698E+02  0.00000000000E+00 0.  1.
         22    1    3    3    0    0 -0.70351095025E+02  0.55566241866E+02  0.13934214033E+02  0.90725112990E+02  0.00000000000E+00 0.  1.
</event>
<event>
 7    1  0.7089578E-006  0.8903596E+02  0.7818608E-02  0.1345549E+00
          2   -1    0    0  502    0  0.00000000000E+00  0.00000000000E+00  0.13608775139E+04  0.13608775139E+04  0.00000000000E+00 0. -1.
          1   -1    0    0  501    0 -0.00000000000E+00 -0.00000000000E+00 -0.16795149214E+04  0.16795149214E+04  0.00000000000E+00 0. -1.
         25    2    1    2    0    0  0.14615716934E+03 -0.35736456726E+02 -0.24727464102E+02  0.19716871542E+03  0.12500016948E+03 0.  0.
          2    1    1    2  501    0 -0.60512008691E+02  0.14699404881E+02 -0.15664220045E+04  0.15676592971E+04  0.00000000000E+00 0. -1.
          1    1    1    2  502    0 -0.85645160651E+02  0.21037051845E+02  0.12725120611E+04  0.12755644228E+04  0.00000000000E+00 0. -1.
         22    1    3    3    0    0  0.12452509130E+03  0.16519662861E+02  0.17169500100E+02  0.12678402643E+03  0.00000000000E+00 0. -1.
         22    1    3    3    0    0  0.21632078042E+02 -0.52256119587E+02 -0.41896964202E+02  0.70384688989E+02  0.00000000000E+00 0. -1.
</event>
<event>
 7    1  0.6122298E-006  0.6576418E+02  0.7818608E-02  0.1482858E+00
          2   -1    0    0  502    0  0.00000000000E+00  0.00000000000E+00  0.21750618322E+04  0.21750618322E+04  0.00000000000E+00 0. -1.
          1   -1    0    0  501    0 -0.00000000000E+00 -0.00000000000E+00 -0.15277611054E+04  0.15277611054E+04  0.00000000000E+00 0. -1.
         25    2    1    2    0    0 -0.35563018236E+02 -0.21907383869E+02  0.54022123112E+03  0.55606530890E+03  0.12499994994E+03 0.  0.
          2    1    1    2  501    0  0.63888911481E+02  0.15734616375E+02 -0.15189976575E+04  0.15204220646E+04  0.00000000000E+00 0. -1.
          1    1    1    2  502    0 -0.28325893245E+02  0.61727674937E+01  0.16260771531E+04  0.16263355641E+04  0.00000000000E+00 0. -1.
         22    1    3    3    0    0 -0.28686515128E+02 -0.14851776693E+02  0.54440424476E+03  0.54536178188E+03  0.00000000000E+00 0.  1.
         22    1    3    3    0    0 -0.68765031075E+01 -0.70556071760E+01 -0.41830136451E+01  0.10703527025E+02  0.00000000000E+00 0.  1.
</event>
<event>
 7    1  0.6122298E-006  0.7259024E+02  0.7818608E-02  0.1384840E+00
          2   -1    0    0  502    0  0.00000000000E+00  0.00000000000E+00  0.28462323272E+03  0.28462323272E+03  0.00000000000E+00 0. -1.
          1   -1    0    0  501    0 -0.00000000000E+00 -0.00000000000E+00 -0.20528232991E+04  0.20528232991E+04  0.00000000000E+00 0. -1.
         25    2    1    2    0    0  0.43731536104E+02 -0.53280491834E+01  0.83757013494E+02  0.15677748903E+03  0.12499243337E+03 0.  0.
          2    1    1    2  501    0 -0.54134328505E+02 -0.48719330503E+02 -0.20110274557E+04  0.20123457770E+04  0.00000000000E+00 0. -1.
          1    1    1    2  502    0  0.10402792401E+02  0.54047379686E+02  0.15907037582E+03  0.16832326578E+03  0.00000000000E+00 0. -1.
         22    1    3    3    0    0 -0.72444075674E+01  0.25328109832E+02  0.92928690182E+02  0.96590558791E+02  0.00000000000E+00 0. -1.
         22    1    3    3    0    0  0.50975943672E+02 -0.30656159015E+02 -0.91716766875E+01  0.60186930243E+02  0.00000000000E+00 0. -1.
</event>
<event>
 7    1  0.6122298E-006  0.6853495E+02  0.7818608E-02  0.1450183E+00
          2   -1    0    0  502    0  0.00000000000E+00  0.00000000000E+00  0.11040949028E+04  0.11040949028E+04  0.00000000000E+00 0. -1.
          1   -1    0    0  501    0 -0.00000000000E+00 -0.00000000000E+00 -0.37912875528E+03  0.37912875528E+03  0.00000000000E+00 0. -1.
         25    2    1    2    0    0 -0.62784127925E+02  0.46335617364E+02  0.51644381139E+02  0.15614426302E+03  0.12500021046E+03 0.  0.
          2    1    1    2  501    0  0.30854409955E+02 -0.61141841002E+02 -0.32297746439E+03  0.33015869190E+03  0.00000000000E+00 0. -1.
          1    1    1    2  502    0  0.31929717970E+02  0.14806223638E+02  0.99629923082E+03  0.99692070321E+03  0.00000000000E+00 0. -1.
         22    1    3    3    0    0 -0.10081224274E+03  0.31455073020E+02  0.29299336212E+02  0.10959462125E+03  0.00000000000E+00 0.  1.
         22    1    3    3    0    0  0.38028114811E+02  0.14880544344E+02  0.22345044927E+02  0.46549641770E+02  0.00000000000E+00 0.  1.
</event>
<event>
 7    1  0.6122298E-006  0.1173408E+03  0.7818608E-02  0.1249122E+00
          2   -1    0    0  502    0  0.00000000000E+00  0.00000000000E+00  0.16362581629E+03  0.16362581629E+03  0.00000000000E+00 0. -1.
          1   -1    0    0  501    0 -0.00000000000E+00 -0.00000000000E+00 -0.61532038769E+03  0.61532038769E+03  0.00000000000E+00 0. -1.
         25    2    1    2    0    0  0.44815666211E+02  0.58306360703E+02 -0.47654183486E+02  0.15265760974E+03  0.12500139588E+03 0.  0.
          2    1    1    2  501    0  0.10496602954E+03 -0.52449925991E+02 -0.45350674727E+03  0.46844127904E+03  0.00000000000E+00 0. -1.
          1    1    1    2  502    0 -0.14978169575E+03 -0.58564347119E+01  0.49466359357E+02  0.15784731520E+03  0.00000000000E+00 0. -1.
         22    1    3    3    0    0  0.83454279409E+02  0.27013029107E+02 -0.53261288468E+02  0.10262107650E+03  0.00000000000E+00 0. -1.
         22    1    3    3    0    0 -0.38638613199E+02  0.31293331596E+02  0.56071049812E+01  0.50036533239E+02  0.00000000000E+00 0. -1.
</event>
<event>
 7    1  0.6122298E-006  0.9688202E+02  0.7818608E-02  0.1382998E+00
          2   -1    0    0  502    0  0.00000000000E+00  0.00000000000E+00  0.15660551012E+04  0.15660551012E+04  0.00000000000E+00 0. -1.
          1   -1    0    0  501    0 -0.00000000000E+00 -0.00000000000E+00 -0.15090466822E+03  0.15090466822E+03  0.00000000000E+00 0. -1.
         25    2    1    2    0    0 -0.72866007121E+02  0.39869124602E+02  0.88499591968E+01  0.15034294164E+03  0.12500270490E+03 0.  0.
          2    1    1    2  501    0  0.66294680131E+02 -0.81209698109E+02 -0.45451030989E+02  0.11426196173E+03  0.00000000000E+00 0. -1.
          1    1    1    2  502    0  0.65713269894E+01  0.41340573507E+02  0.14517515048E+04  0.14523548661E+04  0.00000000000E+00 0. -1.
         22    1    3    3    0    0 -0.10629548198E+03  0.40369972667E+02 -0.57770387008E+01  0.11385006965E+03  0.00000000000E+00 0. -1.
         22    1    3    3    0    0  0.33429474864E+02 -0.50084806501E+00  0.14626997898E+02  0.36492871988E+02  0.00000000000E+00 0. -1.
</event>
<event>
 7    1  0.6122298E-006  0.5799651E+02  0.7818608E-02  0.1503239E+00
          2   -1    0    0  502    0  0.00000000000E+00  0.00000000000E+00  0.49152607653E+03  0.49152607653E+03  0.00000000000E+00 0. -1.
          1   -1    0    0  501    0 -0.00000000000E+00 -0.00000000000E+00 -0.27308997442E+04  0.27308997442E+04  0.00000000000E+00 0. -1.
         25    2    1    2    0    0 -0.24989220558E+02  0.16659229050E+02  0.31150955002E+03  0.33699472673E+03  0.12500102015E+03 0.  0.
          2    1    1    2  501    0  0.43563895330E+02 -0.38326383446E+02 -0.27166278160E+04  0.27172473968E+04  0.00000000000E+00 0. -1.
          1    1    1    2  502    0 -0.18574674772E+02  0.21667154396E+02  0.16574459833E+03  0.16818369719E+03  0.00000000000E+00 0. -1.
         22    1    3    3    0    0 -0.57888441308E+02  0.19162816850E+02  0.29276442588E+03  0.29904731106E+03  0.00000000000E+00 0.  1.
         22    1    3    3    0    0  0.32899220751E+02 -0.25035878002E+01  0.18745124133E+02  0.37947415678E+02  0.00000000000E+00 0.  1.
</event>
<event>
 7    1  0.6122298E-006  0.9370331E+02  0.7818608E-02  0.1351390E+00
          2   -1    0    0  502    0  0.00000000000E+00  0.00000000000E+00  0.37356918688E+03  0.37356918688E+03  0.00000000000E+00 0. -1.
          1   -1    0    0  501    0 -0.00000000000E+00 -0.00000000000E+00 -0.61053378862E+03  0.61053378862E+03  0.00000000000E+00 0. -1.
         25    2    1    2    0    0 -0.13092505015E+03 -0.68505887989E+02 -0.15286781964E+03  0.24662726845E+03  0.12498805470E+03 0.  0.
          2    1    1    2  501    0  0.46950817510E+02  0.31046187351E+02 -0.40231786820E+03  0.40623627619E+03  0.00000000000E+00 0. -1.
          1    1    1    2  502    0  0.83974232640E+02  0.37459700638E+02  0.31822108610E+03  0.33123943086E+03  0.00000000000E+00 0. -1.
         22    1    3    3    0    0 -0.92662841872E+02 -0.72616022607E+02 -0.16811301583E+03  0.20523517022E+03  0.00000000000E+00 0. -1.
         22    1    3    3    0    0 -0.38262208278E+02  0.41101346185E+01  0.15245196195E+02  0.41392098230E+02  0.00000000000E+00 0. -1.
</event>
<event>
 7    1  0.6122298E-006  0.7518011E+02  0.7818608E-02  0.1407159E+00
          2   -1    0    0  502    0  0.00000000000E+00  0.00000000000E+00  0.29729636935E+02  0.29729636935E+02  0.00000000000E+00 0. -1.
          1   -1    0    0  501    0 -0.00000000000E+00 -0.00000000000E+00 -0.10238022653E+04  0.10238022653E+04  0.00000000000E+00 0. -1.
         25    2    1    2    0    0 -0.74404103084E+01  0.45840554372E+02 -0.62339606784E+03  0.63749896001E+03  0.12500220189E+03 0.  0.
          2    1    1    2  501    0 -0.41275052789E+02  0.16599482900E+02 -0.31758986747E+03  0.32069065583E+03  0.00000000000E+00 0. -1.
          1    1    1    2  502    0  0.48715463098E+02 -0.62440037271E+02 -0.53086693080E+02  0.95342286429E+02  0.00000000000E+00 0. -1.
         22    1    3    3    0    0  0.34374037325E+02  0.74703721920E+02 -0.36391448892E+03  0.37308976904E+03  0.00000000000E+00 0.  1.
         22    1    3    3    0    0 -0.41814447634E+02 -0.28863167549E+02 -0.25948157892E+03  0.26440919097E+03  0.00000000000E+00 0.  1.
</event>
<event>
 7    1  0.6122298E-006  0.7612703E+02  0.7818608E-02  0.1401128E+00
          2   -1    0    0  502    0  0.00000000000E+00  0.00000000000E+00  0.13634627666E+02  0.13634627666E+02  0.00000000000E+00 0. -1.
          1   -1    0    0  501    0 -0.00000000000E+00 -0.00000000000E+00 -0.34044690474E+04  0.34044690474E+04  0.00000000000E+00 0. -1.
         25    2    1    2    0    0  0.61276654234E+02 -0.74744379417E+02 -0.29738818396E+04  0.29780764954E+04  0.12499946262E+03 0.  0.
          2    1    1    2  501    0 -0.46065270863E+02  0.66342962131E+00 -0.27833033141E+03  0.28211739170E+03  0.00000000000E+00 0. -1.
          1    1    1    2  502    0 -0.15211383370E+02  0.74080949795E+02 -0.13862224868E+03  0.15790978797E+03  0.00000000000E+00 0. -1.
         22    1    3    3    0    0 -0.32787802026E+02 -0.22186487642E+02 -0.13740053376E+04  0.13745755519E+04  0.00000000000E+00 0.  1.
         22    1    3    3    0    0  0.94064456260E+02 -0.52557891775E+02 -0.15998765020E+04  0.16035009435E+04  0.00000000000E+00 0.  1.
</event>
<event>
 7    1  0.6122298E-006  0.2222270E+03  0.7818608E-02  0.1217403E+00
          2   -1    0    0  502    0  0.00000000000E+00  0.00000000000E+00  0.53607928441E+03  0.53607928441E+03  0.00000000000E+00 0. -1.
          1   -1    0    0  501    0 -0.00000000000E+00 -0.00000000000E+00 -0.53698370873E+03  0.53698370873E+03  0.00000000000E+00 0. -1.
         25    2    1    2    0    0  0.24376375699E+03  0.54459267307E+02  0.30372245900E+02  0.28095433521E+03  0.12500513643E+03 0.  0.
          2    1    1    2  501    0 -0.21768118063E+03  0.25890650231E+02 -0.37706131940E+03  0.43615440013E+03  0.00000000000E+00 0. -1.
          1    1    1    2  502    0 -0.26082576365E+02 -0.80349917538E+02  0.34578464918E+03  0.35595425780E+03  0.00000000000E+00 0. -1.
         22    1    3    3    0    0  0.21438385533E+03  0.54343371525E+02  0.69678799640E+02  0.23188094914E+03  0.00000000000E+00 0. -1.
         22    1    3    3    0    0  0.29379901660E+02  0.11589578236E+00 -0.39306553740E+02  0.49073386070E+02  0.00000000000E+00 0. -1.
</event>
<event>
 7    1  0.6122298E-006  0.1505741E+03  0.7818608E-02  0.1251912E+00
          2   -1    0    0  502    0  0.00000000000E+00  0.00000000000E+00  0.11216593605E+04  0.11216593605E+04  0.00000000000E+00 0. -1.
          1   -1    0    0  501    0 -0.00000000000E+00 -0.00000000000E+00 -0.32532906813E+03  0.32532906813E+03  0.00000000000E+00 0. -1.
         25    2    1    2    0    0  0.16341392406E+03 -0.96537363343E+02  0.96863009108E+02  0.24704488607E+03  0.12500064041E+03 0.  0.
          2    1    1    2  501    0 -0.80304073763E+02  0.12403690921E+03 -0.22617833471E+03  0.27016761132E+03  0.00000000000E+00 0. -1.
          1    1    1    2  502    0 -0.83109850295E+02 -0.27499545868E+02  0.92564561793E+03  0.92977593120E+03  0.00000000000E+00 0. -1.
         22    1    3    3    0    0  0.23192200728E+02 -0.71295250287E+02  0.37857294111E+00  0.74973556708E+02  0.00000000000E+00 0.  1.
         22    1    3    3    0    0  0.14022172333E+03 -0.25242113057E+02  0.96484436167E+02  0.17207132936E+03  0.00000000000E+00 0.  1.
</event>
<event>
 7    1  0.6122298E-006  0.1262450E+03  0.7818608E-02  0.1353924E+00
          2   -1    0    0  502    0  0.00000000000E+00  0.00000000000E+00  0.18707069855E+03  0.18707069855E+03  0.00000000000E+00 0. -1.
          1   -1    0    0  501    0 -0.00000000000E+00 -0.00000000000E+00 -0.90601919700E+03  0.90601919700E+03  0.00000000000E+00 0. -1.
         25    2    1    2    0    0 -0.11480763342E+03 -0.20177004874E+02 -0.70468202922E+03  0.72511337079E+03  0.12499893592E+03 0.  0.
          2    1    1    2  501    0  0.15482505504E+03  0.28571117296E+02 -0.15529411825E+03  0.22114106262E+03  0.00000000000E+00 0. -1.
          1    1    1    2  502    0 -0.40017421620E+02 -0.83941124218E+01  0.14102764901E+03  0.14683546214E+03  0.00000000000E+00 0. -1.
         22    1    3    3    0    0 -0.29186597696E+02  0.24277366273E+02 -0.47113711332E+02  0.60505783142E+02  0.00000000000E+00 0. -1.
         22    1    3    3    0    0 -0.85621035725E+02 -0.44454371147E+02 -0.65756831789E+03  0.66460758765E+03  0.00000000000E+00 0. -1.
</event>
<event>
 7    1  0.6122298E-006  0.5333892E+02  0.7818608E-02  0.1540614E+00
          2   -1    0    0  502    0  0.00000000000E+00  0.00000000000E+00  0.15982847571E+04  0.15982847571E+04  0.00000000000E+00 0. -1.
          1   -1    0    0  501    0 -0.00000000000E+00 -0.00000000000E+00 -0.10955456041E+04  0.10955456041E+04  0.00000000000E+00 0. -1.
         25    2    1    2    0    0 -0.20244943133E+02  0.21779100285E+02  0.17212886516E+02  0.12963568258E+03  0.12499975921E+03 0.  0.
          2    1    1    2  501    0 -0.20196224002E+02  0.13303606883E+02 -0.10387234887E+04  0.10390049853E+04  0.00000000000E+00 0. -1.
          1    1    1    2  502    0  0.40441167135E+02 -0.35082707168E+02  0.15242497553E+04  0.15251896934E+04  0.00000000000E+00 0. -1.
         22    1    3    3    0    0  0.40026015203E+02 -0.22098185832E+02  0.29023715575E+02  0.54155219286E+02  0.00000000000E+00 0.  1.
         22    1    3    3    0    0 -0.60270958336E+02  0.43877286117E+02 -0.11810829059E+02  0.75480463292E+02  0.00000000000E+00 0.  1.
</event>
<event>
 7    1  0.6122298E-006  0.1114697E+03  0.7818608E-02  0.1443169E+00
          2   -1    0    0  502    0  0.00000000000E+00  0.00000000000E+00  0.14685328831E+03  0.14685328831E+03  0.00000000000E+00 0. -1.
          1   -1    0    0  501    0 -0.00000000000E+00 -0.00000000000E+00 -0.83080023477E+03  0.83080023477E+03  0.00000000000E+00 0. -1.
         25    2    1    2    0    0  0.55221602719E+02 -0.10908824853E+03 -0.92548487826E+02  0.19783756439E+03  0.12499923163E+03 0.  0.
          2    1    1    2  501    0 -0.65883672514E+02  0.88943279849E+02 -0.67968297761E+03  0.68863670784E+03  0.00000000000E+00 0. -1.
          1    1    1    2  502    0  0.10662069795E+02  0.20144968684E+02  0.88284518972E+02  0.91179250851E+02  0.00000000000E+00 0. -1.
         22    1    3    3    0    0  0.37466679512E+02 -0.10540340497E+03 -0.88684259062E+01  0.11221532351E+03  0.00000000000E+00 0. -1.
         22    1    3    3    0    0  0.17754923207E+02 -0.36848435664E+01 -0.83680061919E+02  0.85622240878E+02  0.00000000000E+00 0. -1.
</event>
<event>
 7    1  0.6122298E-006  0.9084452E+02  0.7818608E-02  0.1451777E+00
          2   -1    0    0  502    0  0.00000000000E+00  0.00000000000E+00  0.23122136205E+04  0.23122136205E+04  0.00000000000E+00 0. -1.
          1   -1    0    0  501    0 -0.00000000000E+00 -0.00000000000E+00 -0.18797744026E+03  0.18797744026E+03  0.00000000000E+00 0. -1.
         25    2    1    2    0    0 -0.60074691464E+02  0.97367343444E+02  0.89333938218E+02  0.19155928351E+03  0.12500015383E+03 0.  0.
          2    1    1    2  501    0  0.20897412283E+02 -0.15873698479E+02 -0.13465637525E+03  0.13718970639E+03  0.00000000000E+00 0. -1.
          1    1    1    2  502    0  0.39177279181E+02 -0.81493644965E+02  0.21695586173E+04  0.21714420709E+04  0.00000000000E+00 0. -1.
         22    1    3    3    0    0 -0.80276874233E+02  0.61595343595E+02  0.10661808897E+03  0.14698904648E+03  0.00000000000E+00 0. -1.
         22    1    3    3    0    0  0.20202182768E+02  0.35771999848E+02 -0.17284150750E+02  0.44570237030E+02  0.00000000000E+00 0. -1.
</event>
<event>
 7    1  0.6122298E-006  0.8075796E+02  0.7818608E-02  0.1397310E+00
          2   -1    0    0  502    0  0.00000000000E+00  0.00000000000E+00  0.20306437160E+04  0.20306437160E+04  0.00000000000E+00 0. -1.
          1   -1    0    0  501    0 -0.00000000000E+00 -0.00000000000E+00 -0.50052210720E+03  0.50052210720E+03  0.00000000000E+00 0. -1.
         25    2    1    2    0    0  0.49612532424E+02 -0.71970228993E+02  0.13317270868E+02  0.15311342086E+03  0.12500101083E+03 0.  0.
          2    1    1    2  501    0 -0.57252776210E+01  0.80780846033E+02 -0.42655656822E+03  0.43417603547E+03  0.00000000000E+00 0. -1.
          1    1    1    2  502    0 -0.43887254803E+02 -0.88106170403E+01  0.19433609061E+04  0.19438763668E+04  0.00000000000E+00 0. -1.
         22    1    3    3    0    0  0.27347190579E+02 -0.87864340646E+02  0.52028419801E+02  0.10571171958E+03  0.00000000000E+00 0. -1.
         22    1    3    3    0    0  0.22265341845E+02  0.15894111653E+02 -0.38711148932E+02  0.47401701281E+02  0.00000000000E+00 0. -1.
</event>
<event>
 7    1  0.6122298E-006  0.5767008E+02  0.7818608E-02  0.1555892E+00
          2   -1    0    0  502    0  0.00000000000E+00  0.00000000000E+00  0.87389748854E+02  0.87389748854E+02  0.00000000000E+00 0. -1.
          1   -1    0    0  501    0 -0.00000000000E+00 -0.00000000000E+00 -0.11049724276E+04  0.11049724276E+04  0.00000000000E+00 0. -1.
         25    2    1    2    0    0 -0.22282449457E+02  0.31309651146E+02 -0.35820772812E+03  0.38133426596E+03  0.12500497630E+03 0.  0.
          2    1    1    2  501    0 -0.15590410514E+02  0.12958158101E+02 -0.72384853820E+03  0.72413236429E+03  0.00000000000E+00 0. -1.
          1    1    1    2  502    0  0.37872859971E+02 -0.44267809247E+02  0.64473587566E+02  0.86895546213E+02  0.00000000000E+00 0. -1.
         22    1    3    3    0    0  0.30210102992E+02  0.57117397435E+02 -0.25126235167E+03  0.25943750072E+03  0.00000000000E+00 0. -1.
         22    1    3    3    0    0 -0.52492552449E+02 -0.25807746289E+02 -0.10694537645E+03  0.12189676523E+03  0.00000000000E+00 0. -1.
</event>
<event>
 7    1  0.6122298E-006  0.5182357E+02  0.7818608E-02  0.1453974E+00
          2   -1    0    0  502    0  0.00000000000E+00  0.00000000000E+00  0.70616717086E+02  0.70616717086E+02  0.00000000000E+00 0. -1.
          1   -1    0    0  501    0 -0.00000000000E+00 -0.00000000000E+00 -0.12598146236E+04  0.12598146236E+04  0.00000000000E+00 0. -1.
         25    2    1    2    0    0 -0.89271945256E+02 -0.65710490222E+01 -0.13508833951E+03  0.20465616164E+03  0.12499050416E+03 0.  0.
          2    1    1    2  501    0  0.49180898280E+02 -0.14447809316E+02 -0.10747874804E+04  0.10760091207E+04  0.00000000000E+00 0. -1.
          1    1    1    2  502    0  0.40091046976E+02  0.21018858338E+02  0.20677913399E+02  0.49766058273E+02  0.00000000000E+00 0. -1.
         22    1    3    3    0    0 -0.23146682451E+02 -0.18473582442E+02  0.19934868697E+02  0.35699315774E+02  0.00000000000E+00 0. -1.
         22    1    3    3    0    0 -0.66125262805E+02  0.11902533420E+02 -0.15502320820E+03  0.16895684586E+03  0.00000000000E+00 0. -1.
</event>
<event>
 7    1  0.6122298E-006  0.4405565E+02  0.7818608E-02  0.1547197E+00
          2   -1    0    0  502    0  0.00000000000E+00  0.00000000000E+00  0.10275197383E+04  0.10275197383E+04  0.00000000000E+00 0. -1.
          1   -1    0    0  501    0 -0.00000000000E+00 -0.00000000000E+00 -0.67311502027E+03  0.67311502027E+03  0.00000000000E+00 0. -1.
         25    2    1    2    0    0 -0.22861706386E+02 -0.49519878377E+02  0.43557693371E+03  0.45642918271E+03  0.12500183068E+03 0.  0.
          2    1    1    2  501    0 -0.46092274241E+01  0.43809227435E+02 -0.66161758870E+03  0.66308244364E+03  0.00000000000E+00 0. -1.
          1    1    1    2  502    0  0.27470933810E+02  0.57106509422E+01  0.58044537299E+03  0.58112313219E+03  0.00000000000E+00 0. -1.
         22    1    3    3    0    0  0.50392687355E+02 -0.34050279374E+02  0.17257718414E+03  0.18298013266E+03  0.00000000000E+00 0.  1.
         22    1    3    3    0    0 -0.73254393741E+02 -0.15469599003E+02  0.26299974958E+03  0.27344905005E+03  0.00000000000E+00 0.  1.
</event>
<event>
 7    1  0.6122298E-006  0.1495523E+03  0.7818608E-02  0.1395286E+00
          2   -1    0    0  502    0  0.00000000000E+00  0.00000000000E+00  0.58749747395E+03  0.58749747395E+03  0.00000000000E+00 0. -1.
          1   -1    0    0  501    0 -0.00000000000E+00 -0.00000000000E+00 -0.29854417432E+04  0.29854417432E+04  0.00000000000E+00 0. -1.
         25    2    1    2    0    0  0.11290038030E+03  0.81406413368E+02 -0.56830017000E+03  0.59830278565E+03  0.12501055989E+03 0.  0.
          2    1    1    2  501    0 -0.13445301327E+03 -0.69620761473E+02 -0.23994895387E+04  0.24042617805E+04  0.00000000000E+00 0. -1.
          1    1    1    2  502    0  0.21552632966E+02 -0.11785651894E+02  0.56984543944E+03  0.57037465093E+03  0.00000000000E+00 0. -1.
         22    1    3    3    0    0  0.13395825400E+03  0.92791230752E+02 -0.48605107098E+03  0.51264087812E+03  0.00000000000E+00 0.  1.
         22    1    3    3    0    0 -0.21057873705E+02 -0.11384817384E+02 -0.82249099016E+02  0.85661907524E+02  0.00000000000E+00 0.  1.
</event>
<event>
 7    1  0.6122298E-006  0.4744569E+02  0.7818608E-02  0.1477586E+00
          2   -1    0    0  502    0  0.00000000000E+00  0.00000000000E+00  0.91350122322E+02  0.91350122322E+02  0.00000000000E+00 0. -1.
          1   -1    0    0  501    0 -0.00000000000E+00 -0.00000000000E+00 -0.11663363988E+04  0.11663363988E+04  0.00000000000E+00 0. -1.
         25    2    1    2    0    0  0.72285385356E+02  0.39322856894E+02 -0.27880123989E+03  0.31642633418E+03  0.12499611831E+03 0.  0.
          2    1    1    2  501    0 -0.41492313626E+02 -0.42356611948E+01 -0.86065393083E+03  0.86166393772E+03  0.00000000000E+00 0. -1.
          1    1    1    2  502    0 -0.30793071729E+02 -0.35087195699E+02  0.64468894227E+02  0.79596249229E+02  0.00000000000E+00 0. -1.
         22    1    3    3    0    0  0.79682011283E+02  0.33650533063E+02 -0.28955324779E+03  0.30219640071E+03  0.00000000000E+00 0. -1.
         22    1    3    3    0    0 -0.73966259270E+01  0.56723238313E+01  0.10752007902E+02  0.14229933474E+02  0.00000000000E+00 0. -1.
</event>
<event>
 7    1  0.6122298E-006  0.6492688E+02  0.7818608E-02  0.1436999E+00
          2   -1    0    0  502    0  0.00000000000E+00  0.00000000000E+00  0.18129714958E+04  0.18129714958E+04  0.00000000000E+00 0. -1.
          1   -1    0    0  501    0 -0.00000000000E+00 -0.00000000000E+00 -0.21120801202E+02  0.21120801202E+02  0.00000000000E+00 0. -1.
         25    2    1    2    0    0 -0.35661509529E+02  0.13731059158E+00  0.39240937504E+03  0.41337777711E+03  0.12499722744E+03 0.  0.
          2    1    1    2  501    0 -0.22631042118E+02  0.34161315239E+02  0.33034793341E+02  0.52635131778E+02  0.00000000000E+00 0. -1.
          1    1    1    2  502    0  0.58292551647E+02 -0.34298625830E+02  0.13664065262E+04  0.13680793881E+04  0.00000000000E+00 0. -1.
         22    1    3    3    0    0 -0.95695421356E+01  0.59143064870E+02  0.12980870811E+03  0.14296775497E+03  0.00000000000E+00 0.  1.
         22    1    3    3    0    0 -0.26091967394E+02 -0.59005754279E+02  0.26260066693E+03  0.27041002214E+03  0.00000000000E+00 0.  1.
</event>
<event>
 7    1  0.6122298E-006  0.1171826E+03  0.7818608E-02  0.1281156E+00
          2   -1    0    0  502    0  0.00000000000E+00  0.00000000000E+00  0.46650107688E+03  0.46650107688E+03  0.00000000000E+00 0. -1.
          1   -1    0    0  501    0 -0.00000000000E+00 -0.00000000000E+00 -0.45345654487E+03  0.45345654487E+03  0.00000000000E+00 0. -1.
         25    2    1    2    0    0 -0.15599226039E+03  0.10790308022E+03  0.16723346443E+03  0.28207945136E+03  0.12500050092E+03 0.  0.
          2    1    1    2  501    0  0.73768286609E+02 -0.87816802999E+02 -0.37989163214E+03  0.39682641441E+03  0.00000000000E+00 0. -1.
          1    1    1    2  502    0  0.82223973785E+02 -0.20086277220E+02  0.22570269972E+03  0.24105175598E+03  0.00000000000E+00 0. -1.
         22    1    3    3    0    0 -0.61390565899E+02 -0.23055752990E+02  0.46248027770E+02  0.80244933796E+02  0.00000000000E+00 0. -1.
         22    1    3    3    0    0 -0.94601694495E+02  0.13095883321E+03  0.12098543666E+03  0.20183451757E+03  0.00000000000E+00 0. -1.
</event>
<event>
 7    1  0.6122298E-006  0.9662277E+02  0.7818608E-02  0.1459951E+00
          2   -1    0    0  502    0  0.00000000000E+00  0.00000000000E+00  0.94529600357E+03  0.94529600357E+03  0.00000000000E+00 0. -1.
          1   -1    0    0  501    0 -0.00000000000E+00 -0.00000000000E+00 -0.16864786776E+04  0.16864786776E+04  0.00000000000E+00 0. -1.
         25    2    1    2    0    0  0.67103274397E+02  0.95889775373E+02 -0.14331962282E+03  0.22330031810E+03  0.12499927728E+03 0.  0.
          2    1    1    2  501    0 -0.47641070249E+02 -0.83183338713E+02 -0.15014908234E+04  0.15045477168E+04  0.00000000000E+00 0. -1.
          1    1    1    2  502    0 -0.19462204148E+02 -0.12706436660E+02  0.90362777225E+03  0.90392664619E+03  0.00000000000E+00 0. -1.
         22    1    3    3    0    0 -0.21139392104E+02  0.46126356801E+02 -0.38029060541E+01  0.50881988804E+02  0.00000000000E+00 0.  1.
         22    1    3    3    0    0  0.88242666500E+02  0.49763418573E+02 -0.13951671676E+03  0.17241832929E+03  0.00000000000E+00 0.  1.
</event>
<event>
 7    1  0.6122298E-006  0.7265969E+02  0.7818608E-02  0.1381288E+00
          2   -1    0    0  502    0  0.00000000000E+00  0.00000000000E+00  0.18931852127E+04  0.18931852127E+04  0.00000000000E+00 0. -1.
          1   -1    0    0  501    0 -0.00000000000E+00 -0.00000000000E+00 -0.38994947961E+03  0.38994947961E+03  0.00000000000E+00 0. -1.
         25    2    1    2    0    0 -0.13122468630E+02  0.31521731717E+02  0.72179508784E+03  0.73333700953E+03  0.12501680677E+03 0.  0.
          2    1    1    2  501    0 -0.52953453865E+02  0.19973517150E+02 -0.38057811183E+03  0.38476318544E+03  0.00000000000E+00 0. -1.
          1    1    1    2  502    0  0.66075922495E+02 -0.51495248867E+02  0.11620187571E+04  0.11650344974E+04  0.00000000000E+00 0. -1.
         22    1    3    3    0    0  0.20259423107E+02 -0.24646825186E+02  0.52520192487E+03  0.52617009807E+03  0.00000000000E+00 0. -1.
         22    1    3    3    0    0 -0.33381891737E+02  0.56168556903E+02  0.19659316297E+03  0.20716691146E+03  0.00000000000E+00 0. -1.
</event>
<event>
 7    1  0.6122298E-006  0.1312527E+03  0.7818608E-02  0.1356493E+00
          2   -1    0    0  502    0  0.00000000000E+00  0.00000000000E+00  0.27740361196E+03  0.27740361196E+03  0.00000000000E+00 0. -1.
          1   -1    0    0  501    0 -0.00000000000E+00 -0.00000000000E+00 -0.73332912324E+03  0.73332912324E+03  0.00000000000E+00 0. -1.
         25    2    1    2    0    0  0.10038998885E+03 -0.12154018503E+03 -0.21924108960E+03  0.29753834834E+03  0.12494897729E+03 0.  0.
          2    1    1    2  501    0 -0.64258187313E+02  0.10829720183E+03 -0.46495343952E+03  0.48170436938E+03  0.00000000000E+00 0. -1.
          1    1    1    2  502    0 -0.36131801537E+02  0.13242983199E+02  0.22826901784E+03  0.23149001747E+03  0.00000000000E+00 0. -1.
         22    1    3    3    0    0  0.11989416721E+03 -0.87596053616E+02 -0.12019286965E+03  0.19103404371E+03  0.00000000000E+00 0. -1.
         22    1    3    3    0    0 -0.19504178361E+02 -0.33944131414E+02 -0.99048219943E+02  0.10650430463E+03  0.00000000000E+00 0. -1.
</event>
<event>
 7    1  0.7254853E-006  0.6867642E+02  0.7818608E-02  0.1379276E+00
          2   -1    0    0  502    0  0.00000000000E+00  0.00000000000E+00  0.76813981973E+03  0.76813981973E+03  0.00000000000E+00 0. -1.
          1   -1    0    0  501    0 -0.00000000000E+00 -0.00000000000E+00 -0.16073539114E+04  0.16073539114E+04  0.00000000000E+00 0. -1.
         25    2    1    2    0    0  0.39718235003E+02 -0.14773867568E+02 -0.18752456405E+03  0.22932103152E+03  0.12500747186E+03 0.  0.
          2    1    1    2  501    0 -0.55222291196E+02 -0.44086370937E+02 -0.13967970034E+04  0.13985832039E+04  0.00000000000E+00 0. -1.
          1    1    1    2  502    0  0.15504056193E+02  0.58860238506E+02  0.74510747585E+03  0.74758949564E+03  0.00000000000E+00 0. -1.
         22    1    3    3    0    0 -0.31540181226E+01 -0.63332378641E+02 -0.12016134982E+03  0.13586643443E+03  0.00000000000E+00 0. -1.
         22    1    3    3    0    0  0.42872253126E+02  0.48558511073E+02 -0.67363214234E+02  0.93454597092E+02  0.00000000000E+00 0. -1.
</event>
<event>
 7    1  0.6122298E-006  0.1017262E+03  0.7818608E-02  0.1331188E+00
          2   -1    0    0  502    0  0.00000000000E+00  0.00000000000E+00  0.80229532389E+03  0.80229532389E+03  0.00000000000E+00 0. -1.
          1   -1    0    0  501    0 -0.00000000000E+00 -0.00000000000E+00 -0.42024640277E+03  0.42024640277E+03  0.00000000000E+00 0. -1.
         25    2    1    2    0    0  0.13864447990E+03 -0.81749944752E+02 -0.15933081021E+02  0.20441487168E+03  0.12500492558E+03 0.  0.
          2    1    1    2  501    0 -0.56364861930E+02  0.25202187319E+02 -0.30342850991E+03  0.30964658650E+03  0.00000000000E+00 0. -1.
          1    1    1    2  502    0 -0.82279617966E+02  0.56547757432E+02  0.70141051206E+03  0.70848026848E+03  0.00000000000E+00 0. -1.
         22    1    3    3    0    0  0.56736806288E+02 -0.99551043017E+02  0.13944686429E+02  0.11542932744E+03  0.00000000000E+00 0. -1.
         22    1    3    3    0    0  0.81907673607E+02  0.17801098266E+02 -0.29877767450E+02  0.88985544236E+02  0.00000000000E+00 0. -1.
</event>
<event>
 7    1  0.6122298E-006  0.3061970E+02  0.7818608E-02  0.1639679E+00
          2   -1    0    0  502    0  0.00000000000E+00  0.00000000000E+00  0.59058313757E+02  0.59058313757E+02  0.00000000000E+00 0. -1.
          1   -1    0    0  501    0 -0.00000000000E+00 -0.00000000000E+00 -0.17297114511E+04  0.17297114511E+04  0.00000000000E+00 0. -1.
         25    2    1    2    0    0  0.31897714065E+01 -0.99205848973E+01 -0.68710920098E+02  0.14302003900E+03  0.12499979347E+03 0.  0.
          2    1    1    2  501    0 -0.24605618579E+02  0.18369841983E+02 -0.16176102339E+04  0.16179016523E+04  0.00000000000E+00 0. -1.
          1    1    1    2  502    0  0.21415847172E+02 -0.84492570861E+01  0.15668016677E+02  0.27848073578E+02  0.00000000000E+00 0. -1.
         22    1    3    3    0    0 -0.27911661311E+02 -0.93074221392E+01  0.28494269035E+02  0.40958665894E+02  0.00000000000E+00 0. -1.
         22    1    3    3    0    0  0.31101432717E+02 -0.61316275811E+00 -0.97205189132E+02  0.10206137310E+03  0.00000000000E+00 0. -1.
</event>
<event>
 7    1  0.6122298E-006  0.3331700E+02  0.7818608E-02  0.1565496E+00
          2   -1    0    0  502    0  0.00000000000E+00  0.00000000000E+00  0.95132265631E+02  0.95132265631E+02  0.00000000000E+00 0. -1.
          1   -1    0    0  501    0 -0.00000000000E+00 -0.00000000000E+00 -0.20302112985E+04  0.20302112985E+04  0.00000000000E+00 0. -1.
         25    2    1    2    0    0 -0.31515962409E+02  0.51400803388E+02 -0.44578243442E+03  0.46688504909E+03  0.12499748698E+03 0.  0.
          2    1    1    2  501    0  0.27350050220E+02 -0.18501403294E+02 -0.15704468119E+04  0.15707939127E+04  0.00000000000E+00 0. -1.
          1    1    1    2  502    0  0.41659121885E+01 -0.32899400094E+02  0.81150213478E+02  0.87664602311E+02  0.00000000000E+00 0. -1.
         22    1    3    3    0    0 -0.33957613733E+02  0.81552361151E+02 -0.19249515025E+03  0.21179775733E+03  0.00000000000E+00 0. -1.
         22    1    3    3    0    0  0.24416513238E+01 -0.30151557763E+02 -0.25328728417E+03  0.25508729176E+03  0.00000000000E+00 0. -1.
</event>
<event>
 7    1  0.6122298E-006  0.5562112E+02  0.7818608E-02  0.1431066E+00
          2   -1    0    0  502    0  0.00000000000E+00  0.00000000000E+00  0.20232336031E+03  0.20232336031E+03  0.00000000000E+00 0. -1.
          1   -1    0    0  501    0 -0.00000000000E+00 -0.00000000000E+00 -0.17279691849E+04  0.17279691849E+04  0.00000000000E+00 0. -1.
         25    2    1    2    0    0  0.50482068241E+02 -0.91498561548E+02 -0.15917117824E+03  0.22777768561E+03  0.12500713619E+03 0.  0.
          2    1    1    2  501    0 -0.23223315063E+02  0.44302693597E+02 -0.15296553156E+04  0.15304729450E+04  0.00000000000E+00 0. -1.
          1    1    1    2  502    0 -0.27258753178E+02  0.47195867951E+02  0.16318066920E+03  0.17204191459E+03  0.00000000000E+00 0. -1.
         22    1    3    3    0    0  0.24512576977E+02 -0.10525459405E+03 -0.16555311572E+03  0.19770490667E+03  0.00000000000E+00 0. -1.
         22    1    3    3    0    0  0.25969491264E+02  0.13756032504E+02  0.63819374747E+01  0.30072778933E+02  0.00000000000E+00 0. -1.
</event>
<event>
 7    1  0.6122298E-006  0.1453770E+03  0.7818608E-02  0.1233658E+00
          2   -1    0    0  502    0  0.00000000000E+00  0.00000000000E+00  0.11293906200E+04  0.11293906200E+04  0.00000000000E+00 0. -1.
          1   -1    0    0  501    0 -0.00000000000E+00 -0.00000000000E+00 -0.12874238943E+04  0.12874238943E+04  0.00000000000E+00 0. -1.
         25    2    1    2    0    0  0.84893994958E+02  0.17993230498E+03 -0.22124904074E+03  0.32273682605E+03  0.12500118439E+03 0.  0.
          2    1    1    2  501    0  0.17232278487E+02 -0.14170781595E+03 -0.10076312597E+04  0.10176928869E+04  0.00000000000E+00 0. -1.
          1    1    1    2  502    0 -0.10212627345E+03 -0.38224489031E+02  0.10708470262E+04  0.10763848014E+04  0.00000000000E+00 0. -1.
         22    1    3    3    0    0 -0.32869294089E+01  0.10073438091E+03 -0.16057335244E+03  0.18958380974E+03  0.00000000000E+00 0.  1.
         22    1    3    3    0    0  0.88180924367E+02  0.79197924070E+02 -0.60675688301E+02  0.13315301630E+03  0.00000000000E+00 0.  1.
</event>
<event>
 7    1  0.6122298E-006  0.1088056E+03  0.7818608E-02  0.1316647E+00
          2   -1    0    0  502    0  0.00000000000E+00  0.00000000000E+00  0.81891670040E+03  0.81891670040E+03  0.00000000000E+00 0. -1.
          1   -1    0    0  501    0 -0.00000000000E+00 -0.00000000000E+00 -0.49910598822E+03  0.49910598822E+03  0.00000000000E+00 0. -1.
         25    2    1    2    0    0 -0.38996531052E+02 -0.54466342594E+02 -0.12813820581E+03  0.19114470315E+03  0.12501834204E+03 0.  0.
          2    1    1    2  501    0 -0.63878773269E+02  0.15285098687E+02 -0.33238746693E+03  0.33881493486E+03  0.00000000000E+00 0. -1.
          1    1    1    2  502    0  0.10287530432E+03  0.39181243907E+02  0.78033638491E+03  0.78806305060E+03  0.00000000000E+00 0. -1.
         22    1    3    3    0    0  0.43680748555E+02 -0.23096595190E+01 -0.33629486696E+02  0.55175036899E+02  0.00000000000E+00 0. -1.
         22    1    3    3    0    0 -0.82677279607E+02 -0.52156683075E+02 -0.94508719113E+02  0.13596966625E+03  0.00000000000E+00 0. -1.
</event>
<event>
 7    1  0.6122298E-006  0.2020828E+03  0.7818608E-02  0.1233254E+00
          2   -1    0    0  502    0  0.00000000000E+00  0.00000000000E+00  0.19783772976E+04  0.19783772976E+04  0.00000000000E+00 0. -1.
          1   -1    0    0  501    0 -0.00000000000E+00 -0.00000000000E+00 -0.63504601576E+03  0.63504601576E+03  0.00000000000E+00 0. -1.
         25    2    1    2    0    0  0.11326888576E+03 -0.12532823037E+03  0.39043980603E+03  0.44340110173E+03  0.12499715625E+03 0.  0.
          2    1    1    2  501    0 -0.31882526827E+02 -0.72031724434E+02 -0.59867642833E+03  0.60383650989E+03  0.00000000000E+00 0. -1.
          1    1    1    2  502    0 -0.81386358931E+02  0.19735995480E+03  0.15515679041E+04  0.15661857017E+04  0.00000000000E+00 0. -1.
         22    1    3    3    0    0  0.59766242833E+02 -0.73000165858E+02  0.78870518319E+02  0.12296986077E+03  0.00000000000E+00 0.  1.
         22    1    3    3    0    0  0.53502642925E+02 -0.52328064510E+02  0.31156928771E+03  0.32043124096E+03  0.00000000000E+00 0.  1.
</event>
<event>
 7    1  0.6122298E-006  0.2836729E+03  0.7818608E-02  0.1335755E+00
          2   -1    0    0  502    0  0.00000000000E+00  0.00000000000E+00  0.22134826648E+04  0.22134826648E+04  0.00000000000E+00 0. -1.
          1   -1    0    0  501    0 -0.00000000000E+00 -0.00000000000E+00 -0.27628220440E+03  0.27628220440E+03  0.00000000000E+00 0. -1.
         25    2    1    2    0    0  0.19111899257E+03 -0.22774972480E+03  0.79815474762E+03  0.86085547350E+03  0.12499895458E+03 0.  0.
          2    1    1    2  501    0 -0.19256253347E+03  0.20652494308E+03 -0.16343338394E+03  0.32625657449E+03  0.00000000000E+00 0. -1.
          1    1    1    2  502    0  0.14435408951E+01  0.21224781710E+02  0.13024790968E+04  0.13026528212E+04  0.00000000000E+00 0. -1.
         22    1    3    3    0    0 -0.88828760595E+01 -0.51661469765E+02  0.18537099683E+03  0.19264012929E+03  0.00000000000E+00 0. -1.
         22    1    3    3    0    0  0.20000186863E+03 -0.17608825503E+03  0.61278375078E+03  0.66821534421E+03  0.00000000000E+00 0. -1.
</event>
<event>
 7    1  0.6122298E-006  0.7759646E+02  0.7818608E-02  0.1433315E+00
          2   -1    0    0  502    0  0.00000000000E+00  0.00000000000E+00  0.70010115842E+03  0.70010115842E+03  0.00000000000E+00 0. -1.
          1   -1    0    0  501    0 -0.00000000000E+00 -0.00000000000E+00 -0.21334075334E+04  0.21334075334E+04  0.00000000000E+00 0. -1.
         25    2    1    2    0    0 -0.13227573676E+02  0.58365695730E+02 -0.14415811509E+03  0.19997230312E+03  0.12500334686E+03 0.  0.
          2    1    1    2  501    0  0.48334989895E+02 -0.61538627633E+02 -0.19600989648E+04  0.19616603238E+04  0.00000000000E+00 0. -1.
          1    1    1    2  502    0 -0.35107416219E+02  0.31729319033E+01  0.67095070494E+03  0.67187606493E+03  0.00000000000E+00 0. -1.
         22    1    3    3    0    0 -0.62865554791E+01  0.79193915252E+02 -0.31934380426E+02  0.85621268654E+02  0.00000000000E+00 0. -1.
         22    1    3    3    0    0 -0.69410181968E+01 -0.20828219522E+02 -0.11222373466E+03  0.11435103447E+03  0.00000000000E+00 0. -1.
</event>
<event>
 7    1  0.6122298E-006  0.8182746E+02  0.7818608E-02  0.1344518E+00
          2   -1    0    0  502    0  0.00000000000E+00  0.00000000000E+00  0.47278268265E+03  0.47278268265E+03  0.00000000000E+00 0. -1.
          1   -1    0    0  501    0 -0.00000000000E+00 -0.00000000000E+00 -0.12696371018E+03  0.12696371018E+03  0.00000000000E+00 0. -1.
         25    2    1    2    0    0 -0.55520424884E+02 -0.43387108659E+02  0.42857594995E+02  0.14975562158E+03  0.12500005588E+03 0.  0.
          2    1    1    2  501    0  0.89912465053E+02 -0.15691668557E+02 -0.40455960551E+02  0.99835687899E+02  0.00000000000E+00 0. -1.
          1    1    1    2  502    0 -0.34392040169E+02  0.59078777216E+02  0.34341733803E+03  0.35015508336E+03  0.00000000000E+00 0. -1.
         22    1    3    3    0    0 -0.19547112658E+02 -0.85587528858E+02  0.21958559616E+02  0.90495817857E+02  0.00000000000E+00 0. -1.
         22    1    3    3    0    0 -0.35973312227E+02  0.42200420199E+02  0.20899035380E+02  0.59259803723E+02  0.00000000000E+00 0. -1.
</event>
<event>
 7    1  0.6122298E-006  0.2826429E+02  0.7818608E-02  0.1678835E+00
          2   -1    0    0  502    0  0.00000000000E+00  0.00000000000E+00  0.48512648992E+03  0.48512648992E+03  0.00000000000E+00 0. -1.
          1   -1    0    0  501    0 -0.00000000000E+00 -0.00000000000E+00 -0.52971229390E+02  0.52971229390E+02  0.00000000000E+00 0. -1.
         25    2    1    2    0    0  0.86125993782E+01  0.35214229976E+01  0.14415788533E+03  0.19102959423E+03  0.12499693068E+03 0.  0.
          2    1    1    2  501    0  0.13948073395E+02  0.14394544224E+02 -0.25396281624E+02  0.32353095295E+02  0.00000000000E+00 0. -1.
          1    1    1    2  502    0 -0.22560672773E+02 -0.17915967222E+02  0.31339365682E+03  0.31471502978E+03  0.00000000000E+00 0. -1.
         22    1    3    3    0    0 -0.33213176160E+01  0.12498770343E+02 -0.21289451791E+02  0.24909660141E+02  0.00000000000E+00 0.  1.
         22    1    3    3    0    0  0.11933916994E+02 -0.89773473455E+01  0.16544733712E+03  0.16611993409E+03  0.00000000000E+00 0.  1.
</event>
<event>
 7    1  0.6122298E-006  0.1178602E+03  0.7818608E-02  0.1274219E+00
          2   -1    0    0  502    0  0.00000000000E+00  0.00000000000E+00  0.12572161167E+04  0.12572161167E+04  0.00000000000E+00 0. -1.
          1   -1    0    0  501    0 -0.00000000000E+00 -0.00000000000E+00 -0.33939494800E+03  0.33939494800E+03  0.00000000000E+00 0. -1.
         25    2    1    2    0    0 -0.36669395189E+02 -0.17420723792E+03  0.41908528510E+03  0.47217859121E+03  0.12500935774E+03 0.  0.
          2    1    1    2  501    0  0.61217790470E+02  0.65863068252E+02 -0.30247448359E+03  0.31555724497E+03  0.00000000000E+00 0. -1.
          1    1    1    2  502    0 -0.24548395280E+02  0.10834416967E+03  0.80121036723E+03  0.80887522855E+03  0.00000000000E+00 0. -1.
         22    1    3    3    0    0  0.14839843124E+02 -0.12817553551E+02 -0.57161714162E+00  0.19617272214E+02  0.00000000000E+00 0. -1.
         22    1    3    3    0    0 -0.51509238313E+02 -0.16138968437E+03  0.41965690224E+03  0.45256131899E+03  0.00000000000E+00 0. -1.
</event>
<event>
 7    1  0.6122298E-006  0.1242566E+03  0.7818608E-02  0.1310106E+00
          2   -1    0    0  502    0  0.00000000000E+00  0.00000000000E+00  0.14365833565E+04  0.14365833565E+04  0.00000000000E+00 0. -1.
          1   -1    0    0  501    0 -0.00000000000E+00 -0.00000000000E+00 -0.22475447937E+03  0.22475447937E+03  0.00000000000E+00 0. -1.
         25    2    1    2    0    0  0.22744673430E+02  0.16255369729E+03  0.17744550974E+03  0.27212428163E+03  0.12499476411E+03 0.  0.
          2    1    1    2  501    0 -0.52458844408E+02 -0.10926596172E+03 -0.15584071046E+03  0.19742671497E+03  0.00000000000E+00 0. -1.
          1    1    1    2  502    0  0.29714170978E+02 -0.53287735571E+02  0.11902240778E+04  0.11917868392E+04  0.00000000000E+00 0. -1.
         22    1    3    3    0    0 -0.35949550555E+02  0.10323818882E+03  0.14722684289E+03  0.18337458135E+03  0.00000000000E+00 0. -1.
         22    1    3    3    0    0  0.58694223985E+02  0.59315508469E+02  0.30218666842E+02  0.88749700281E+02  0.00000000000E+00 0. -1.
</event>
<event>
 7    1  0.6122298E-006  0.2719665E+03  0.7818608E-02  0.1320246E+00
          2   -1    0    0  502    0  0.00000000000E+00  0.00000000000E+00  0.11518759374E+04  0.11518759374E+04  0.00000000000E+00 0. -1.
          1   -1    0    0  501    0 -0.00000000000E+00 -0.00000000000E+00 -0.11330736669E+04  0.11330736669E+04  0.00000000000E+00 0. -1.
         25    2    1    2    0    0 -0.22119991138E+03  0.18810416643E+03  0.10228834838E+03  0.33226521687E+03  0.12499875961E+03 0.  0.
          2    1    1    2  501    0  0.19580009467E+03 -0.18660627536E+03 -0.99994055376E+03  0.10358767736E+04  0.00000000000E+00 0. -1.
          1    1    1    2  502    0  0.25399816717E+02 -0.14978910745E+01  0.91645447590E+03  0.91680761382E+03  0.00000000000E+00 0. -1.
         22    1    3    3    0    0 -0.21259418661E+03  0.12341322161E+03  0.55615217305E+02  0.25203206908E+03  0.00000000000E+00 0.  1.
         22    1    3    3    0    0 -0.86057247740E+01  0.64690944818E+02  0.46673131070E+02  0.80233147789E+02  0.00000000000E+00 0.  1.
</event>
<event>
 7    1  0.6122298E-006  0.7218762E+02  0.7818608E-02  0.1419174E+00
          2   -1    0    0  502    0  0.00000000000E+00  0.00000000000E+00  0.40178030928E+03  0.40178030928E+03  0.00000000000E+00 0. -1.
          1   -1    0    0  501    0 -0.00000000000E+00 -0.00000000000E+00 -0.10329390459E+04  0.10329390459E+04  0.00000000000E+00 0. -1.
         25    2    1    2    0    0 -0.10021984891E+03 -0.20181018176E+02 -0.30414928544E+03  0.34435861057E+03  0.12499909293E+03 0.  0.
          2    1    1    2  501    0  0.38632971114E+02 -0.16990185726E+02 -0.70465869632E+03  0.70592141997E+03  0.00000000000E+00 0. -1.
          1    1    1    2  502    0  0.61586877797E+02  0.37171203902E+02  0.37764924517E+03  0.38443932460E+03  0.00000000000E+00 0. -1.
         22    1    3    3    0    0 -0.56212786767E+02 -0.52913630978E+02 -0.71131972346E+02  0.10497374543E+03  0.00000000000E+00 0. -1.
         22    1    3    3    0    0 -0.44007062144E+02  0.32732612802E+02 -0.23301731309E+03  0.23938486514E+03  0.00000000000E+00 0. -1.
</event>
<event>
 7    1  0.6122298E-006  0.8294084E+02  0.7818608E-02  0.1490061E+00
          2   -1    0    0  502    0  0.00000000000E+00  0.00000000000E+00  0.42594578768E+02  0.42594578768E+02  0.00000000000E+00 0. -1.
          1   -1    0    0  501    0 -0.00000000000E+00 -0.00000000000E+00 -0.60382172098E+03  0.60382172098E+03  0.00000000000E+00 0. -1.
         25    2    1    2    0    0 -0.70202405095E+02 -0.36848874913E+02 -0.26505514455E+03  0.30358809382E+03  0.12500113518E+03 0.  0.
          2    1    1    2  501    0  0.82531486664E+02  0.18801728879E+02 -0.30698650949E+03  0.31844256673E+03  0.00000000000E+00 0. -1.
          1    1    1    2  502    0 -0.12329081569E+02  0.18047146033E+02  0.10814511831E+02  0.24385639184E+02  0.00000000000E+00 0. -1.
         22    1    3    3    0    0 -0.15071202833E+02  0.30692531240E+00 -0.22595947656E+03  0.22646174159E+03  0.00000000000E+00 0.  1.
         22    1    3    3    0    0 -0.55131202263E+02 -0.37155800225E+02 -0.39095667992E+02  0.77126352235E+02  0.00000000000E+00 0.  1.
</event>
<event>
 7    1  0.6122298E-006  0.9602568E+02  0.7818608E-02  0.1362394E+00
          2   -1    0    0  502    0  0.00000000000E+00  0.00000000000E+00  0.81484502273E+03  0.81484502273E+03  0.00000000000E+00 0. -1.
          1   -1    0    0  501    0 -0.00000000000E+00 -0.00000000000E+00 -0.22930505252E+04  0.22930505252E+04  0.00000000000E+00 0. -1.
         25    2    1    2    0    0 -0.20202934764E+02  0.59970859198E+02  0.25648469863E+03  0.29225584822E+03  0.12499767062E+03 0.  0.
          2    1    1    2  501    0  0.69882008494E+02 -0.66075858894E+02 -0.22729870570E+04  0.22750208077E+04  0.00000000000E+00 0. -1.
          1    1    1    2  502    0 -0.49679073729E+02  0.61049996963E+01  0.53829685587E+03  0.54061889203E+03  0.00000000000E+00 0. -1.
         22    1    3    3    0    0  0.35515312228E+02  0.48705814617E+01  0.17716804451E+03  0.18075833580E+03  0.00000000000E+00 0. -1.
         22    1    3    3    0    0 -0.55718246992E+02  0.55100277736E+02  0.79316654128E+02  0.11149751242E+03  0.00000000000E+00 0. -1.
</event>
<event>
 7    1  0.6122298E-006  0.6981635E+02  0.7818608E-02  0.1439694E+00
          2   -1    0    0  502    0  0.00000000000E+00  0.00000000000E+00  0.27430560448E+03  0.27430560448E+03  0.00000000000E+00 0. -1.
          1   -1    0    0  501    0 -0.00000000000E+00 -0.00000000000E+00 -0.45793916747E+03  0.45793916747E+03  0.00000000000E+00 0. -1.
         25    2    1    2    0    0 -0.17774717108E+02  0.71173428995E+02  0.68641486565E+02  0.16036951393E+03  0.12500051903E+03 0.  0.
          2    1    1    2  501    0 -0.19364027261E+02 -0.67242700389E+02 -0.40686481110E+03  0.41283837130E+03  0.00000000000E+00 0. -1.
          1    1    1    2  502    0  0.37138744369E+02 -0.39307286058E+01  0.15458976155E+03  0.15903688671E+03  0.00000000000E+00 0. -1.
         22    1    3    3    0    0  0.21698985291E+02 -0.23215947437E+02  0.45459305935E+02  0.55465076166E+02  0.00000000000E+00 0. -1.
         22    1    3    3    0    0 -0.39473702399E+02  0.94389376431E+02  0.23182180630E+02  0.10490443777E+03  0.00000000000E+00 0. -1.
</event>
<event>
 7    1  0.6122298E-006  0.1564409E+03  0.7818608E-02  0.1377729E+00
          2   -1    0    0  502    0  0.00000000000E+00  0.00000000000E+00  0.13558717843E+04  0.13558717843E+04  0.00000000000E+00 0. -1.
          1   -1    0    0  501    0 -0.00000000000E+00 -0.00000000000E+00 -0.25894506848E+04  0.25894506848E+04  0.00000000000E+00 0. -1.
         25    2    1    2    0    0  0.44571201937E+02  0.16245413312E+03  0.87933623242E+02  0.22745501215E+03  0.12500209216E+03 0.  0.
          2    1    1    2  501    0 -0.18505099836E+02 -0.15518502340E+03 -0.25171133463E+04  0.25219604335E+04  0.00000000000E+00 0. -1.
          1    1    1    2  502    0 -0.26066102101E+02 -0.72691097274E+01  0.11956008226E+04  0.11959070234E+04  0.00000000000E+00 0. -1.
         22    1    3    3    0    0  0.47866861501E+02  0.16919125372E+03  0.41821911556E+02  0.18073734825E+03  0.00000000000E+00 0. -1.
         22    1    3    3    0    0 -0.32956595642E+01 -0.67371205963E+01  0.46111711686E+02  0.46717663902E+02  0.00000000000E+00 0. -1.
</event>
<event>
 7    1  0.6122298E-006  0.5541288E+02  0.7818608E-02  0.1497253E+00
          2   -1    0    0  502    0  0.00000000000E+00  0.00000000000E+00  0.65494949088E+03  0.65494949088E+03  0.00000000000E+00 0. -1.
          1   -1    0    0  501    0 -0.00000000000E+00 -0.00000000000E+00 -0.10784866867E+04  0.10784866867E+04  0.00000000000E+00 0. -1.
         25    2    1    2    0    0  0.53025894410E+02  0.61498048942E+02 -0.52975036601E+03  0.55032118902E+03  0.12499682114E+03 0.  0.
          2    1    1    2  501    0 -0.73262859546E+01 -0.30249014132E+02 -0.53681074329E+03  0.53771223850E+03  0.00000000000E+00 0. -1.
          1    1    1    2  502    0 -0.45699608455E+02 -0.31249034810E+02  0.64302391352E+03  0.64540275003E+03  0.00000000000E+00 0. -1.
         22    1    3    3    0    0 -0.33788015125E+02 -0.76464587940E+01 -0.81930540487E+02  0.88953424682E+02  0.00000000000E+00 0.  1.
         22    1    3    3    0    0  0.86813909535E+02  0.69144507736E+02 -0.44781982553E+03  0.46136776434E+03  0.00000000000E+00 0.  1.
</event>
<event>
 7    1  0.6122298E-006  0.4630641E+02  0.7818608E-02  0.1470443E+00
          2   -1    0    0  502    0  0.00000000000E+00  0.00000000000E+00  0.63098398163E+03  0.63098398163E+03  0.00000000000E+00 0. -1.
          1   -1    0    0  501    0 -0.00000000000E+00 -0.00000000000E+00 -0.28008758909E+03  0.28008758909E+03  0.00000000000E+00 0. -1.
         25    2    1    2    0    0  0.51969625676E+02 -0.26883569382E+01 -0.16629798353E+03  0.21444810075E+03  0.12499959733E+03 0.  0.
          2    1    1    2  501    0 -0.25366149110E+02  0.40590056297E+02 -0.82373491369E+02  0.95270070175E+02  0.00000000000E+00 0. -1.
          1    1    1    2  502    0 -0.26603476566E+02 -0.37901699359E+02  0.59956786744E+03  0.60135339980E+03  0.00000000000E+00 0. -1.
         22    1    3    3    0    0 -0.36879802066E+02 -0.16235022611E+02 -0.81334761257E+02  0.90769153066E+02  0.00000000000E+00 0. -1.
         22    1    3    3    0    0  0.88849427743E+02  0.13546665673E+02 -0.84963222275E+02  0.12367894768E+03  0.00000000000E+00 0. -1.
</event>
<event>
 7    1  0.6122298E-006  0.5127639E+02  0.7818608E-02  0.1571893E+00
          2   -1    0    0  502    0  0.00000000000E+00  0.00000000000E+00  0.13729820767E+04  0.13729820767E+04  0.00000000000E+00 0. -1.
          1   -1    0    0  501    0 -0.00000000000E+00 -0.00000000000E+00 -0.13249706862E+04  0.13249706862E+04  0.00000000000E+00 0. -1.
         25    2    1    2    0    0 -0.59883596090E+01 -0.52638641847E+02  0.16454493691E+03  0.21331913084E+03  0.12499331283E+03 0.  0.
          2    1    1    2  501    0 -0.19063446989E+02  0.78379354218E+01 -0.12999455620E+04  0.13001089617E+04  0.00000000000E+00 0. -1.
          1    1    1    2  502    0  0.25051806598E+02  0.44800706425E+02  0.11834120155E+04  0.11845246704E+04  0.00000000000E+00 0. -1.
         22    1    3    3    0    0 -0.20725550066E+00 -0.93249866425E+02  0.12810726429E+03  0.15845204861E+03  0.00000000000E+00 0.  1.
         22    1    3    3    0    0 -0.57811041084E+01  0.40611224578E+02  0.36437672621E+02  0.54867082230E+02  0.00000000000E+00 0.  1.
</event>
<event>
 7    1  0.6122298E-006  0.3802398E+02  0.7818608E-02  0.1572900E+00
          2   -1    0    0  502    0  0.00000000000E+00  0.00000000000E+00  0.25221760022E+04  0.25221760022E+04  0.00000000000E+00 0. -1.
          1   -1    0    0  501    0 -0.00000000000E+00 -0.00000000000E+00 -0.43868437859E+03  0.43868437859E+03  0.00000000000E+00 0. -1.
         25    2    1    2    0    0 -0.31160975165E+02  0.54649695263E+02  0.14320368577E+03  0.20022145628E+03  0.12499496139E+03 0.  0.
          2    1    1    2  501    0  0.20778578548E+02 -0.18199274338E+02 -0.40955748625E+03  0.41048787735E+03  0.00000000000E+00 0. -1.
          1    1    1    2  502    0  0.10382396617E+02 -0.36450420925E+02  0.23498454240E+04  0.23501510471E+04  0.00000000000E+00 0. -1.
         22    1    3    3    0    0 -0.15052843523E+02 -0.39092776810E+02  0.26101307460E+02  0.49356980742E+02  0.00000000000E+00 0.  1.
         22    1    3    3    0    0 -0.16108131642E+02  0.93742472073E+02  0.11710237831E+03  0.15086447554E+03  0.00000000000E+00 0.  1.
</event>
<event>
 7    1  0.8033794E-006  0.1018603E+03  0.7818608E-02  0.1312136E+00
          2   -1    0    0  502    0  0.00000000000E+00  0.00000000000E+00  0.10577606665E+04  0.10577606665E+04  0.00000000000E+00 0. -1.
          1   -1    0    0  501    0 -0.00000000000E+00 -0.00000000000E+00 -0.24995902899E+04  0.24995902899E+04  0.00000000000E+00 0. -1.
         25    2    1    2    0    0 -0.43252747677E+02 -0.78272228186E+02 -0.14760486530E+04  0.14840287080E+04  0.12499695284E+03 0.  0.
          2    1    1    2  501    0 -0.15099452238E+02  0.12225451278E+03 -0.10145549361E+04  0.10220058110E+04  0.00000000000E+00 0. -1.
          1    1    1    2  502    0  0.58352199915E+02 -0.43982284593E+02  0.10487739656E+04  0.10513164374E+04  0.00000000000E+00 0. -1.
         22    1    3    3    0    0 -0.38764466753E+02 -0.56958109859E+02 -0.30125486743E+03  0.30903301654E+03  0.00000000000E+00 0. -1.
         22    1    3    3    0    0 -0.44882809243E+01 -0.21314118327E+02 -0.11747937856E+04  0.11749956914E+04  0.00000000000E+00 0. -1.
</event>
<event>
 7    1  0.6122298E-006  0.5623869E+02  0.7818608E-02  0.1541818E+00
          2   -1    0    0  502    0  0.00000000000E+00  0.00000000000E+00  0.14192483177E+04  0.14192483177E+04  0.00000000000E+00 0. -1.
          1   -1    0    0  501    0 -0.00000000000E+00 -0.00000000000E+00 -0.13874782115E+03  0.13874782115E+03  0.00000000000E+00 0. -1.
         25    2    1    2    0    0  0.23534190905E+02 -0.26542883138E+02  0.10120794985E+03  0.16470087071E+03  0.12499977965E+03 0.  0.
          2    1    1    2  501    0  0.21236680598E+02 -0.81819831409E+01 -0.10515960356E+03  0.10759406895E+03  0.00000000000E+00 0. -1.
          1    1    1    2  502    0 -0.44770871503E+02  0.34724866279E+02  0.12844521502E+04  0.12857011992E+04  0.00000000000E+00 0. -1.
         22    1    3    3    0    0 -0.15807819648E+02  0.43130942644E+02  0.18208688871E+02  0.49413780728E+02  0.00000000000E+00 0. -1.
         22    1    3    3    0    0  0.39342010553E+02 -0.69673825782E+02  0.82999260983E+02  0.11528708998E+03  0.00000000000E+00 0. -1.
</event>
<event>
 7    1  0.6122298E-006  0.1510271E+03  0.7818608E-02  0.1319149E+00
          2   -1    0    0  502    0  0.00000000000E+00  0.00000000000E+00  0.87616197625E+03  0.87616197625E+03  0.00000000000E+00 0. -1.
          1   -1    0    0  501    0 -0.00000000000E+00 -0.00000000000E+00 -0.10012362597E+04  0.10012362597E+04  0.00000000000E+00 0. -1.
         25    2    1    2    0    0  0.14571096626E+03 -0.60909312513E+02  0.16142101402E+03  0.25811603537E+03  0.12500205563E+03 0.  0.
          2    1    1    2  501    0 -0.15028886262E+03  0.14865828495E+02 -0.94608934246E+03  0.95806721006E+03  0.00000000000E+00 0. -1.
          1    1    1    2  502    0  0.45778963672E+01  0.46043484018E+02  0.65959404497E+03  0.66121499054E+03  0.00000000000E+00 0. -1.
         22    1    3    3    0    0  0.11027804710E+03 -0.92912496819E+02  0.15186964660E+03  0.20942389858E+03  0.00000000000E+00 0.  1.
         22    1    3    3    0    0  0.35432919155E+02  0.32003184306E+02  0.95513674147E+01  0.48692136789E+02  0.00000000000E+00 0.  1.
</event>
<event>
 7    1  0.6122298E-006  0.1510190E+03  0.7818608E-02  0.1267913E+00
          2   -1    0    0  502    0  0.00000000000E+00  0.00000000000E+00  0.24952527759E+03  0.24952527759E+03  0.00000000000E+00 0. -1.
          1   -1    0    0  501    0 -0.00000000000E+00 -0.00000000000E+00 -0.11887694097E+04  0.11887694097E+04  0.00000000000E+00 0. -1.
         25    2    1    2    0    0 -0.24277140779E+02  0.18957856269E+03 -0.39470033369E+03  0.45600904292E+03  0.12500593112E+03 0.  0.
          2    1    1    2  501    0  0.59810652952E+02 -0.44553847890E+02 -0.73584284446E+03  0.73961277119E+03  0.00000000000E+00 0. -1.
          1    1    1    2  502    0 -0.35533512173E+02 -0.14502471480E+03  0.19129904600E+03  0.24267287321E+03  0.00000000000E+00 0. -1.
         22    1    3    3    0    0 -0.66378562591E+02  0.10066713627E+03 -0.15124948488E+03  0.19343317340E+03  0.00000000000E+00 0. -1.
         22    1    3    3    0    0  0.42101421812E+02  0.88911426422E+02 -0.24345084881E+03  0.26257586952E+03  0.00000000000E+00 0. -1.
</event>
<event>
 7    1  0.6122298E-006  0.5351661E+02  0.7818608E-02  0.1487208E+00
          2   -1    0    0  502    0  0.00000000000E+00  0.00000000000E+00  0.17890443457E+04  0.17890443457E+04  0.00000000000E+00 0. -1.
          1   -1    0    0  501    0 -0.00000000000E+00 -0.00000000000E+00 -0.47570905377E+02  0.47570905377E+02  0.00000000000E+00 0. -1.
         25    2    1    2    0    0 -0.45937523507E+02  0.20473951839E+02  0.10411040211E+04  0.10497864771E+04  0.12499850431E+03 0.  0.
          2    1    1    2  501    0  0.24699495235E+02 -0.47731698580E+02 -0.25954999783E+02  0.59682846178E+02  0.00000000000E+00 0. -1.
          1    1    1    2  502    0  0.21238028272E+02  0.27257746742E+02  0.72632441905E+03  0.72714592780E+03  0.00000000000E+00 0. -1.
         22    1    3    3    0    0 -0.12754194241E+02 -0.51689094854E+02  0.51085374060E+03  0.51362045937E+03  0.00000000000E+00 0.  1.
         22    1    3    3    0    0 -0.33183329266E+02  0.72163046692E+02  0.53025028046E+03  0.53616601774E+03  0.00000000000E+00 0.  1.
</event>
<event>
 7    1  0.6122298E-006  0.7084197E+02  0.7818608E-02  0.1496183E+00
          2   -1    0    0  502    0  0.00000000000E+00  0.00000000000E+00  0.38127683532E+03  0.38127683532E+03  0.00000000000E+00 0. -1.
          1   -1    0    0  501    0 -0.00000000000E+00 -0.00000000000E+00 -0.78723999237E+03  0.78723999237E+03  0.00000000000E+00 0. -1.
         25    2    1    2    0    0  0.38867601444E+02 -0.27675634972E+02 -0.11199198549E+03  0.17448254044E+03  0.12500128356E+03 0.  0.
          2    1    1    2  501    0  0.14586521252E+02 -0.19716329411E+02 -0.64012053650E+03  0.64059019779E+03  0.00000000000E+00 0. -1.
          1    1    1    2  502    0 -0.53454122696E+02  0.47391964383E+02  0.34614936494E+03  0.35344408946E+03  0.00000000000E+00 0. -1.
         22    1    3    3    0    0  0.22484169820E+02 -0.19976811244E+02 -0.13886298392E+03  0.14208286027E+03  0.00000000000E+00 0.  1.
         22    1    3    3    0    0  0.16383431624E+02 -0.76988237274E+01  0.26870998428E+02  0.32399680169E+02  0.00000000000E+00 0.  1.
</event>
<event>
 7    1  0.6122298E-006  0.6643168E+02  0.7818608E-02  0.1511488E+00
          2   -1    0    0  502    0  0.00000000000E+00  0.00000000000E+00  0.42150284229E+03  0.42150284229E+03  0.00000000000E+00 0. -1.
          1   -1    0    0  501    0 -0.00000000000E+00 -0.00000000000E+00 -0.13281051812E+04  0.13281051812E+04  0.00000000000E+00 0. -1.
         25    2    1    2    0    0 -0.48589838409E+02 -0.46069292892E+01 -0.29600611648E+03  0.32500172568E+03  0.12499721800E+03 0.  0.
          2    1    1    2  501    0  0.67196778113E+02 -0.98379670231E+01 -0.10161259965E+04  0.10183929661E+04  0.00000000000E+00 0. -1.
          1    1    1    2  502    0 -0.18606939704E+02  0.14444896312E+02  0.40552977406E+03  0.40621333174E+03  0.00000000000E+00 0. -1.
         22    1    3    3    0    0 -0.45344877944E+02 -0.38826845072E+02 -0.28138531213E+03  0.28764800666E+03  0.00000000000E+00 0.  1.
         22    1    3    3    0    0 -0.32449604654E+01  0.34219915783E+02 -0.14620804350E+02  0.37353719018E+02  0.00000000000E+00 0.  1.
</event>
<event>
 7    1  0.6122298E-006  0.2907803E+03  0.7818608E-02  0.1201102E+00
          2   -1    0    0  502    0  0.00000000000E+00  0.00000000000E+00  0.12121516608E+04  0.12121516608E+04  0.00000000000E+00 0. -1.
          1   -1    0    0  501    0 -0.00000000000E+00 -0.00000000000E+00 -0.15644652342E+04  0.15644652342E+04  0.00000000000E+00 0. -1.
         25    2    1    2    0    0 -0.92356820470E+02 -0.33014312282E+03 -0.61190524578E+03  0.71244478332E+03  0.12500110252E+03 0.  0.
          2    1    1    2  501    0  0.51219607434E+02  0.26522810071E+03 -0.88074999834E+03  0.92124369913E+03  0.00000000000E+00 0. -1.
          1    1    1    2  502    0  0.41137213036E+02  0.64915022100E+02  0.11403416707E+04  0.11429284126E+04  0.00000000000E+00 0. -1.
         22    1    3    3    0    0 -0.18426567775E+01  0.52982652856E+01  0.28574742825E+01  0.62954077161E+01  0.00000000000E+00 0. -1.
         22    1    3    3    0    0 -0.90514163692E+02 -0.33544138810E+03 -0.61476272007E+03  0.70614937560E+03  0.00000000000E+00 0. -1.
</event>
<event>
 7    1  0.6122298E-006  0.1515800E+03  0.7818608E-02  0.1252368E+00
          2   -1    0    0  502    0  0.00000000000E+00  0.00000000000E+00  0.15980000467E+04  0.15980000467E+04  0.00000000000E+00 0. -1.
          1   -1    0    0  501    0 -0.00000000000E+00 -0.00000000000E+00 -0.13249633822E+04  0.13249633822E+04  0.00000000000E+00 0. -1.
         25    2    1    2    0    0  0.80812867442E+02 -0.33277035229E+02 -0.52253465335E+02  0.16123008776E+03  0.12500654360E+03 0.  0.
          2    1    1    2  501    0  0.18785886350E+02 -0.84503538398E+02 -0.12128214388E+04  0.12159069043E+04  0.00000000000E+00 0. -1.
          1    1    1    2  502    0 -0.99598753792E+02  0.11778057363E+03  0.15381115686E+04  0.15458264368E+04  0.00000000000E+00 0. -1.
         22    1    3    3    0    0  0.48890629293E+02 -0.75572085026E+02 -0.48612548734E+01  0.90139145030E+02  0.00000000000E+00 0. -1.
         22    1    3    3    0    0  0.31922238149E+02  0.42295049797E+02 -0.47392210462E+02  0.71090942730E+02  0.00000000000E+00 0. -1.
</event>
<event>
 7    1  0.6122298E-006  0.3810840E+02  0.7818608E-02  0.1566707E+00
          2   -1    0    0  502    0  0.00000000000E+00  0.00000000000E+00  0.45093669546E+03  0.45093669546E+03  0.00000000000E+00 0. -1.
          1   -1    0    0  501    0 -0.00000000000E+00 -0.00000000000E+00 -0.16109453369E+03  0.16109453369E+03  0.00000000000E+00 0. -1.
         25    2    1    2    0    0  0.19934838120E+02  0.26372556641E+02  0.21787726298E+03  0.25335484785E+03  0.12500107075E+03 0.  0.
          2    1    1    2  501    0  0.63615408882E+01 -0.37743440303E+02 -0.13981902301E+03  0.14496342878E+03  0.00000000000E+00 0. -1.
          1    1    1    2  502    0 -0.26296379008E+02  0.11370883662E+02  0.21178392180E+03  0.21371295252E+03  0.00000000000E+00 0. -1.
         22    1    3    3    0    0  0.15127128456E+02 -0.13897973513E+01 -0.13467218258E+02  0.20300924107E+02  0.00000000000E+00 0.  1.
         22    1    3    3    0    0  0.48077096636E+01  0.27762353992E+02  0.23134448124E+03  0.23305392374E+03  0.00000000000E+00 0.  1.
</event>
<event>
 7    1  0.6122298E-006  0.5707345E+02  0.7818608E-02  0.1442897E+00
          2   -1    0    0  502    0  0.00000000000E+00  0.00000000000E+00  0.47192550499E+03  0.47192550499E+03  0.00000000000E+00 0. -1.
          1   -1    0    0  501    0 -0.00000000000E+00 -0.00000000000E+00 -0.18232266883E+03  0.18232266883E+03  0.00000000000E+00 0. -1.
         25    2    1    2    0    0  0.45795491746E+02 -0.21933862505E+02  0.22557446217E+03  0.26284212659E+03  0.12499529648E+03 0.  0.
          2    1    1    2  501    0 -0.16132564250E+02  0.55247740510E+02 -0.15632481859E+03  0.16658337662E+03  0.00000000000E+00 0. -1.
          1    1    1    2  502    0 -0.29662927496E+02 -0.33313878005E+02  0.22035319259E+03  0.22482267060E+03  0.00000000000E+00 0. -1.
         22    1    3    3    0    0  0.49364712409E+01 -0.53159375504E+02  0.19680311993E+03  0.20391605127E+03  0.00000000000E+00 0.  1.
         22    1    3    3    0    0  0.40859020505E+02  0.31225512999E+02  0.28771342238E+02  0.58926075322E+02  0.00000000000E+00 0.  1.
</event>
<event>
 7    1  0.6122298E-006  0.8867438E+02  0.7818608E-02  0.1358813E+00
          2   -1    0    0  502    0  0.00000000000E+00  0.00000000000E+00  0.23973838839E+03  0.23973838839E+03  0.00000000000E+00 0. -1.
          1   -1    0    0  501    0 -0.00000000000E+00 -0.00000000000E+00 -0.30042009194E+03  0.30042009194E+03  0.00000000000E+00 0. -1.
         25    2    1    2    0    0 -0.25878992192E+02 -0.33706903668E+02  0.12081737550E+03  0.17896338969E+03  0.12500071613E+03 0.  0.
          2    1    1    2  501    0  0.81119712011E+02  0.41977219417E+02 -0.25385557459E+03  0.26978722612E+03  0.00000000000E+00 0. -1.
          1    1    1    2  502    0 -0.55240719819E+02 -0.82703157490E+01  0.72356495549E+02  0.91407864524E+02  0.00000000000E+00 0. -1.
         22    1    3    3    0    0 -0.73118019983E+02 -0.36999904444E+02  0.58450579475E+02  0.10065638587E+03  0.00000000000E+00 0. -1.
         22    1    3    3    0    0  0.47239027791E+02  0.32930007756E+01  0.62366796023E+02  0.78307003818E+02  0.00000000000E+00 0. -1.
</event>
<event>
 7    1  0.6122298E-006  0.7204023E+02  0.7818608E-02  0.1433965E+00
          2   -1    0    0  502    0  0.00000000000E+00  0.00000000000E+00  0.12756591157E+04  0.12756591157E+04  0.00000000000E+00 0. -1.
          1   -1    0    0  501    0 -0.00000000000E+00 -0.00000000000E+00 -0.20697340298E+03  0.20697340298E+03  0.00000000000E+00 0. -1.
         25    2    1    2    0    0 -0.67582009469E+02 -0.41400005988E+02  0.25020638125E+03  0.29070524549E+03  0.12500007215E+03 0.  0.
          2    1    1    2  501    0  0.36153891204E+02  0.62373320292E+02 -0.17939423860E+03  0.19333863498E+03  0.00000000000E+00 0. -1.
          1    1    1    2  502    0  0.31428118265E+02 -0.20973314303E+02  0.99787357005E+03  0.99858863820E+03  0.00000000000E+00 0. -1.
         22    1    3    3    0    0  0.18643924483E+02  0.41517299982E+01  0.14878631586E+03  0.15000733505E+03  0.00000000000E+00 0. -1.
         22    1    3    3    0    0 -0.86225933953E+02 -0.45551735987E+02  0.10142006539E+03  0.14069791044E+03  0.00000000000E+00 0. -1.
</event>
<event>
 7    1  0.6122298E-006  0.1006146E+03  0.7818608E-02  0.1382880E+00
          2   -1    0    0  502    0  0.00000000000E+00  0.00000000000E+00  0.42159698505E+03  0.42159698505E+03  0.00000000000E+00 0. -1.
          1   -1    0    0  501    0 -0.00000000000E+00 -0.00000000000E+00 -0.34853939395E+03  0.34853939395E+03  0.00000000000E+00 0. -1.
         25    2    1    2    0    0  0.24324936284E+02  0.97931253021E+02  0.37756577078E+02  0.16502384055E+03  0.12500030397E+03 0.  0.
          2    1    1    2  501    0  0.36670838988E+02 -0.16822060015E+02 -0.27535764760E+03  0.27829762167E+03  0.00000000000E+00 0. -1.
          1    1    1    2  502    0 -0.60995775272E+02 -0.81109193006E+02  0.31065866162E+03  0.32681491678E+03  0.00000000000E+00 0. -1.
         22    1    3    3    0    0 -0.61271766193E+01  0.11968623726E+03  0.42809491893E+02  0.12725953905E+03  0.00000000000E+00 0. -1.
         22    1    3    3    0    0  0.30452112903E+02 -0.21754984239E+02 -0.50529148148E+01  0.37764301498E+02  0.00000000000E+00 0. -1.
</event>
<event>
 7    1  0.6122298E-006  0.2821730E+02  0.7818608E-02  0.1643407E+00
          2   -1    0    0  502    0  0.00000000000E+00  0.00000000000E+00  0.43622445180E+02  0.43622445180E+02  0.00000000000E+00 0. -1.
          1   -1    0    0  501    0 -0.00000000000E+00 -0.00000000000E+00 -0.16909391344E+04  0.16909391344E+04  0.00000000000E+00 0. -1.
         25    2    1    2    0    0 -0.97660589245E+01  0.35059021485E+02 -0.28218333329E+03  0.31076765343E+03  0.12499835974E+03 0.  0.
          2    1    1    2  501    0  0.23865688633E+02 -0.15076002237E+02 -0.13891970589E+04  0.13894838341E+04  0.00000000000E+00 0. -1.
          1    1    1    2  502    0 -0.14099629709E+02 -0.19983019248E+02  0.24063702932E+02  0.34310092029E+02  0.00000000000E+00 0. -1.
         22    1    3    3    0    0 -0.43458367471E+02 -0.24221138526E+01 -0.24316665803E+03  0.24703141484E+03  0.00000000000E+00 0.  1.
         22    1    3    3    0    0  0.33692308547E+02  0.37481135337E+02 -0.39016675258E+02  0.63736238590E+02  0.00000000000E+00 0.  1.
</event>
<event>
 7    1  0.6122298E-006  0.1055388E+03  0.7818608E-02  0.1341408E+00
          2   -1    0    0  502    0  0.00000000000E+00  0.00000000000E+00  0.37238033738E+03  0.37238033738E+03  0.00000000000E+00 0. -1.
          1   -1    0    0  501    0 -0.00000000000E+00 -0.00000000000E+00 -0.71441883358E+03  0.71441883358E+03  0.00000000000E+00 0. -1.
         25    2    1    2    0    0  0.88892595521E+02  0.10647612018E+03 -0.26070968799E+02  0.18853052849E+03  0.12500002820E+03 0.  0.
          2    1    1    2  501    0 -0.90206002399E+02 -0.52049117085E+02 -0.60004779148E+03  0.60901854283E+03  0.00000000000E+00 0. -1.
          1    1    1    2  502    0  0.13134068774E+01 -0.54427003092E+02  0.28408026408E+03  0.28925009964E+03  0.00000000000E+00 0. -1.
         22    1    3    3    0    0 -0.19222060224E+02  0.69651620654E+02 -0.14861116596E+02  0.73767802228E+02  0.00000000000E+00 0. -1.
         22    1    3    3    0    0  0.10811465575E+03  0.36824499523E+02 -0.11209852203E+02  0.11476272626E+03  0.00000000000E+00 0. -1.
</event>
<event>
 7    1  0.6122298E-006  0.1662414E+03  0.7818608E-02  0.1312992E+00
          2   -1    0    0  502    0  0.00000000000E+00  0.00000000000E+00  0.37743863974E+04  0.37743863974E+04  0.00000000000E+00 0. -1.
          1   -1    0    0  501    0 -0.00000000000E+00 -0.00000000000E+00 -0.22485829875E+02  0.22485829875E+02  0.00000000000E+00 0. -1.
         25    2    1    2    0    0 -0.73603143644E+02  0.11190453410E+03  0.13566152363E+04  0.13689296191E+04  0.12499342088E+03 0.  0.
          2    1    1    2  501    0  0.10359063979E+03 -0.14468504808E+03  0.47648946039E+03  0.50863247011E+03  0.00000000000E+00 0. -1.
          1    1    1    2  502    0 -0.29987496149E+02  0.32780513975E+02  0.19187958708E+04  0.19193101380E+04  0.00000000000E+00 0. -1.
         22    1    3    3    0    0 -0.81110982956E+02  0.25923306072E+02  0.43320866497E+03  0.44149830889E+03  0.00000000000E+00 0. -1.
         22    1    3    3    0    0  0.75078393118E+01  0.85981228030E+02  0.92340657135E+03  0.92743131025E+03  0.00000000000E+00 0. -1.
</event>
<event>
 7    1  0.6122298E-006  0.3915315E+02  0.7818608E-02  0.1526177E+00
          2   -1    0    0  502    0  0.00000000000E+00  0.00000000000E+00  0.80020066306E+03  0.80020066306E+03  0.00000000000E+00 0. -1.
          1   -1    0    0  501    0 -0.00000000000E+00 -0.00000000000E+00 -0.87961655965E+03  0.87961655965E+03  0.00000000000E+00 0. -1.
         25    2    1    2    0    0 -0.55152213662E+01  0.28815466416E+02  0.70573803294E+02  0.14651645741E+03  0.12500264720E+03 0.  0.
          2    1    1    2  501    0 -0.30478369847E+02 -0.24746500240E+02 -0.84071257154E+03  0.84162874728E+03  0.00000000000E+00 0. -1.
          1    1    1    2  502    0  0.35993591213E+02 -0.40689661753E+01  0.69072287165E+03  0.69167201802E+03  0.00000000000E+00 0. -1.
         22    1    3    3    0    0 -0.63215192671E+02  0.93880286036E+01  0.18855000790E+02  0.66631874657E+02  0.00000000000E+00 0.  1.
         22    1    3    3    0    0  0.57699971305E+02  0.19427437812E+02  0.51718802504E+02  0.79884582749E+02  0.00000000000E+00 0.  1.
</event>
<event>
 7    1  0.6122298E-006  0.1078264E+03  0.7818608E-02  0.1385434E+00
          2   -1    0    0  502    0  0.00000000000E+00  0.00000000000E+00  0.21128476620E+03  0.21128476620E+03  0.00000000000E+00 0. -1.
          1   -1    0    0  501    0 -0.00000000000E+00 -0.00000000000E+00 -0.82038807736E+03  0.82038807736E+03  0.00000000000E+00 0. -1.
         25    2    1    2    0    0 -0.73344643082E+02 -0.57202676837E+02 -0.15772945647E+03  0.22171798131E+03  0.12501479468E+03 0.  0.
          2    1    1    2  501    0  0.13273597637E+02 -0.34403611708E+02 -0.61332578464E+03  0.61443332835E+03  0.00000000000E+00 0. -1.
          1    1    1    2  502    0  0.60071045445E+02  0.91606288545E+02  0.16195192995E+03  0.19552153389E+03  0.00000000000E+00 0. -1.
         22    1    3    3    0    0 -0.37756283189E+02 -0.44175339741E+02  0.14091759916E+01  0.58129023202E+02  0.00000000000E+00 0. -1.
         22    1    3    3    0    0 -0.35588359893E+02 -0.13027337096E+02 -0.15913863246E+03  0.16358895811E+03  0.00000000000E+00 0. -1.
</event>
<event>
 7    1  0.6122298E-006  0.1090545E+03  0.7818608E-02  0.1415523E+00
          2   -1    0    0  502    0  0.00000000000E+00  0.00000000000E+00  0.17615195021E+04  0.17615195021E+04  0.00000000000E+00 0. -1.
          1   -1    0    0  501    0 -0.00000000000E+00 -0.00000000000E+00 -0.24245735353E+03  0.24245735353E+03  0.00000000000E+00 0. -1.
         25    2    1    2    0    0 -0.62959783137E+02 -0.62174742266E+02  0.71327841163E+03  0.72953418964E+03  0.12499763393E+03 0.  0.
          2    1    1    2  501    0  0.61043705198E+02  0.90845914532E+02 -0.22133714092E+03  0.24691991431E+03  0.00000000000E+00 0. -1.
          1    1    1    2  502    0  0.19160779390E+01 -0.28671172266E+02  0.10271208778E+04  0.10275227517E+04  0.00000000000E+00 0. -1.
         22    1    3    3    0    0 -0.34012412590E+02 -0.29622064141E+02  0.61316025917E+02  0.76118105129E+02  0.00000000000E+00 0. -1.
         22    1    3    3    0    0 -0.28947370547E+02 -0.32552678126E+02  0.65196238571E+03  0.65341608451E+03  0.00000000000E+00 0. -1.
</event>
<event>
 7    1  0.6122298E-006  0.3392609E+02  0.7818608E-02  0.1589259E+00
          2   -1    0    0  502    0  0.00000000000E+00  0.00000000000E+00  0.26370682041E+04  0.26370682041E+04  0.00000000000E+00 0. -1.
          1   -1    0    0  501    0 -0.00000000000E+00 -0.00000000000E+00 -0.14352123499E+03  0.14352123499E+03  0.00000000000E+00 0. -1.
         25    2    1    2    0    0  0.12001930793E+02 -0.59908208447E+01  0.14677820319E+03  0.19325545272E+03  0.12499557110E+03 0.  0.
          2    1    1    2  501    0  0.18619782442E+02  0.20895495983E+02 -0.11853532785E+03  0.12179467147E+03  0.00000000000E+00 0. -1.
          1    1    1    2  502    0 -0.30621713235E+02 -0.14904675138E+02  0.24653040938E+04  0.24655393150E+04  0.00000000000E+00 0. -1.
         22    1    3    3    0    0  0.42492958158E+02  0.45644435787E+02  0.52482181438E+02  0.81507333289E+02  0.00000000000E+00 0. -1.
         22    1    3    3    0    0 -0.30491027365E+02 -0.51635256632E+02  0.94296021753E+02  0.11174811943E+03  0.00000000000E+00 0. -1.
</event>
<event>
 7    1  0.6122298E-006  0.1047525E+03  0.7818608E-02  0.1295456E+00
          2   -1    0    0  502    0  0.00000000000E+00  0.00000000000E+00  0.35085002599E+03  0.35085002599E+03  0.00000000000E+00 0. -1.
          1   -1    0    0  501    0 -0.00000000000E+00 -0.00000000000E+00 -0.26939661242E+03  0.26939661242E+03  0.00000000000E+00 0. -1.
         25    2    1    2    0    0  0.39324039193E+02  0.27995341105E+02  0.12394854265E+03  0.18253049399E+03  0.12499608325E+03 0.  0.
          2    1    1    2  501    0 -0.53614219307E+02  0.89992278056E+02 -0.20862711702E+03  0.23344885645E+03  0.00000000000E+00 0. -1.
          1    1    1    2  502    0  0.14290180114E+02 -0.11798761916E+03  0.16613198793E+03  0.20426728798E+03  0.00000000000E+00 0. -1.
         22    1    3    3    0    0 -0.14130549824E+02  0.28978985474E+02 -0.13573707582E+02  0.34981417567E+02  0.00000000000E+00 0. -1.
         22    1    3    3    0    0  0.53454589017E+02 -0.98364436974E+00  0.13752225023E+03  0.14754907642E+03  0.00000000000E+00 0. -1.
</event>
<event>
 7    1  0.6122298E-006  0.8562415E+02  0.7818608E-02  0.1358696E+00
          2   -1    0    0  502    0  0.00000000000E+00  0.00000000000E+00  0.12088954616E+04  0.12088954616E+04  0.00000000000E+00 0. -1.
          1   -1    0    0  501    0 -0.00000000000E+00 -0.00000000000E+00 -0.16232152446E+03  0.16232152446E+03  0.00000000000E+00 0. -1.
         25    2    1    2    0    0  0.51084077821E+02 -0.45517291915E+02 -0.31986830254E+02  0.14606937073E+03  0.12502678467E+03 0.  0.
          2    1    1    2  501    0  0.35172297840E+02  0.45996909714E+02 -0.59965384614E+02  0.83358584384E+02  0.00000000000E+00 0. -1.
          1    1    1    2  502    0 -0.86256375661E+02 -0.47961779939E+00  0.11385261520E+04  0.11417890309E+04  0.00000000000E+00 0. -1.
         22    1    3    3    0    0  0.14855884231E+02  0.42904010139E+02 -0.32238601362E+00  0.45404353481E+02  0.00000000000E+00 0.  1.
         22    1    3    3    0    0  0.36228193591E+02 -0.88421302054E+02 -0.31664444241E+02  0.10066501724E+03  0.00000000000E+00 0.  1.
</event>
<event>
 7    1  0.6122298E-006  0.1106958E+03  0.7818608E-02  0.1290512E+00
          2   -1    0    0  502    0  0.00000000000E+00  0.00000000000E+00  0.62941653842E+03  0.62941653842E+03  0.00000000000E+00 0. -1.
          1   -1    0    0  501    0 -0.00000000000E+00 -0.00000000000E+00 -0.68902006994E+03  0.68902006994E+03  0.00000000000E+00 0. -1.
         25    2    1    2    0    0  0.41958998905E+02  0.43490477152E+02 -0.20501723614E+03  0.24760722743E+03  0.12500117107E+03 0.  0.
          2    1    1    2  501    0  0.70298605492E+02 -0.42288503809E+02 -0.45381735542E+03  0.46117285649E+03  0.00000000000E+00 0. -1.
          1    1    1    2  502    0 -0.11225760440E+03 -0.12019733431E+01  0.59923106004E+03  0.60965652445E+03  0.00000000000E+00 0. -1.
         22    1    3    3    0    0  0.55475682694E+02 -0.18502767845E+02 -0.40106652070E+02  0.70911545806E+02  0.00000000000E+00 0.  1.
         22    1    3    3    0    0 -0.13516683789E+02  0.61993244996E+02 -0.16491058407E+03  0.17669568162E+03  0.00000000000E+00 0.  1.
</event>
<event>
 7    1  0.6122298E-006  0.7817034E+02  0.7818608E-02  0.1438840E+00
          2   -1    0    0  502    0  0.00000000000E+00  0.00000000000E+00  0.67447408545E+03  0.67447408545E+03  0.00000000000E+00 0. -1.
          1   -1    0    0  501    0 -0.00000000000E+00 -0.00000000000E+00 -0.66857199476E+03  0.66857199476E+03  0.00000000000E+00 0. -1.
         25    2    1    2    0    0  0.94338612191E+00  0.10347815279E+03 -0.22407068136E+03  0.27666074680E+03  0.12499952197E+03 0.  0.
          2    1    1    2  501    0  0.18533383009E+02 -0.27988917337E+02 -0.41518214864E+03  0.41653701195E+03  0.00000000000E+00 0. -1.
          1    1    1    2  502    0 -0.19476769131E+02 -0.75489235452E+02  0.64515492069E+03  0.64984832145E+03  0.00000000000E+00 0. -1.
         22    1    3    3    0    0 -0.47785526107E+02  0.77666750004E+02 -0.76177050943E+02  0.11882139391E+03  0.00000000000E+00 0.  1.
         22    1    3    3    0    0  0.48728912229E+02  0.25811402785E+02 -0.14789363042E+03  0.15783935289E+03  0.00000000000E+00 0.  1.
</event>
<event>
 7    1  0.6122298E-006  0.4989171E+02  0.7818608E-02  0.1453369E+00
          2   -1    0    0  502    0  0.00000000000E+00  0.00000000000E+00  0.97839750929E+03  0.97839750929E+03  0.00000000000E+00 0. -1.
          1   -1    0    0  501    0 -0.00000000000E+00 -0.00000000000E+00 -0.80378056849E+03  0.80378056849E+03  0.00000000000E+00 0. -1.
         25    2    1    2    0    0  0.19459335842E+02  0.44627566012E+02  0.62398000102E+02  0.14794799179E+03  0.12499924984E+03 0.  0.
          2    1    1    2  501    0  0.30139210120E+02 -0.36361454892E+02 -0.75954765642E+03  0.76101456607E+03  0.00000000000E+00 0. -1.
          1    1    1    2  502    0 -0.49598545962E+02 -0.82661111200E+01  0.87176659713E+03  0.87321551992E+03  0.00000000000E+00 0. -1.
         22    1    3    3    0    0  0.57397368472E+02  0.34373932735E+02  0.80506597927E+02  0.10467730159E+03  0.00000000000E+00 0. -1.
         22    1    3    3    0    0 -0.37938032630E+02  0.10253633277E+02 -0.18108597824E+02  0.43270690200E+02  0.00000000000E+00 0. -1.
</event>
<event>
 7    1  0.6122298E-006  0.2799678E+03  0.7818608E-02  0.1202730E+00
          2   -1    0    0  502    0  0.00000000000E+00  0.00000000000E+00  0.16767574725E+04  0.16767574725E+04  0.00000000000E+00 0. -1.
          1   -1    0    0  501    0 -0.00000000000E+00 -0.00000000000E+00 -0.52632200538E+03  0.52632200538E+03  0.00000000000E+00 0. -1.
         25    2    1    2    0    0  0.23388824125E+03 -0.31763938581E+02  0.24573987055E+03  0.36294072632E+03  0.12500091860E+03 0.  0.
          2    1    1    2  501    0 -0.28587768974E+03 -0.26953646077E+02 -0.42238316465E+03  0.51074464296E+03  0.00000000000E+00 0. -1.
          1    1    1    2  502    0  0.51989448487E+02  0.58717584658E+02  0.13270787612E+04  0.13293941086E+04  0.00000000000E+00 0. -1.
         22    1    3    3    0    0 -0.19764502219E+01 -0.24951810140E+02  0.43973697264E+01  0.25413304493E+02  0.00000000000E+00 0. -1.
         22    1    3    3    0    0  0.23586469147E+03 -0.68121284411E+01  0.24134250083E+03  0.33752742182E+03  0.00000000000E+00 0. -1.
</event>
<event>
 7    1  0.6122298E-006  0.1449680E+03  0.7818608E-02  0.1422630E+00
          2   -1    0    0  502    0  0.00000000000E+00  0.00000000000E+00  0.14623177147E+03  0.14623177147E+03  0.00000000000E+00 0. -1.
          1   -1    0    0  501    0 -0.00000000000E+00 -0.00000000000E+00 -0.67069719494E+03  0.67069719494E+03  0.00000000000E+00 0. -1.
         25    2    1    2    0    0  0.89127927830E+02  0.13193490239E+03 -0.35245822563E+03  0.40645149757E+03  0.12500165231E+03 0.  0.
          2    1    1    2  501    0  0.10536347600E+01 -0.20438054562E+02 -0.24754981676E+03  0.24839431555E+03  0.00000000000E+00 0. -1.
          1    1    1    2  502    0 -0.90181562590E+02 -0.11149684783E+03  0.75542618914E+02  0.16208315329E+03  0.00000000000E+00 0. -1.
         22    1    3    3    0    0 -0.11062475075E+02  0.53526284131E+02 -0.20274104393E+03  0.20997945695E+03  0.00000000000E+00 0.  1.
         22    1    3    3    0    0  0.10019040290E+03  0.78408618260E+02 -0.14971718170E+03  0.19647204063E+03  0.00000000000E+00 0.  1.
</event>
<event>
 7    1  0.6122298E-006  0.1042814E+03  0.7818608E-02  0.1282422E+00
          2   -1    0    0  502    0  0.00000000000E+00  0.00000000000E+00  0.17692318316E+04  0.17692318316E+04  0.00000000000E+00 0. -1.
          1   -1    0    0  501    0 -0.00000000000E+00 -0.00000000000E+00 -0.58701065041E+03  0.58701065041E+03  0.00000000000E+00 0. -1.
         25    2    1    2    0    0 -0.51096888835E+02 -0.75276110703E+02  0.56525112739E+02  0.16461135574E+03  0.12499770068E+03 0.  0.
          2    1    1    2  501    0 -0.39806236079E+02  0.99120341775E+02 -0.52626676693E+03  0.53699728916E+03  0.00000000000E+00 0. -1.
          1    1    1    2  502    0  0.90903124914E+02 -0.23844231072E+02  0.16519628354E+04  0.16546338371E+04  0.00000000000E+00 0. -1.
         22    1    3    3    0    0  0.11239914951E+02 -0.89101935653E+02  0.24033647001E+02  0.92968310802E+02  0.00000000000E+00 0. -1.
         22    1    3    3    0    0 -0.62336803786E+02  0.13825824950E+02  0.32491465738E+02  0.71643044935E+02  0.00000000000E+00 0. -1.
</event>
<event>
 7    1  0.6122298E-006  0.1066581E+03  0.7818608E-02  0.1381105E+00
          2   -1    0    0  502    0  0.00000000000E+00  0.00000000000E+00  0.10654316177E+04  0.10654316177E+04  0.00000000000E+00 0. -1.
          1   -1    0    0  501    0 -0.00000000000E+00 -0.00000000000E+00 -0.13621427152E+03  0.13621427152E+03  0.00000000000E+00 0. -1.
         25    2    1    2    0    0 -0.34488098610E+02 -0.70835237197E+02  0.51937589177E+03  0.53998446950E+03  0.12499940227E+03 0.  0.
          2    1    1    2  501    0  0.19195934201E+02  0.10629037237E+03 -0.10188442688E+03  0.14848085260E+03  0.00000000000E+00 0. -1.
          1    1    1    2  502    0  0.15292164408E+02 -0.35455135173E+02  0.51172588129E+03  0.51318056713E+03  0.00000000000E+00 0. -1.
         22    1    3    3    0    0  0.46814372404E+02 -0.27454909583E+02  0.22869210199E+03  0.23504347478E+03  0.00000000000E+00 0.  1.
         22    1    3    3    0    0 -0.81302471014E+02 -0.43380327614E+02  0.29068378978E+03  0.30494099472E+03  0.00000000000E+00 0.  1.
</event>
<event>
 7    1  0.7971058E-006  0.6664762E+02  0.7818608E-02  0.1383253E+00
          2   -1    0    0  502    0  0.00000000000E+00  0.00000000000E+00  0.84563837063E+03  0.84563837063E+03  0.00000000000E+00 0. -1.
          1   -1    0    0  501    0 -0.00000000000E+00 -0.00000000000E+00 -0.14698047181E+04  0.14698047181E+04  0.00000000000E+00 0. -1.
         25    2    1    2    0    0 -0.66372768691E+01 -0.86539690764E+02 -0.26668937404E+03  0.30705484349E+03  0.12500513255E+03 0.  0.
          2    1    1    2  501    0  0.49363743568E+02  0.35362806577E+02 -0.11808050623E+04  0.11823653845E+04  0.00000000000E+00 0. -1.
          1    1    1    2  502    0 -0.42726466699E+02  0.51176884186E+02  0.82332808891E+03  0.82602286071E+03  0.00000000000E+00 0. -1.
         22    1    3    3    0    0 -0.37227860261E+02  0.11243578853E+01 -0.17541945391E+02  0.41169134170E+02  0.00000000000E+00 0. -1.
         22    1    3    3    0    0  0.30590583391E+02 -0.87664048649E+02 -0.24914742865E+03  0.26588570932E+03  0.00000000000E+00 0. -1.
</event>
<event>
 7    1  0.6122298E-006  0.4953711E+02  0.7818608E-02  0.1505926E+00
          2   -1    0    0  502    0  0.00000000000E+00  0.00000000000E+00  0.85247135928E+01  0.85247135928E+01  0.00000000000E+00 0. -1.
          1   -1    0    0  501    0 -0.00000000000E+00 -0.00000000000E+00 -0.31095663926E+04  0.31095663926E+04  0.00000000000E+00 0. -1.
         25    2    1    2    0    0  0.34825431935E+02  0.68402347205E+02 -0.93736333998E+03  0.94877144548E+03  0.12500213117E+03 0.  0.
          2    1    1    2  501    0 -0.11568656693E+02 -0.30697833304E+02 -0.19836370047E+04  0.19839082533E+04  0.00000000000E+00 0. -1.
          1    1    1    2  502    0 -0.23256775242E+02 -0.37704513901E+02 -0.18004133432E+03  0.18541140749E+03  0.00000000000E+00 0. -1.
         22    1    3    3    0    0  0.77416511193E+00  0.90974910850E+02 -0.41711339158E+03  0.42691991658E+03  0.00000000000E+00 0.  1.
         22    1    3    3    0    0  0.34051266823E+02 -0.22572563645E+02 -0.52024994840E+03  0.52185152890E+03  0.00000000000E+00 0.  1.
</event>
<event>
 7    1  0.6122298E-006  0.1209066E+03  0.7818608E-02  0.1343901E+00
          2   -1    0    0  502    0  0.00000000000E+00  0.00000000000E+00  0.33921801066E+03  0.33921801066E+03  0.00000000000E+00 0. -1.
          1   -1    0    0  501    0 -0.00000000000E+00 -0.00000000000E+00 -0.60949691383E+03  0.60949691383E+03  0.00000000000E+00 0. -1.
         25    2    1    2    0    0 -0.43862697828E+01 -0.96436815388E+02 -0.15163143721E+03  0.21895601364E+03  0.12502137590E+03 0.  0.
          2    1    1    2  501    0 -0.32355334406E+02  0.12495630297E+03 -0.41251269776E+03  0.43223566619E+03  0.00000000000E+00 0. -1.
          1    1    1    2  502    0  0.36741604189E+02 -0.28519487584E+02  0.29386523180E+03  0.29752324466E+03  0.00000000000E+00 0. -1.
         22    1    3    3    0    0  0.36894818796E+02 -0.83857947625E+02 -0.41317586288E+02  0.10050137298E+03  0.00000000000E+00 0.  1.
         22    1    3    3    0    0 -0.41281088578E+02 -0.12578867763E+02 -0.11031385092E+03  0.11845464066E+03  0.00000000000E+00 0.  1.
</event>
<event>
 7    1  0.6122298E-006  0.2107910E+03  0.7818608E-02  0.1206777E+00
          2   -1    0    0  502    0  0.00000000000E+00  0.00000000000E+00  0.37121070239E+03  0.37121070239E+03  0.00000000000E+00 0. -1.
          1   -1    0    0  501    0 -0.00000000000E+00 -0.00000000000E+00 -0.70287086380E+03  0.70287086380E+03  0.00000000000E+00 0. -1.
         25    2    1    2    0    0 -0.18420671324E+03  0.18432092436E+03  0.10432978864E+03  0.30726883545E+03  0.12499246410E+03 0.  0.
          2    1    1    2  501    0  0.98182187454E+02 -0.17447262630E+02 -0.54207545060E+03  0.55117142800E+03  0.00000000000E+00 0. -1.
          1    1    1    2  502    0  0.86024525790E+02 -0.16687366173E+03  0.10608550054E+03  0.21564130273E+03  0.00000000000E+00 0. -1.
         22    1    3    3    0    0 -0.56972752651E+02  0.12398610935E+03  0.94766328252E+02  0.16612978910E+03  0.00000000000E+00 0.  1.
         22    1    3    3    0    0 -0.12723396059E+03  0.60334815010E+02  0.95634603886E+01  0.14113904635E+03  0.00000000000E+00 0.  1.
</event>
<event>
 7    1  0.6122298E-006  0.5998308E+02  0.7818608E-02  0.1523075E+00
          2   -1    0    0  502    0  0.00000000000E+00  0.00000000000E+00  0.14399381917E+04  0.14399381917E+04  0.00000000000E+00 0. -1.
          1   -1    0    0  501    0 -0.00000000000E+00 -0.00000000000E+00 -0.28102193298E+03  0.28102193298E+03  0.00000000000E+00 0. -1.
         25    2    1    2    0    0 -0.38653086750E+02 -0.68468795954E+02  0.10082936373E+02  0.14801877689E+03  0.12500342223E+03 0.  0.
          2    1    1    2  501    0  0.17775147130E+02  0.56357929030E+02 -0.20782750554E+03  0.21606583274E+03  0.00000000000E+00 0. -1.
          1    1    1    2  502    0  0.20877939620E+02  0.12110866924E+02  0.13566608279E+04  0.13568755150E+04  0.00000000000E+00 0. -1.
         22    1    3    3    0    0 -0.82223685506E+02 -0.63341600832E+02  0.79190980272E+01  0.10409421198E+03  0.00000000000E+00 0.  1.
         22    1    3    3    0    0  0.43570598756E+02 -0.51271951226E+01  0.21638383462E+01  0.43924564906E+02  0.00000000000E+00 0.  1.
</event>
<event>
 7    1  0.6122298E-006  0.1317820E+03  0.7818608E-02  0.1254228E+00
          2   -1    0    0  502    0  0.00000000000E+00  0.00000000000E+00  0.77222425939E+03  0.77222425939E+03  0.00000000000E+00 0. -1.
          1   -1    0    0  501    0 -0.00000000000E+00 -0.00000000000E+00 -0.95094543357E+02  0.95094543357E+02  0.00000000000E+00 0. -1.
         25    2    1    2    0    0 -0.12984976183E+02 -0.38620250934E+02  0.18660005055E+03  0.22826371980E+03  0.12499845408E+03 0.  0.
          2    1    1    2  501    0 -0.12217034421E+03  0.49405440336E+02  0.17236888643E+01  0.13179325340E+03  0.00000000000E+00 0. -1.
          1    1    1    2  502    0  0.13515532039E+03 -0.10785189402E+02  0.48880597662E+03  0.50726182955E+03  0.00000000000E+00 0. -1.
         22    1    3    3    0    0 -0.42099078255E+02  0.22557991729E+02  0.26970088564E+02  0.54850533799E+02  0.00000000000E+00 0.  1.
         22    1    3    3    0    0  0.29114102072E+02 -0.61178242663E+02  0.15962996199E+03  0.17341318600E+03  0.00000000000E+00 0.  1.
</event>
<event>
 7    1  0.6122298E-006  0.4928668E+02  0.7818608E-02  0.1552096E+00
          2   -1    0    0  502    0  0.00000000000E+00  0.00000000000E+00  0.24280122607E+03  0.24280122607E+03  0.00000000000E+00 0. -1.
          1   -1    0    0  501    0 -0.00000000000E+00 -0.00000000000E+00 -0.18578331474E+04  0.18578331474E+04  0.00000000000E+00 0. -1.
         25    2    1    2    0    0  0.68747958348E+02  0.82837426848E+01  0.24869411739E+02  0.14504539301E+03  0.12499910489E+03 0.  0.
          2    1    1    2  501    0 -0.46125263547E+02 -0.17163515554E+02 -0.17964706747E+04  0.17971446829E+04  0.00000000000E+00 0. -1.
          1    1    1    2  502    0 -0.22622694801E+02  0.88797728695E+01  0.15656934165E+03  0.15844429756E+03  0.00000000000E+00 0. -1.
         22    1    3    3    0    0 -0.28052601155E+01 -0.16208100641E+02  0.59596373691E+02  0.61824750447E+02  0.00000000000E+00 0. -1.
         22    1    3    3    0    0  0.71553218464E+02  0.24491843326E+02 -0.34726961952E+02  0.83220642562E+02  0.00000000000E+00 0. -1.
</event>
<event>
 7    1  0.6122298E-006  0.1988360E+03  0.7818608E-02  0.1273605E+00
          2   -1    0    0  502    0  0.00000000000E+00  0.00000000000E+00  0.18071331228E+04  0.18071331228E+04  0.00000000000E+00 0. -1.
          1   -1    0    0  501    0 -0.00000000000E+00 -0.00000000000E+00 -0.26547428904E+03  0.26547428904E+03  0.00000000000E+00 0. -1.
         25    2    1    2    0    0  0.53755149019E+02 -0.14800678770E+03  0.20563591542E+03  0.28759545536E+03  0.12501756270E+03 0.  0.
          2    1    1    2  501    0 -0.87148306929E+01 -0.52902586749E+02 -0.21438727831E+03  0.22098990262E+03  0.00000000000E+00 0. -1.
          1    1    1    2  502    0 -0.45040318326E+02  0.20090937445E+03  0.15504101967E+04  0.15640220539E+04  0.00000000000E+00 0. -1.
         22    1    3    3    0    0  0.27265219196E+02 -0.16406431284E+02  0.12932298848E+03  0.13318032330E+03  0.00000000000E+00 0. -1.
         22    1    3    3    0    0  0.26489929823E+02 -0.13160035642E+03  0.76312926939E+02  0.15441513206E+03  0.00000000000E+00 0. -1.
</event>
<event>
 7    1  0.6122298E-006  0.1114473E+03  0.7818608E-02  0.1278829E+00
          2   -1    0    0  502    0  0.00000000000E+00  0.00000000000E+00  0.91459222128E+03  0.91459222128E+03  0.00000000000E+00 0. -1.
          1   -1    0    0  501    0 -0.00000000000E+00 -0.00000000000E+00 -0.20066467142E+03  0.20066467142E+03  0.00000000000E+00 0. -1.
         25    2    1    2    0    0 -0.66605772729E+02  0.69367492486E+02 -0.11740445860E+03  0.19661388368E+03  0.12500013753E+03 0.  0.
          2    1    1    2  501    0  0.80478538973E+02  0.42455916472E+02  0.12209109401E+02  0.91806113256E+02  0.00000000000E+00 0. -1.
          1    1    1    2  502    0 -0.13872766244E+02 -0.11182340896E+03  0.81912289906E+03  0.82683689576E+03  0.00000000000E+00 0. -1.
         22    1    3    3    0    0 -0.95257233662E+02  0.63266805731E+02 -0.53364311164E+02  0.12619183404E+03  0.00000000000E+00 0. -1.
         22    1    3    3    0    0  0.28651460933E+02  0.61006867551E+01 -0.64040147436E+02  0.70422049644E+02  0.00000000000E+00 0. -1.
</event>
<event>
 7    1  0.6122298E-006  0.4448388E+02  0.7818608E-02  0.1556297E+00
          2   -1    0    0  502    0  0.00000000000E+00  0.00000000000E+00  0.10247418142E+04  0.10247418142E+04  0.00000000000E+00 0. -1.
          1   -1    0    0  501    0 -0.00000000000E+00 -0.00000000000E+00 -0.24080339158E+03  0.24080339158E+03  0.00000000000E+00 0. -1.
         25    2    1    2    0    0 -0.65272661632E+02 -0.23783838638E+02 -0.27218795972E+01  0.14303504414E+03  0.12500169554E+03 0.  0.
          2    1    1    2  501    0  0.21996849905E+02  0.14258771945E+02 -0.16638395845E+03  0.16843632510E+03  0.00000000000E+00 0. -1.
          1    1    1    2  502    0  0.43275811728E+02  0.95250666930E+01  0.95304426069E+03  0.95407383656E+03  0.00000000000E+00 0. -1.
         22    1    3    3    0    0 -0.63666819425E+02  0.23671833283E+02 -0.43319288876E+02  0.80562897014E+02  0.00000000000E+00 0. -1.
         22    1    3    3    0    0 -0.16058422074E+01 -0.47455671921E+02  0.40597409278E+02  0.62472147128E+02  0.00000000000E+00 0. -1.
</event>
<event>
 7    1  0.6122298E-006  0.6806274E+02  0.7818608E-02  0.1427726E+00
          2   -1    0    0  502    0  0.00000000000E+00  0.00000000000E+00  0.18811632582E+04  0.18811632582E+04  0.00000000000E+00 0. -1.
          1   -1    0    0  501    0 -0.00000000000E+00 -0.00000000000E+00 -0.11657631581E+03  0.11657631581E+03  0.00000000000E+00 0. -1.
         25    2    1    2    0    0  0.26808143048E+01 -0.29837005048E+02  0.43764464540E+03  0.45612921674E+03  0.12499437221E+03 0.  0.
          2    1    1    2  501    0 -0.75860135669E+00 -0.41919155671E+02 -0.10230445600E+03  0.11056216715E+03  0.00000000000E+00 0. -1.
          1    1    1    2  502    0 -0.19222129481E+01  0.71756160719E+02  0.14292467530E+04  0.14310481901E+04  0.00000000000E+00 0. -1.
         22    1    3    3    0    0 -0.48243039049E+02 -0.52728896111E+02  0.21390373241E+03  0.22552723570E+03  0.00000000000E+00 0. -1.
         22    1    3    3    0    0  0.50923853354E+02  0.22891891063E+02  0.22374091299E+03  0.23060198104E+03  0.00000000000E+00 0. -1.
</event>
<event>
 7    1  0.6122298E-006  0.1219910E+03  0.7818608E-02  0.1349651E+00
          2   -1    0    0  502    0  0.00000000000E+00  0.00000000000E+00  0.84531997883E+02  0.84531997883E+02  0.00000000000E+00 0. -1.
          1   -1    0    0  501    0 -0.00000000000E+00 -0.00000000000E+00 -0.15808971294E+04  0.15808971294E+04  0.00000000000E+00 0. -1.
         25    2    1    2    0    0 -0.12541376881E+03  0.52626534972E+02 -0.67461034010E+03  0.69944339882E+03  0.12499516629E+03 0.  0.
          2    1    1    2  501    0  0.34184826288E+02  0.27512188242E+02 -0.84177476909E+03  0.84291772121E+03  0.00000000000E+00 0. -1.
          1    1    1    2  502    0  0.91228942519E+02 -0.80138723214E+02  0.20019977643E+02  0.12306800728E+03  0.00000000000E+00 0. -1.
         22    1    3    3    0    0 -0.89121164243E+02  0.10733781374E+02 -0.59902527556E+03  0.60571369205E+03  0.00000000000E+00 0. -1.
         22    1    3    3    0    0 -0.36292604563E+02  0.41892753597E+02 -0.75585064545E+02  0.93729706775E+02  0.00000000000E+00 0. -1.
</event>
<event>
 7    1  0.6122298E-006  0.4590825E+02  0.7818608E-02  0.1513385E+00
          2   -1    0    0  502    0  0.00000000000E+00  0.00000000000E+00  0.29404591596E+03  0.29404591596E+03  0.00000000000E+00 0. -1.
          1   -1    0    0  501    0 -0.00000000000E+00 -0.00000000000E+00 -0.81126249914E+02  0.81126249914E+02  0.00000000000E+00 0. -1.
         25    2    1    2    0    0 -0.69708587111E+00 -0.21497235543E+02  0.19065182775E+03  0.22898890357E+03  0.12500072587E+03 0.  0.
          2    1    1    2  501    0  0.31378369834E+02  0.35322948023E+02 -0.48569160218E+02  0.67758955679E+02  0.00000000000E+00 0. -1.
          1    1    1    2  502    0 -0.30681283963E+02 -0.13825712480E+02  0.70836998510E+02  0.78424306621E+02  0.00000000000E+00 0. -1.
         22    1    3    3    0    0  0.42874265199E+02  0.23394570494E+02  0.14069045061E+03  0.14892720181E+03  0.00000000000E+00 0. -1.
         22    1    3    3    0    0 -0.43571351070E+02 -0.44891806037E+02  0.49961377137E+02  0.80061701760E+02  0.00000000000E+00 0. -1.
</event>
<event>
 7    1  0.6122298E-006  0.1863108E+03  0.7818608E-02  0.1240407E+00
          2   -1    0    0  502    0  0.00000000000E+00  0.00000000000E+00  0.96900962640E+03  0.96900962640E+03  0.00000000000E+00 0. -1.
          1   -1    0    0  501    0 -0.00000000000E+00 -0.00000000000E+00 -0.13357272189E+04  0.13357272189E+04  0.00000000000E+00 0. -1.
         25    2    1    2    0    0  0.16911954269E+03 -0.65085492768E+02  0.47091783993E+03  0.51982683744E+03  0.12497514903E+03 0.  0.
          2    1    1    2  501    0  0.28657353789E+02  0.74073806576E+02 -0.12893081050E+04  0.12917521288E+04  0.00000000000E+00 0. -1.
          1    1    1    2  502    0 -0.19777689648E+03 -0.89883138083E+01  0.45167267253E+03  0.49315787906E+03  0.00000000000E+00 0. -1.
         22    1    3    3    0    0  0.18884342996E+03 -0.56637884557E+02  0.44044996116E+03  0.48256176734E+03  0.00000000000E+00 0. -1.
         22    1    3    3    0    0 -0.19723887271E+02 -0.84476082115E+01  0.30467878764E+02  0.37265070105E+02  0.00000000000E+00 0. -1.
</event>
<event>
 7    1  0.6122298E-006  0.1512319E+03  0.7818608E-02  0.1359514E+00
          2   -1    0    0  502    0  0.00000000000E+00  0.00000000000E+00  0.43166248536E+03  0.43166248536E+03  0.00000000000E+00 0. -1.
          1   -1    0    0  501    0 -0.00000000000E+00 -0.00000000000E+00 -0.42287410983E+03  0.42287410983E+03  0.00000000000E+00 0. -1.
         25    2    1    2    0    0 -0.11604916227E+02 -0.16170799080E+03  0.14265814161E+01  0.20470558695E+03  0.12497277233E+03 0.  0.
          2    1    1    2  501    0 -0.18243202431E+02  0.14870195818E+03 -0.30286840934E+03  0.33789696681E+03  0.00000000000E+00 0. -1.
          1    1    1    2  502    0  0.29848118658E+02  0.13006032615E+02  0.31023020345E+03  0.31193404143E+03  0.00000000000E+00 0. -1.
         22    1    3    3    0    0  0.44316174786E+02 -0.12054412599E+03 -0.24195275951E+02  0.13069131967E+03  0.00000000000E+00 0. -1.
         22    1    3    3    0    0 -0.55921091013E+02 -0.41163864807E+02  0.25621857367E+02  0.74014267279E+02  0.00000000000E+00 0. -1.
</event>
<event>
 7    1  0.6122298E-006  0.5920514E+02  0.7818608E-02  0.1540228E+00
          2   -1    0    0  502    0  0.00000000000E+00  0.00000000000E+00  0.15511745192E+03  0.15511745192E+03  0.00000000000E+00 0. -1.
          1   -1    0    0  501    0 -0.00000000000E+00 -0.00000000000E+00 -0.10506892737E+04  0.10506892737E+04  0.00000000000E+00 0. -1.
         25    2    1    2    0    0  0.74850371289E+01 -0.44576689412E+02 -0.77186008246E+02  0.15370740824E+03  0.12500072184E+03 0.  0.
          2    1    1    2  501    0  0.89815404477E+01  0.58927804641E+02 -0.93326265116E+03  0.93516433330E+03  0.00000000000E+00 0. -1.
          1    1    1    2  502    0 -0.16466577577E+02 -0.14351115229E+02  0.11487683761E+03  0.11693498409E+03  0.00000000000E+00 0. -1.
         22    1    3    3    0    0  0.25708538914E+02 -0.84880831500E+02 -0.51241400479E+02  0.10242736769E+03  0.00000000000E+00 0.  1.
         22    1    3    3    0    0 -0.18223501785E+02  0.40304142088E+02 -0.25944607767E+02  0.51280040551E+02  0.00000000000E+00 0.  1.
</event>
<event>
 7    1  0.6122298E-006  0.7428849E+02  0.7818608E-02  0.1366674E+00
          2   -1    0    0  502    0  0.00000000000E+00  0.00000000000E+00  0.11334675274E+04  0.11334675274E+04  0.00000000000E+00 0. -1.
          1   -1    0    0  501    0 -0.00000000000E+00 -0.00000000000E+00 -0.46436920311E+03  0.46436920311E+03  0.00000000000E+00 0. -1.
         25    2    1    2    0    0  0.30365951359E+02  0.39128628949E+01  0.44417863083E+03  0.46244766936E+03  0.12500315722E+03 0.  0.
          2    1    1    2  501    0 -0.50200996849E+02  0.55280356740E+02 -0.45072379251E+03  0.45686759029E+03  0.00000000000E+00 0. -1.
          1    1    1    2  502    0  0.19835045489E+02 -0.59193219635E+02  0.67564348593E+03  0.67852147082E+03  0.00000000000E+00 0. -1.
         22    1    3    3    0    0  0.48716374502E+02  0.48837903126E+02  0.34741401048E+03  0.35419616119E+03  0.00000000000E+00 0.  1.
         22    1    3    3    0    0 -0.18350423143E+02 -0.44925040231E+02  0.96764620353E+02  0.10825150817E+03  0.00000000000E+00 0.  1.
</event>
<event>
 7    1  0.6122298E-006  0.1193476E+03  0.7818608E-02  0.1276493E+00
          2   -1    0    0  502    0  0.00000000000E+00  0.00000000000E+00  0.30793379714E+04  0.30793379714E+04  0.00000000000E+00 0. -1.
          1   -1    0    0  501    0 -0.00000000000E+00 -0.00000000000E+00 -0.28075652084E+02  0.28075652084E+02  0.00000000000E+00 0. -1.
         25    2    1    2    0    0  0.86257316862E+02  0.22624827983E+02  0.19565517801E+04  0.19625677276E+04  0.12500003791E+03 0.  0.
          2    1    1    2  501    0 -0.66908944873E+02  0.98828363118E+02  0.14774435423E+03  0.18992695035E+03  0.00000000000E+00 0. -1.
          1    1    1    2  502    0 -0.19348371988E+02 -0.12145319110E+03  0.94696618494E+03  0.95491894554E+03  0.00000000000E+00 0. -1.
         22    1    3    3    0    0 -0.21750595777E+02  0.37540447798E+02  0.45571375819E+03  0.45777440191E+03  0.00000000000E+00 0.  1.
         22    1    3    3    0    0  0.10800791264E+03 -0.14915619815E+02  0.15008380219E+04  0.15047933257E+04  0.00000000000E+00 0.  1.
</event>
<event>
 7    1  0.6122298E-006  0.1043587E+03  0.7818608E-02  0.1344300E+00
          2   -1    0    0  502    0  0.00000000000E+00  0.00000000000E+00  0.44131764938E+03  0.44131764938E+03  0.00000000000E+00 0. -1.
          1   -1    0    0  501    0 -0.00000000000E+00 -0.00000000000E+00 -0.10806014858E+04  0.10806014858E+04  0.00000000000E+00 0. -1.
         25    2    1    2    0    0 -0.69604928901E+02 -0.56056470520E+01 -0.26223282449E+02  0.14556631428E+03  0.12500248760E+03 0.  0.
          2    1    1    2  501    0  0.98732087551E+02 -0.39510826381E+02 -0.98995559731E+03  0.99565115134E+03  0.00000000000E+00 0. -1.
          1    1    1    2  502    0 -0.29127158650E+02  0.45116473433E+02  0.37689504331E+03  0.38070166958E+03  0.00000000000E+00 0. -1.
         22    1    3    3    0    0  0.34353624629E+02 -0.17006925638E+02 -0.30952824137E+01  0.38457610665E+02  0.00000000000E+00 0. -1.
         22    1    3    3    0    0 -0.10395855353E+03  0.11401278586E+02 -0.23128000036E+02  0.10710870362E+03  0.00000000000E+00 0. -1.
</event>
<event>
 7    1  0.6122298E-006  0.6541505E+02  0.7818608E-02  0.1377870E+00
          2   -1    0    0  502    0  0.00000000000E+00  0.00000000000E+00  0.78427067250E+03  0.78427067250E+03  0.00000000000E+00 0. -1.
          1   -1    0    0  501    0 -0.00000000000E+00 -0.00000000000E+00 -0.22248860734E+03  0.22248860734E+03  0.00000000000E+00 0. -1.
         25    2    1    2    0    0  0.33859383916E+02 -0.64001128225E+02  0.40262675198E+02  0.14996013814E+03  0.12499743087E+03 0.  0.
          2    1    1    2  501    0  0.30630104781E+02  0.59578176588E+02 -0.15935485305E+03  0.17286333224E+03  0.00000000000E+00 0. -1.
          1    1    1    2  502    0 -0.64489488697E+02  0.44229516369E+01  0.68087424301E+03  0.68393580945E+03  0.00000000000E+00 0. -1.
         22    1    3    3    0    0 -0.16077145891E+02  0.22116638235E+02 -0.19742584767E+02  0.33725212528E+02  0.00000000000E+00 0. -1.
         22    1    3    3    0    0  0.49936529806E+02 -0.86117766459E+02  0.60005259965E+02  0.11623492561E+03  0.00000000000E+00 0. -1.
</event>
<event>
 7    1  0.6122298E-006  0.6452245E+02  0.7818608E-02  0.1439527E+00
          2   -1    0    0  502    0  0.00000000000E+00  0.00000000000E+00  0.78770284986E+03  0.78770284986E+03  0.00000000000E+00 0. -1.
          1   -1    0    0  501    0 -0.00000000000E+00 -0.00000000000E+00 -0.86293927911E+03  0.86293927911E+03  0.00000000000E+00 0. -1.
         25    2    1    2    0    0 -0.40755035309E+02 -0.89599484753E+02 -0.81066655661E+01  0.15931121157E+03  0.12500121413E+03 0.  0.
          2    1    1    2  501    0  0.10101722859E+02  0.63190080661E+02 -0.77733976253E+03  0.77996931831E+03  0.00000000000E+00 0. -1.
          1    1    1    2  502    0  0.30653312450E+02  0.26409404091E+02  0.71020999885E+03  0.71136159909E+03  0.00000000000E+00 0. -1.
         22    1    3    3    0    0 -0.37602561187E+02 -0.31547694453E+02 -0.62653769449E+02  0.79590856631E+02  0.00000000000E+00 0. -1.
         22    1    3    3    0    0 -0.31524741223E+01 -0.58051790299E+02  0.54547103883E+02  0.79720354942E+02  0.00000000000E+00 0. -1.
</event>
<event>
 7    1  0.6122298E-006  0.5033826E+02  0.7818608E-02  0.1493838E+00
          2   -1    0    0  502    0  0.00000000000E+00  0.00000000000E+00  0.22280465026E+04  0.22280465026E+04  0.00000000000E+00 0. -1.
          1   -1    0    0  501    0 -0.00000000000E+00 -0.00000000000E+00 -0.15629418830E+03  0.15629418830E+03  0.00000000000E+00 0. -1.
         25    2    1    2    0    0  0.41203816341E+02  0.48418468298E+02  0.22961514419E+03  0.26905439659E+03  0.12500020532E+03 0.  0.
          2    1    1    2  501    0 -0.48277326063E+02 -0.14059310727E+02 -0.13178525580E+03  0.14105218211E+03  0.00000000000E+00 0. -1.
          1    1    1    2  502    0  0.70735097227E+01 -0.34359157571E+02  0.19739224259E+04  0.19742341122E+04  0.00000000000E+00 0. -1.
         22    1    3    3    0    0 -0.15811251442E+01  0.39543171053E+02  0.22100255327E+03  0.22451790771E+03  0.00000000000E+00 0.  1.
         22    1    3    3    0    0  0.42784941485E+02  0.88752972451E+01  0.86125909244E+01  0.44536488877E+02  0.00000000000E+00 0.  1.
</event>
<event>
 7    1  0.6122298E-006  0.8472826E+02  0.7818608E-02  0.1459193E+00
          2   -1    0    0  502    0  0.00000000000E+00  0.00000000000E+00  0.91652150969E+03  0.91652150969E+03  0.00000000000E+00 0. -1.
          1   -1    0    0  501    0 -0.00000000000E+00 -0.00000000000E+00 -0.73466607072E+02  0.73466607072E+02  0.00000000000E+00 0. -1.
         25    2    1    2    0    0  0.20322179525E+02 -0.69181504097E+02  0.12601260194E+03  0.19159465677E+03  0.12502105889E+03 0.  0.
          2    1    1    2  501    0 -0.27062396651E+01  0.89182004654E+02  0.88067908284E+01  0.89656640869E+02  0.00000000000E+00 0. -1.
          1    1    1    2  502    0 -0.17615939860E+02 -0.20000500557E+02  0.70823550985E+03  0.70873681912E+03  0.00000000000E+00 0. -1.
         22    1    3    3    0    0 -0.50836573532E+02 -0.45691172536E+02  0.48708899880E+02  0.83932099841E+02  0.00000000000E+00 0. -1.
         22    1    3    3    0    0  0.71158753057E+02 -0.23490331561E+02  0.77303702058E+02  0.10766255693E+03  0.00000000000E+00 0. -1.
</event>
<event>
 7    1  0.6122298E-006  0.9408915E+02  0.7818608E-02  0.1369336E+00
          2   -1    0    0  502    0  0.00000000000E+00  0.00000000000E+00  0.12882782562E+04  0.12882782562E+04  0.00000000000E+00 0. -1.
          1   -1    0    0  501    0 -0.00000000000E+00 -0.00000000000E+00 -0.95049940027E+02  0.95049940027E+02  0.00000000000E+00 0. -1.
         25    2    1    2    0    0  0.18870993268E+02 -0.66438289054E+02  0.35071654362E+03  0.37867635401E+03  0.12499410577E+03 0.  0.
          2    1    1    2  501    0 -0.35808046486E+02 -0.32284008316E+02 -0.70913637665E+02  0.85750903161E+02  0.00000000000E+00 0. -1.
          1    1    1    2  502    0  0.16937053217E+02  0.98722297369E+02  0.91342541023E+03  0.91890093907E+03  0.00000000000E+00 0. -1.
         22    1    3    3    0    0  0.36312270714E+02 -0.97968527723E+02  0.22840761596E+03  0.25117016634E+03  0.00000000000E+00 0. -1.
         22    1    3    3    0    0 -0.17441277446E+02  0.31530238669E+02  0.12230892766E+03  0.12750618767E+03  0.00000000000E+00 0. -1.
</event>
<event>
 7    1  0.6122298E-006  0.1511953E+03  0.7818608E-02  0.1366444E+00
          2   -1    0    0  502    0  0.00000000000E+00  0.00000000000E+00  0.10066772164E+04  0.10066772164E+04  0.00000000000E+00 0. -1.
          1   -1    0    0  501    0 -0.00000000000E+00 -0.00000000000E+00 -0.50450225320E+03  0.50450225320E+03  0.00000000000E+00 0. -1.
         25    2    1    2    0    0 -0.55387016060E+02 -0.17029407245E+03 -0.21884129168E+03  0.30916666705E+03  0.12499889766E+03 0.  0.
          2    1    1    2  501    0 -0.11084182254E+01  0.30712163063E+02 -0.23359001123E+03  0.23560296878E+03  0.00000000000E+00 0. -1.
          1    1    1    2  502    0  0.56495434285E+02  0.13958190938E+03  0.95460626607E+03  0.96640983374E+03  0.00000000000E+00 0. -1.
         22    1    3    3    0    0 -0.12293441878E+02 -0.11760935575E+02  0.15473092480E+02  0.22997063067E+02  0.00000000000E+00 0. -1.
         22    1    3    3    0    0 -0.43093574182E+02 -0.15853313687E+03 -0.23431438416E+03  0.28616960399E+03  0.00000000000E+00 0. -1.
</event>
<event>
 7    1  0.6122298E-006  0.1220090E+03  0.7818608E-02  0.1334098E+00
          2   -1    0    0  502    0  0.00000000000E+00  0.00000000000E+00  0.74859625792E+03  0.74859625792E+03  0.00000000000E+00 0. -1.
          1   -1    0    0  501    0 -0.00000000000E+00 -0.00000000000E+00 -0.38408856234E+03  0.38408856234E+03  0.00000000000E+00 0. -1.
         25    2    1    2    0    0 -0.10045880036E+03 -0.85738966281E+02 -0.14023966666E+03  0.22963976333E+03  0.12499646350E+03 0.  0.
          2    1    1    2  501    0  0.44716084163E+02 -0.22777432436E+02 -0.19059039794E+03  0.19708637547E+03  0.00000000000E+00 0. -1.
          1    1    1    2  502    0  0.55742716196E+02  0.10851639872E+03  0.69533776018E+03  0.70595868146E+03  0.00000000000E+00 0. -1.
         22    1    3    3    0    0 -0.75853354075E+01 -0.85157264553E+02 -0.45009067093E+02  0.96618389243E+02  0.00000000000E+00 0. -1.
         22    1    3    3    0    0 -0.92873464951E+02 -0.58170172769E+00 -0.95230599570E+02  0.13302137409E+03  0.00000000000E+00 0. -1.
</event>
<event>
 7    1  0.6122298E-006  0.8306204E+02  0.7818608E-02  0.1335330E+00
          2   -1    0    0  502    0  0.00000000000E+00  0.00000000000E+00  0.33150810585E+03  0.33150810585E+03  0.00000000000E+00 0. -1.
          1   -1    0    0  501    0 -0.00000000000E+00 -0.00000000000E+00 -0.15052131766E+04  0.15052131766E+04  0.00000000000E+00 0. -1.
         25    2    1    2    0    0 -0.21514960222E+02 -0.62962156121E+02  0.20035823005E+03  0.24534483213E+03  0.12499415861E+03 0.  0.
          2    1    1    2  501    0 -0.73631484221E+02  0.38440957116E+02 -0.14590820853E+04  0.14614444342E+04  0.00000000000E+00 0. -1.
          1    1    1    2  502    0  0.95146444443E+02  0.24521199006E+02  0.85018784498E+02  0.12993201610E+03  0.00000000000E+00 0. -1.
         22    1    3    3    0    0  0.47171999926E+02 -0.24426137284E+02  0.12721591642E+03  0.13786124601E+03  0.00000000000E+00 0.  1.
         22    1    3    3    0    0 -0.68686960148E+02 -0.38536018837E+02  0.73142313628E+02  0.10748358612E+03  0.00000000000E+00 0.  1.
</event>
<event>
 7    1  0.6122298E-006  0.2400393E+03  0.7818608E-02  0.1168106E+00
          2   -1    0    0  502    0  0.00000000000E+00  0.00000000000E+00  0.46665408565E+03  0.46665408565E+03  0.00000000000E+00 0. -1.
          1   -1    0    0  501    0 -0.00000000000E+00 -0.00000000000E+00 -0.80067175427E+03  0.80067175427E+03  0.00000000000E+00 0. -1.
         25    2    1    2    0    0  0.21423319076E+03  0.75662868234E+02 -0.48248781285E+03  0.54775894756E+03  0.12499858167E+03 0.  0.
          2    1    1    2  501    0 -0.28856182835E+03  0.36443752757E+02 -0.19535266407E+03  0.35036943254E+03  0.00000000000E+00 0. -1.
          1    1    1    2  502    0  0.74328637590E+02 -0.11210662099E+03  0.34382280830E+03  0.36919745983E+03  0.00000000000E+00 0. -1.
         22    1    3    3    0    0  0.15397265191E+03 -0.80930613142E+01 -0.32121047707E+03  0.35629937659E+03  0.00000000000E+00 0.  1.
         22    1    3    3    0    0  0.60260538855E+02  0.83755929548E+02 -0.16127733578E+03  0.19145957097E+03  0.00000000000E+00 0.  1.
</event>
<event>
 7    1  0.6122298E-006  0.7310708E+02  0.7818608E-02  0.1476914E+00
          2   -1    0    0  502    0  0.00000000000E+00  0.00000000000E+00  0.92303369739E+03  0.92303369739E+03  0.00000000000E+00 0. -1.
          1   -1    0    0  501    0 -0.00000000000E+00 -0.00000000000E+00 -0.42664556898E+02  0.42664556898E+02  0.00000000000E+00 0. -1.
         25    2    1    2    0    0  0.45634179028E+02 -0.67125107866E+02  0.38619490860E+03  0.41395658454E+03  0.12500115221E+03 0.  0.
          2    1    1    2  501    0 -0.18613428786E+02  0.70219139037E+02  0.18065634220E+02  0.74856892522E+02  0.00000000000E+00 0. -1.
          1    1    1    2  502    0 -0.27020750242E+02 -0.30940311713E+01  0.47610859767E+03  0.47688477722E+03  0.00000000000E+00 0. -1.
         22    1    3    3    0    0  0.56173625737E+02 -0.90148852214E+02  0.20386265751E+03  0.22987447642E+03  0.00000000000E+00 0.  1.
         22    1    3    3    0    0 -0.10539446709E+02  0.23023744349E+02  0.18233225109E+03  0.18408210812E+03  0.00000000000E+00 0.  1.
</event>
<event>
 7    1  0.6122298E-006  0.5381400E+02  0.7818608E-02  0.1480089E+00
          2   -1    0    0  502    0  0.00000000000E+00  0.00000000000E+00  0.54610543599E+03  0.54610543599E+03  0.00000000000E+00 0. -1.
          1   -1    0    0  501    0 -0.00000000000E+00 -0.00000000000E+00 -0.22507568084E+03  0.22507568084E+03  0.00000000000E+00 0. -1.
         25    2    1    2    0    0  0.38686296433E+02 -0.24664568872E+02  0.25487054190E+03  0.28755682698E+03  0.12499986050E+03 0.  0.
          2    1    1    2  501    0 -0.53419997793E+02 -0.83214416295E+01 -0.20400905600E+03  0.21105126743E+03  0.00000000000E+00 0. -1.
          1    1    1    2  502    0  0.14733701360E+02  0.32986010501E+02  0.27016826925E+03  0.27257302242E+03  0.00000000000E+00 0. -1.
         22    1    3    3    0    0  0.70079492336E+02  0.36527353778E+01  0.74697350366E+02  0.10248986230E+03  0.00000000000E+00 0. -1.
         22    1    3    3    0    0 -0.31393195903E+02 -0.28317304249E+02  0.18017319153E+03  0.18506696468E+03  0.00000000000E+00 0. -1.
</event>
<event>
 7    1  0.6122298E-006  0.1280203E+03  0.7818608E-02  0.1280624E+00
          2   -1    0    0  502    0  0.00000000000E+00  0.00000000000E+00  0.93988089674E+03  0.93988089674E+03  0.00000000000E+00 0. -1.
          1   -1    0    0  501    0 -0.00000000000E+00 -0.00000000000E+00 -0.39916895150E+03  0.39916895150E+03  0.00000000000E+00 0. -1.
         25    2    1    2    0    0 -0.68516911930E+02 -0.39234275135E+02  0.74595647892E+02  0.16560184833E+03  0.12500226366E+03 0.  0.
          2    1    1    2  501    0  0.66000515827E+02  0.11706328637E+03 -0.33895288728E+03  0.36462164075E+03  0.00000000000E+00 0. -1.
          1    1    1    2  502    0  0.25163961034E+01 -0.77829011237E+02  0.80506918462E+03  0.80882635916E+03  0.00000000000E+00 0. -1.
         22    1    3    3    0    0 -0.49307181958E+02 -0.72885161400E+02  0.77495949534E+01  0.88337427893E+02  0.00000000000E+00 0.  1.
         22    1    3    3    0    0 -0.19209729973E+02  0.33650886265E+02  0.66846052939E+02  0.77264420437E+02  0.00000000000E+00 0.  1.
</event>
<event>
 7    1  0.6122298E-006  0.1429624E+03  0.7818608E-02  0.1270194E+00
          2   -1    0    0  502    0  0.00000000000E+00  0.00000000000E+00  0.22293754845E+04  0.22293754845E+04  0.00000000000E+00 0. -1.
          1   -1    0    0  501    0 -0.00000000000E+00 -0.00000000000E+00 -0.50303583955E+03  0.50303583955E+03  0.00000000000E+00 0. -1.
         25    2    1    2    0    0  0.18267569291E+03  0.51142738571E+02  0.13676243257E+03  0.26516875481E+03  0.12499806829E+03 0.  0.
          2    1    1    2  501    0 -0.69290538470E+02  0.33727289358E+02 -0.43295381080E+03  0.43975869639E+03  0.00000000000E+00 0. -1.
          1    1    1    2  502    0 -0.11338515444E+03 -0.84870027929E+02  0.20225310232E+04  0.20274838729E+04  0.00000000000E+00 0. -1.
         22    1    3    3    0    0 -0.79512923718E+01  0.15393981622E+02  0.49588802049E+02  0.52528535190E+02  0.00000000000E+00 0. -1.
         22    1    3    3    0    0  0.19062698529E+03  0.35748756948E+02  0.87173630525E+02  0.21264021962E+03  0.00000000000E+00 0. -1.
</event>
<event>
 7    1  0.6122298E-006  0.8588306E+02  0.7818608E-02  0.1353375E+00
          2   -1    0    0  502    0  0.00000000000E+00  0.00000000000E+00  0.32888444271E+04  0.32888444271E+04  0.00000000000E+00 0. -1.
          1   -1    0    0  501    0 -0.00000000000E+00 -0.00000000000E+00 -0.39677231310E+02  0.39677231310E+02  0.00000000000E+00 0. -1.
         25    2    1    2    0    0 -0.42734600075E+02  0.73125692432E+02  0.67433853839E+03  0.69103605356E+03  0.12499900006E+03 0.  0.
          2    1    1    2  501    0  0.58952777995E+02  0.13073173605E+02 -0.77401520014E+00  0.60389874988E+02  0.00000000000E+00 0. -1.
          1    1    1    2  502    0 -0.16218177921E+02 -0.86198866037E+02  0.25756026726E+04  0.25770957299E+04  0.00000000000E+00 0. -1.
         22    1    3    3    0    0 -0.58323451088E+02  0.98026701480E+02  0.60613684754E+03  0.61677608343E+03  0.00000000000E+00 0.  1.
         22    1    3    3    0    0  0.15588851013E+02 -0.24901009048E+02  0.68201690854E+02  0.74259970124E+02  0.00000000000E+00 0.  1.
</event>
<event>
 7    1  0.6122298E-006  0.1483343E+03  0.7818608E-02  0.1265509E+00
          2   -1    0    0  502    0  0.00000000000E+00  0.00000000000E+00  0.38013060831E+03  0.38013060831E+03  0.00000000000E+00 0. -1.
          1   -1    0    0  501    0 -0.00000000000E+00 -0.00000000000E+00 -0.33538650296E+03  0.33538650296E+03  0.00000000000E+00 0. -1.
         25    2    1    2    0    0  0.19183561122E+03  0.75391748591E+02 -0.97831090738E+02  0.26015517328E+03  0.12499989752E+03 0.  0.
          2    1    1    2  501    0 -0.12206416186E+03 -0.41137619463E+02 -0.12332856868E+03  0.17833087001E+03  0.00000000000E+00 0. -1.
          1    1    1    2  502    0 -0.69771449364E+02 -0.34254129128E+02  0.26590376477E+03  0.27703106798E+03  0.00000000000E+00 0. -1.
         22    1    3    3    0    0 -0.38224362353E+01  0.95557400435E+01  0.19973894951E+02  0.22469527500E+02  0.00000000000E+00 0.  1.
         22    1    3    3    0    0  0.19565804746E+03  0.65836008547E+02 -0.11780498569E+03  0.23768564578E+03  0.00000000000E+00 0.  1.
</event>
<event>
 7    1  0.6122298E-006  0.2850912E+03  0.7818608E-02  0.1206817E+00
          2   -1    0    0  502    0  0.00000000000E+00  0.00000000000E+00  0.16225228016E+04  0.16225228016E+04  0.00000000000E+00 0. -1.
          1   -1    0    0  501    0 -0.00000000000E+00 -0.00000000000E+00 -0.58501742568E+03  0.58501742568E+03  0.00000000000E+00 0. -1.
         25    2    1    2    0    0 -0.31919170194E+03 -0.11749303118E+03 -0.13046752569E+02  0.36260537092E+03  0.12499792922E+03 0.  0.
          2    1    1    2  501    0  0.44002119070E+02  0.59121937181E+02 -0.37995149787E+03  0.38703324233E+03  0.00000000000E+00 0. -1.
          1    1    1    2  502    0  0.27518958287E+03  0.58371093996E+02  0.14305036264E+04  0.14579016140E+04  0.00000000000E+00 0. -1.
         22    1    3    3    0    0 -0.32560143291E+03 -0.10866864868E+03 -0.27661597183E+02  0.34436947060E+03  0.00000000000E+00 0. -1.
         22    1    3    3    0    0  0.64097309754E+01 -0.88243824997E+01  0.14614844614E+02  0.18235900328E+02  0.00000000000E+00 0. -1.
</event>
<event>
 7    1  0.6122298E-006  0.9412479E+02  0.7818608E-02  0.1435048E+00
          2   -1    0    0  502    0  0.00000000000E+00  0.00000000000E+00  0.30343614683E+04  0.30343614683E+04  0.00000000000E+00 0. -1.
          1   -1    0    0  501    0 -0.00000000000E+00 -0.00000000000E+00 -0.92475383502E+03  0.92475383502E+03  0.00000000000E+00 0. -1.
         25    2    1    2    0    0 -0.10971430677E+03 -0.39149127993E+02  0.85188632734E+01  0.17107777334E+03  0.12500060067E+03 0.  0.
          2    1    1    2  501    0  0.27841525589E+02 -0.68988849158E+01 -0.84248110409E+03  0.84296924969E+03  0.00000000000E+00 0. -1.
          1    1    1    2  502    0  0.81872781178E+02  0.46048012909E+02  0.29435698741E+04  0.29450682803E+04  0.00000000000E+00 0. -1.
         22    1    3    3    0    0 -0.13207524308E+03 -0.20995344474E+02 -0.14073334970E+02  0.13447205316E+03  0.00000000000E+00 0. -1.
         22    1    3    3    0    0  0.22360936311E+02 -0.18153783519E+02  0.22592198244E+02  0.36605720185E+02  0.00000000000E+00 0. -1.
</event>
<event>
 7    1  0.6122298E-006  0.2193661E+03  0.7818608E-02  0.1366537E+00
          2   -1    0    0  502    0  0.00000000000E+00  0.00000000000E+00  0.90388324533E+03  0.90388324533E+03  0.00000000000E+00 0. -1.
          1   -1    0    0  501    0 -0.00000000000E+00 -0.00000000000E+00 -0.30595449753E+03  0.30595449753E+03  0.00000000000E+00 0. -1.
         25    2    1    2    0    0  0.15384217249E+03  0.14721747366E+03  0.49690118072E+03  0.55486252502E+03  0.12498495781E+03 0.  0.
          2    1    1    2  501    0 -0.14423901294E+03 -0.16607894199E+03 -0.23291109245E+03  0.32036648516E+03  0.00000000000E+00 0. -1.
          1    1    1    2  502    0 -0.96031595468E+01  0.18861468334E+02  0.33393865952E+03  0.33460873268E+03  0.00000000000E+00 0. -1.
         22    1    3    3    0    0  0.89676939485E+02  0.87255288161E+02  0.14201525584E+03  0.18927168747E+03  0.00000000000E+00 0. -1.
         22    1    3    3    0    0  0.64165233005E+02  0.59962185495E+02  0.35488592488E+03  0.36559083754E+03  0.00000000000E+00 0. -1.
</event>
<event>
 7    1  0.6122298E-006  0.1500601E+03  0.7818608E-02  0.1366484E+00
          2   -1    0    0  502    0  0.00000000000E+00  0.00000000000E+00  0.13721898316E+04  0.13721898316E+04  0.00000000000E+00 0. -1.
          1   -1    0    0  501    0 -0.00000000000E+00 -0.00000000000E+00 -0.39204943562E+03  0.39204943562E+03  0.00000000000E+00 0. -1.
         25    2    1    2    0    0 -0.73527234713E+01  0.12280768261E+03  0.13693477825E+03  0.22251529729E+03  0.12500453824E+03 0.  0.
          2    1    1    2  501    0 -0.10907013424E+01 -0.15258837287E+03 -0.33237872337E+03  0.36573216554E+03  0.00000000000E+00 0. -1.
          1    1    1    2  502    0  0.84434248137E+01  0.29780690260E+02  0.11755843411E+04  0.11759918044E+04  0.00000000000E+00 0. -1.
         22    1    3    3    0    0 -0.41290596471E+02  0.64669312080E+02  0.81007088092E+01  0.77153449470E+02  0.00000000000E+00 0.  1.
         22    1    3    3    0    0  0.33937873000E+02  0.58138370529E+02  0.12883406944E+03  0.14536184782E+03  0.00000000000E+00 0.  1.
</event>
<event>
 7    1  0.6122298E-006  0.8214165E+02  0.7818608E-02  0.1324233E+00
          2   -1    0    0  502    0  0.00000000000E+00  0.00000000000E+00  0.90932584123E+03  0.90932584123E+03  0.00000000000E+00 0. -1.
          1   -1    0    0  501    0 -0.00000000000E+00 -0.00000000000E+00 -0.29841855575E+03  0.29841855575E+03  0.00000000000E+00 0. -1.
         25    2    1    2    0    0  0.67755242682E+02 -0.11460628353E+01  0.11805308413E+03  0.18480392037E+03  0.12499548768E+03 0.  0.
          2    1    1    2  501    0 -0.31769053248E+02 -0.75749437627E+02 -0.25622281246E+03  0.26906761170E+03  0.00000000000E+00 0. -1.
          1    1    1    2  502    0 -0.35986189434E+02  0.76895500462E+02  0.74907701381E+03  0.75387286491E+03  0.00000000000E+00 0. -1.
         22    1    3    3    0    0 -0.21043225117E+00 -0.43454556691E+02  0.15976955698E+01  0.43484427213E+02  0.00000000000E+00 0.  1.
         22    1    3    3    0    0  0.67965674933E+02  0.42308493856E+02  0.11645538856E+03  0.14131949315E+03  0.00000000000E+00 0.  1.
</event>
<event>
 7    1  0.6122298E-006  0.6278152E+02  0.7818608E-02  0.1407098E+00
          2   -1    0    0  502    0  0.00000000000E+00  0.00000000000E+00  0.19073309473E+04  0.19073309473E+04  0.00000000000E+00 0. -1.
          1   -1    0    0  501    0 -0.00000000000E+00 -0.00000000000E+00 -0.26018035962E+03  0.26018035962E+03  0.00000000000E+00 0. -1.
         25    2    1    2    0    0  0.70575905324E+02  0.43992188337E+02  0.21835167416E+03  0.26498779948E+03  0.12499923686E+03 0.  0.
          2    1    1    2  501    0 -0.84328687327E+01 -0.52628047017E+02 -0.23326451840E+03  0.23927632593E+03  0.00000000000E+00 0. -1.
          1    1    1    2  502    0 -0.62143036591E+02  0.86358586802E+01  0.16620634319E+04  0.16632471815E+04  0.00000000000E+00 0. -1.
         22    1    3    3    0    0  0.93854388875E+02 -0.34330789301E+01  0.11145346978E+03  0.14574741256E+03  0.00000000000E+00 0.  1.
         22    1    3    3    0    0 -0.23278483551E+02  0.47425267267E+02  0.10689820438E+03  0.11924038691E+03  0.00000000000E+00 0.  1.
</event>
<event>
 7    1  0.6122298E-006  0.8549747E+02  0.7818608E-02  0.1406107E+00
          2   -1    0    0  502    0  0.00000000000E+00  0.00000000000E+00  0.32441017511E+03  0.32441017511E+03  0.00000000000E+00 0. -1.
          1   -1    0    0  501    0 -0.00000000000E+00 -0.00000000000E+00 -0.21837294154E+04  0.21837294154E+04  0.00000000000E+00 0. -1.
         25    2    1    2    0    0  0.53365897109E+02  0.28502220753E+01 -0.47320245735E+02  0.14397431078E+03  0.12503341061E+03 0.  0.
          2    1    1    2  501    0 -0.79994715979E+02 -0.31948228081E+02 -0.20857798244E+04  0.20875577405E+04  0.00000000000E+00 0. -1.
          1    1    1    2  502    0  0.26628818870E+02  0.29098006005E+02  0.27378082988E+03  0.27660753923E+03  0.00000000000E+00 0. -1.
         22    1    3    3    0    0 -0.21811652109E+01 -0.55276270987E+02 -0.14961371352E+02  0.57306773148E+02  0.00000000000E+00 0.  1.
         22    1    3    3    0    0  0.55547062320E+02  0.58126493063E+02 -0.32358874383E+02  0.86667537634E+02  0.00000000000E+00 0.  1.
</event>
<event>
 7    1  0.6122298E-006  0.8478571E+02  0.7818608E-02  0.1333585E+00
          2   -1    0    0  502    0  0.00000000000E+00  0.00000000000E+00  0.78754351496E+03  0.78754351496E+03  0.00000000000E+00 0. -1.
          1   -1    0    0  501    0 -0.00000000000E+00 -0.00000000000E+00 -0.51446912914E+03  0.51446912914E+03  0.00000000000E+00 0. -1.
         25    2    1    2    0    0  0.86830635813E+01 -0.27751942278E+02  0.10483519789E+03  0.16572177125E+03  0.12501088295E+03 0.  0.
          2    1    1    2  501    0 -0.46933853429E+02 -0.55309741766E+02 -0.47807121564E+03  0.48354321560E+03  0.00000000000E+00 0. -1.
          1    1    1    2  502    0  0.38250789847E+02  0.83061684043E+02  0.64631040357E+03  0.65274765725E+03  0.00000000000E+00 0. -1.
         22    1    3    3    0    0 -0.26040365427E+02  0.18561647350E+02  0.10295416451E+03  0.10780628634E+03  0.00000000000E+00 0.  1.
         22    1    3    3    0    0  0.34723429008E+02 -0.46313589627E+02  0.18810333828E+01  0.57915484914E+02  0.00000000000E+00 0.  1.
</event>
<event>
 7    1  0.6122298E-006  0.9713269E+02  0.7818608E-02  0.1393597E+00
          2   -1    0    0  502    0  0.00000000000E+00  0.00000000000E+00  0.85058015529E+03  0.85058015529E+03  0.00000000000E+00 0. -1.
          1   -1    0    0  501    0 -0.00000000000E+00 -0.00000000000E+00 -0.11771141619E+03  0.11771141619E+03  0.00000000000E+00 0. -1.
         25    2    1    2    0    0  0.85129080781E+02  0.53565780557E+02  0.33345299607E+02  0.16387038149E+03  0.12500135872E+03 0.  0.
          2    1    1    2  501    0  0.10729274767E+02 -0.36802567405E+02 -0.41812265058E+02  0.56725759703E+02  0.00000000000E+00 0. -1.
          1    1    1    2  502    0 -0.95858355549E+02 -0.16763213152E+02  0.74133570455E+03  0.74769543029E+03  0.00000000000E+00 0. -1.
         22    1    3    3    0    0  0.80943770016E+02  0.30170061024E+02 -0.33709688542E+02  0.92727933161E+02  0.00000000000E+00 0. -1.
         22    1    3    3    0    0  0.41853107648E+01  0.23395719533E+02  0.67054988148E+02  0.71142448329E+02  0.00000000000E+00 0. -1.
</event>
<event>
 7    1  0.6122298E-006  0.7122451E+02  0.7818608E-02  0.1450996E+00
          2   -1    0    0  502    0  0.00000000000E+00  0.00000000000E+00  0.28005594331E+03  0.28005594331E+03  0.00000000000E+00 0. -1.
          1   -1    0    0  501    0 -0.00000000000E+00 -0.00000000000E+00 -0.83195735793E+03  0.83195735793E+03  0.00000000000E+00 0. -1.
         25    2    1    2    0    0 -0.33848468266E+02 -0.55931262836E+02 -0.63561144120E+02  0.15472087906E+03  0.12499802562E+03 0.  0.
          2    1    1    2  501    0  0.61567651256E+02  0.36827659992E+02 -0.71981561176E+03  0.72338189579E+03  0.00000000000E+00 0. -1.
          1    1    1    2  502    0 -0.27719182990E+02  0.19103602844E+02  0.23147534126E+03  0.23391052640E+03  0.00000000000E+00 0. -1.
         22    1    3    3    0    0  0.34595579745E+02 -0.59263312406E+02 -0.49900899015E+02  0.84847475259E+02  0.00000000000E+00 0. -1.
         22    1    3    3    0    0 -0.68444048011E+02  0.33320495705E+01 -0.13660245105E+02  0.69873403802E+02  0.00000000000E+00 0. -1.
</event>
<event>
 7    1  0.6122298E-006  0.5000155E+02  0.7818608E-02  0.1449552E+00
          2   -1    0    0  502    0  0.00000000000E+00  0.00000000000E+00  0.13366134901E+02  0.13366134901E+02  0.00000000000E+00 0. -1.
          1   -1    0    0  501    0 -0.00000000000E+00 -0.00000000000E+00 -0.11994615528E+04  0.11994615528E+04  0.00000000000E+00 0. -1.
         25    2    1    2    0    0 -0.11640656964E+02  0.21080771947E+02 -0.48096796709E+03  0.49752922611E+03  0.12500096653E+03 0.  0.
          2    1    1    2  501    0 -0.38332085016E+02  0.29658097490E+02 -0.31857612122E+03  0.32224167406E+03  0.00000000000E+00 0. -1.
          1    1    1    2  502    0  0.49972741981E+02 -0.50738869437E+02 -0.38655132963E+03  0.39305678757E+03  0.00000000000E+00 0. -1.
         22    1    3    3    0    0  0.45383892432E+02  0.23862494758E+02 -0.36152249959E+03  0.36514056753E+03  0.00000000000E+00 0. -1.
         22    1    3    3    0    0 -0.57024549397E+02 -0.27817228112E+01 -0.11944546750E+03  0.13238865859E+03  0.00000000000E+00 0. -1.
</event>
<event>
 7    1  0.6122298E-006  0.1615129E+03  0.7818608E-02  0.1302509E+00
          2   -1    0    0  502    0  0.00000000000E+00  0.00000000000E+00  0.26224427691E+04  0.26224427691E+04  0.00000000000E+00 0. -1.
          1   -1    0    0  501    0 -0.00000000000E+00 -0.00000000000E+00 -0.19056027831E+04  0.19056027831E+04  0.00000000000E+00 0. -1.
         25    2    1    2    0    0  0.16303338926E+03  0.15611741919E+02  0.69968449871E+03  0.72938780685E+03  0.12499825018E+03 0.  0.
          2    1    1    2  501    0 -0.14842686043E+03 -0.63753228596E+02 -0.18869679323E+04  0.18938698436E+04  0.00000000000E+00 0. -1.
          1    1    1    2  502    0 -0.14606528830E+02  0.48141486677E+02  0.19041234196E+04  0.19047879017E+04  0.00000000000E+00 0. -1.
         22    1    3    3    0    0  0.32503395115E+02  0.17936160638E+02  0.31854609077E+02  0.48917202209E+02  0.00000000000E+00 0.  1.
         22    1    3    3    0    0  0.13052999415E+03 -0.23244187192E+01  0.66782988963E+03  0.68047060464E+03  0.00000000000E+00 0.  1.
</event>
<event>
 7    1  0.6122298E-006  0.2891517E+03  0.7818608E-02  0.1158849E+00
          2   -1    0    0  502    0  0.00000000000E+00  0.00000000000E+00  0.11231470585E+04  0.11231470585E+04  0.00000000000E+00 0. -1.
          1   -1    0    0  501    0 -0.00000000000E+00 -0.00000000000E+00 -0.50850684464E+03  0.50850684464E+03  0.00000000000E+00 0. -1.
         25    2    1    2    0    0  0.13173855989E+02 -0.21399250908E+03 -0.39240766628E+02  0.25125902775E+03  0.12499966735E+03 0.  0.
          2    1    1    2  501    0 -0.97900491956E+02 -0.76565489254E+02 -0.32914664411E+03  0.35182992169E+03  0.00000000000E+00 0. -1.
          1    1    1    2  502    0  0.84726635967E+02  0.29055799833E+03  0.98302762457E+03  0.10285649537E+04  0.00000000000E+00 0. -1.
         22    1    3    3    0    0 -0.18506064811E+02 -0.14216187692E+03  0.30131620925E+02  0.14649364581E+03  0.00000000000E+00 0. -1.
         22    1    3    3    0    0  0.31679920800E+02 -0.71830632162E+02 -0.69372387552E+02  0.10476538194E+03  0.00000000000E+00 0. -1.
</event>
<event>
 7    1  0.6122298E-006  0.9143240E+02  0.7818608E-02  0.1320298E+00
          2   -1    0    0  502    0  0.00000000000E+00  0.00000000000E+00  0.89315006595E+03  0.89315006595E+03  0.00000000000E+00 0. -1.
          1   -1    0    0  501    0 -0.00000000000E+00 -0.00000000000E+00 -0.10944257051E+03  0.10944257051E+03  0.00000000000E+00 0. -1.
         25    2    1    2    0    0 -0.72713110157E+01  0.24064392716E+02  0.18904737230E+03  0.22802332036E+03  0.12499503468E+03 0.  0.
          2    1    1    2  501    0  0.38664977666E+02 -0.92890296878E+02 -0.58938439222E+02  0.11660757853E+03  0.00000000000E+00 0. -1.
          1    1    1    2  502    0 -0.31393666650E+02  0.68825904162E+02  0.65359856236E+03  0.65796173757E+03  0.00000000000E+00 0. -1.
         22    1    3    3    0    0  0.56981111694E+02 -0.41408486361E+01  0.91157809474E+02  0.10758131783E+03  0.00000000000E+00 0.  1.
         22    1    3    3    0    0 -0.64252422710E+02  0.28205241352E+02  0.97889562826E+02  0.12044200253E+03  0.00000000000E+00 0.  1.
</event>
<event>
 7    1  0.6122298E-006  0.6110500E+02  0.7818608E-02  0.1409014E+00
          2   -1    0    0  502    0  0.00000000000E+00  0.00000000000E+00  0.10614609442E+04  0.10614609442E+04  0.00000000000E+00 0. -1.
          1   -1    0    0  501    0 -0.00000000000E+00 -0.00000000000E+00 -0.25720294432E+03  0.25720294432E+03  0.00000000000E+00 0. -1.
         25    2    1    2    0    0 -0.13306592676E+02 -0.31220858965E-01  0.89982738702E+02  0.15458699626E+03  0.12499271885E+03 0.  0.
          2    1    1    2  501    0 -0.31997767322E+02 -0.43432903799E+02 -0.22059767004E+03  0.22709823045E+03  0.00000000000E+00 0. -1.
          1    1    1    2  502    0  0.45304359999E+02  0.43464124658E+02  0.93487293123E+03  0.93697866182E+03  0.00000000000E+00 0. -1.
         22    1    3    3    0    0  0.29660753882E+02  0.26839930343E+01 -0.20404330004E+02  0.36101257905E+02  0.00000000000E+00 0.  1.
         22    1    3    3    0    0 -0.42967346558E+02 -0.27152138933E+01  0.11038706871E+03  0.11848573836E+03  0.00000000000E+00 0.  1.
</event>
<event>
 7    1  0.7580007E-006  0.1164137E+03  0.7818608E-02  0.1270357E+00
          2   -1    0    0  502    0  0.00000000000E+00  0.00000000000E+00  0.12560508237E+04  0.12560508237E+04  0.00000000000E+00 0. -1.
          1   -1    0    0  501    0 -0.00000000000E+00 -0.00000000000E+00 -0.88129842503E+03  0.88129842503E+03  0.00000000000E+00 0. -1.
         25    2    1    2    0    0  0.85880767332E+02 -0.54568709860E+02 -0.18796917657E+03  0.24760981574E+03  0.12499983687E+03 0.  0.
          2    1    1    2  501    0 -0.12065497811E+03 -0.33287784854E+02 -0.65576097379E+03  0.66759879801E+03  0.00000000000E+00 0. -1.
          1    1    1    2  502    0  0.34774210774E+02  0.87856494714E+02  0.12184825490E+04  0.12221406350E+04  0.00000000000E+00 0. -1.
         22    1    3    3    0    0 -0.18020553605E+02  0.67666993885E+00 -0.97563244515E+02  0.99215850119E+02  0.00000000000E+00 0.  1.
         22    1    3    3    0    0  0.10390132094E+03 -0.55245379799E+02 -0.90405932054E+02  0.14839396562E+03  0.00000000000E+00 0.  1.
</event>
<event>
 7    1  0.6122298E-006  0.5770202E+02  0.7818608E-02  0.1445142E+00
          2   -1    0    0  502    0  0.00000000000E+00  0.00000000000E+00  0.47682953205E+03  0.47682953205E+03  0.00000000000E+00 0. -1.
          1   -1    0    0  501    0 -0.00000000000E+00 -0.00000000000E+00 -0.12445510426E+03  0.12445510426E+03  0.00000000000E+00 0. -1.
         25    2    1    2    0    0  0.96335642985E+02  0.65183052907E+01  0.19520702839E+03  0.25110520823E+03  0.12499998901E+03 0.  0.
          2    1    1    2  501    0 -0.42647667178E+02 -0.79934082277E+01 -0.88577401134E+02  0.98634041195E+02  0.00000000000E+00 0. -1.
          1    1    1    2  502    0 -0.53687975808E+02  0.14751029370E+01  0.24574480054E+03  0.25154538689E+03  0.00000000000E+00 0. -1.
         22    1    3    3    0    0  0.10497724748E+03  0.34602634359E+02  0.19200439558E+03  0.22154740512E+03  0.00000000000E+00 0. -1.
         22    1    3    3    0    0 -0.86416044974E+01 -0.28084329068E+02  0.32026328108E+01  0.29557803105E+02  0.00000000000E+00 0. -1.
</event>
<event>
 7    1  0.6473137E-006  0.8740299E+02  0.7818608E-02  0.1370180E+00
          2   -1    0    0  502    0  0.00000000000E+00  0.00000000000E+00  0.17300715402E+04  0.17300715402E+04  0.00000000000E+00 0. -1.
          1   -1    0    0  501    0 -0.00000000000E+00 -0.00000000000E+00 -0.76032099945E+03  0.76032099945E+03  0.00000000000E+00 0. -1.
         25    2    1    2    0    0 -0.50975812661E+02 -0.42204667395E+02 -0.76305306860E+02  0.16071132343E+03  0.12500344874E+03 0.  0.
          2    1    1    2  501    0  0.28874081447E+02 -0.42692274622E+02 -0.63963554258E+03  0.64170863343E+03  0.00000000000E+00 0. -1.
          1    1    1    2  502    0  0.22101731215E+02  0.84896942016E+02  0.16856913902E+04  0.16879725828E+04  0.00000000000E+00 0. -1.
         22    1    3    3    0    0 -0.22887411991E+02  0.43947978447E+02 -0.37476110873E+02  0.62126623306E+02  0.00000000000E+00 0. -1.
         22    1    3    3    0    0 -0.28088400670E+02 -0.86152645842E+02 -0.38829195987E+02  0.98584700125E+02  0.00000000000E+00 0. -1.
</event>
<event>
 7    1  0.6122298E-006  0.4479788E+02  0.7818608E-02  0.1516154E+00
          2   -1    0    0  502    0  0.00000000000E+00  0.00000000000E+00  0.59847698131E+03  0.59847698131E+03  0.00000000000E+00 0. -1.
          1   -1    0    0  501    0 -0.00000000000E+00 -0.00000000000E+00 -0.11187686485E+03  0.11187686485E+03  0.00000000000E+00 0. -1.
         25    2    1    2    0    0  0.16744568144E+01  0.15931853059E+02  0.22831496956E+03  0.26078470749E+03  0.12499724231E+03 0.  0.
          2    1    1    2  501    0 -0.30362890145E+02 -0.33897603236E+02 -0.89359748029E+02  0.10028019331E+03  0.00000000000E+00 0. -1.
          1    1    1    2  502    0  0.28688433331E+02  0.17965750176E+02  0.34764489492E+03  0.34928894536E+03  0.00000000000E+00 0. -1.
         22    1    3    3    0    0  0.24363656355E+02 -0.41862797040E+02  0.41038465167E+02  0.63484148811E+02  0.00000000000E+00 0.  1.
         22    1    3    3    0    0 -0.22689199541E+02  0.57794650099E+02  0.18727650440E+03  0.19730055868E+03  0.00000000000E+00 0.  1.
</event>
<event>
 7    1  0.6122298E-006  0.1156272E+03  0.7818608E-02  0.1296872E+00
          2   -1    0    0  502    0  0.00000000000E+00  0.00000000000E+00  0.17133195782E+04  0.17133195782E+04  0.00000000000E+00 0. -1.
          1   -1    0    0  501    0 -0.00000000000E+00 -0.00000000000E+00 -0.80283283163E+03  0.80283283163E+03  0.00000000000E+00 0. -1.
         25    2    1    2    0    0 -0.44439331431E+02  0.44487633242E+02 -0.56590047379E+03  0.58294446434E+03  0.12500759405E+03 0.  0.
          2    1    1    2  501    0  0.13313529221E+03  0.29692376142E+02 -0.20588199772E+03  0.24696971518E+03  0.00000000000E+00 0. -1.
          1    1    1    2  502    0 -0.88695960779E+02 -0.74180009384E+02  0.16822692181E+04  0.16862382304E+04  0.00000000000E+00 0. -1.
         22    1    3    3    0    0  0.34644642555E+02  0.47891096339E+02 -0.28727567694E+03  0.29329357806E+03  0.00000000000E+00 0.  1.
         22    1    3    3    0    0 -0.79083973986E+02 -0.34034630968E+01 -0.27862479685E+03  0.28965088628E+03  0.00000000000E+00 0.  1.
</event>
<event>
 7    1  0.6122298E-006  0.1367076E+03  0.7818608E-02  0.1346955E+00
          2   -1    0    0  502    0  0.00000000000E+00  0.00000000000E+00  0.77101504858E+03  0.77101504858E+03  0.00000000000E+00 0. -1.
          1   -1    0    0  501    0 -0.00000000000E+00 -0.00000000000E+00 -0.18098504277E+03  0.18098504277E+03  0.00000000000E+00 0. -1.
         25    2    1    2    0    0  0.16817618793E+03 -0.42277726841E+02  0.10674365234E+02  0.21404263403E+03  0.12501868156E+03 0.  0.
          2    1    1    2  501    0 -0.36383970870E+02  0.16787942093E+02 -0.66859560951E+02  0.77947605650E+02  0.00000000000E+00 0. -1.
          1    1    1    2  502    0 -0.13179221706E+03  0.25489784748E+02  0.64621520153E+03  0.66000985166E+03  0.00000000000E+00 0. -1.
         22    1    3    3    0    0  0.69818554517E+02  0.44327764450E+02  0.56300382561E+01  0.82893175755E+02  0.00000000000E+00 0. -1.
         22    1    3    3    0    0  0.98357633412E+02 -0.86605491291E+02  0.50443269775E+01  0.13114945828E+03  0.00000000000E+00 0. -1.
</event>
<event>
 7    1  0.6122298E-006  0.2110669E+03  0.7818608E-02  0.1162392E+00
          2   -1    0    0  502    0  0.00000000000E+00  0.00000000000E+00  0.56560310904E+03  0.56560310904E+03  0.00000000000E+00 0. -1.
          1   -1    0    0  501    0 -0.00000000000E+00 -0.00000000000E+00 -0.10893841383E+04  0.10893841383E+04  0.00000000000E+00 0. -1.
         25    2    1    2    0    0 -0.18404207306E+03  0.16642177324E+03 -0.67059828435E+02  0.28581016326E+03  0.12499094993E+03 0.  0.
          2    1    1    2  501    0  0.21287629072E+03 -0.55930679377E+01 -0.88527743201E+03  0.91052936756E+03  0.00000000000E+00 0. -1.
          1    1    1    2  502    0 -0.28834217662E+02 -0.16082870531E+03  0.42855623120E+03  0.45864771651E+03  0.00000000000E+00 0. -1.
         22    1    3    3    0    0  0.53092144226E+01  0.59858767663E+02 -0.21371402516E+02  0.63780848767E+02  0.00000000000E+00 0. -1.
         22    1    3    3    0    0 -0.18935128748E+03  0.10656300558E+03 -0.45688425919E+02  0.22202931449E+03  0.00000000000E+00 0. -1.
</event>
<event>
 7    1  0.6122298E-006  0.2366296E+03  0.7818608E-02  0.1235660E+00
          2   -1    0    0  502    0  0.00000000000E+00  0.00000000000E+00  0.37186921503E+03  0.37186921503E+03  0.00000000000E+00 0. -1.
          1   -1    0    0  501    0 -0.00000000000E+00 -0.00000000000E+00 -0.58059455220E+03  0.58059455220E+03  0.00000000000E+00 0. -1.
         25    2    1    2    0    0 -0.16770178836E+03  0.18900899062E+03 -0.15457989527E+03  0.32150822729E+03  0.12499723133E+03 0.  0.
          2    1    1    2  501    0  0.19280022686E+03 -0.12836352390E+03 -0.29856566323E+03  0.37787640441E+03  0.00000000000E+00 0. -1.
          1    1    1    2  502    0 -0.25098438501E+02 -0.60645466716E+02  0.24442022134E+03  0.25307913554E+03  0.00000000000E+00 0. -1.
         22    1    3    3    0    0 -0.10315037150E+03  0.19114495369E+03 -0.11515699841E+03  0.24584044977E+03  0.00000000000E+00 0. -1.
         22    1    3    3    0    0 -0.64551416866E+02 -0.21359630732E+01 -0.39422896863E+02  0.75667777520E+02  0.00000000000E+00 0. -1.
</event>
<event>
 7    1  0.6122298E-006  0.4525462E+02  0.7818608E-02  0.1568676E+00
          2   -1    0    0  502    0  0.00000000000E+00  0.00000000000E+00  0.14466606913E+04  0.14466606913E+04  0.00000000000E+00 0. -1.
          1   -1    0    0  501    0 -0.00000000000E+00 -0.00000000000E+00 -0.16815378997E+03  0.16815378997E+03  0.00000000000E+00 0. -1.
         25    2    1    2    0    0 -0.30635409551E+02 -0.56196424388E+02  0.13993388625E+03  0.19825231652E+03  0.12500368816E+03 0.  0.
          2    1    1    2  501    0  0.20379124078E+02  0.12349878876E+02 -0.13757322526E+03  0.13962170503E+03  0.00000000000E+00 0. -1.
          1    1    1    2  502    0  0.10256285473E+02  0.43846545512E+02  0.12761462404E+04  0.12769404597E+04  0.00000000000E+00 0. -1.
         22    1    3    3    0    0  0.18169830656E+02  0.33304359556E+02  0.46045690976E+02  0.59661786505E+02  0.00000000000E+00 0. -1.
         22    1    3    3    0    0 -0.48805240207E+02 -0.89500783944E+02  0.93888195275E+02  0.13859053002E+03  0.00000000000E+00 0. -1.
</event>
<event>
 7    1  0.6122298E-006  0.2150649E+03  0.7818608E-02  0.1182768E+00
          2   -1    0    0  502    0  0.00000000000E+00  0.00000000000E+00  0.24692509995E+04  0.24692509995E+04  0.00000000000E+00 0. -1.
          1   -1    0    0  501    0 -0.00000000000E+00 -0.00000000000E+00 -0.15530682712E+03  0.15530682712E+03  0.00000000000E+00 0. -1.
         25    2    1    2    0    0  0.83305251381E+02 -0.51613967906E+02  0.11784214717E+04  0.11890768861E+04  0.12499163753E+03 0.  0.
          2    1    1    2  501    0 -0.17234651924E+03  0.14238610088E+03 -0.61391310386E+02  0.23183187316E+03  0.00000000000E+00 0. -1.
          1    1    1    2  502    0  0.89041267863E+02 -0.90772132978E+02  0.11969140110E+04  0.12036490673E+04  0.00000000000E+00 0. -1.
         22    1    3    3    0    0  0.10524186682E+03 -0.46928912589E+02  0.64693305526E+03  0.65711532576E+03  0.00000000000E+00 0. -1.
         22    1    3    3    0    0 -0.21936615438E+02 -0.46850553169E+01  0.53148841648E+03  0.53196156036E+03  0.00000000000E+00 0. -1.
</event>
<event>
 7    1  0.6122298E-006  0.1456986E+03  0.7818608E-02  0.1325591E+00
          2   -1    0    0  502    0  0.00000000000E+00  0.00000000000E+00  0.60366978435E+03  0.60366978435E+03  0.00000000000E+00 0. -1.
          1   -1    0    0  501    0 -0.00000000000E+00 -0.00000000000E+00 -0.10819591648E+04  0.10819591648E+04  0.00000000000E+00 0. -1.
         25    2    1    2    0    0 -0.10117401470E+03 -0.37321728628E+01 -0.47612957158E+03  0.50256871928E+03  0.12500335314E+03 0.  0.
          2    1    1    2  501    0 -0.45213953274E+02 -0.26207272649E+01 -0.58262722187E+03  0.58438484703E+03  0.00000000000E+00 0. -1.
          1    1    1    2  502    0  0.14638796798E+03  0.63529001277E+01  0.58046741298E+03  0.59867538286E+03  0.00000000000E+00 0. -1.
         22    1    3    3    0    0  0.11911230243E+02 -0.28616804821E+02 -0.21089700278E+03  0.21316271885E+03  0.00000000000E+00 0. -1.
         22    1    3    3    0    0 -0.11308524495E+03  0.24884631959E+02 -0.26523256880E+03  0.28940600043E+03  0.00000000000E+00 0. -1.
</event>
<event>
 7    1  0.6122298E-006  0.5398857E+02  0.7818608E-02  0.1491733E+00
          2   -1    0    0  502    0  0.00000000000E+00  0.00000000000E+00  0.32448431135E+02  0.32448431135E+02  0.00000000000E+00 0. -1.
          1   -1    0    0  501    0 -0.00000000000E+00 -0.00000000000E+00 -0.15040995823E+04  0.15040995823E+04  0.00000000000E+00 0. -1.
         25    2    1    2    0    0  0.75430807750E+02  0.37519093445E+02 -0.80008452601E+03  0.81416145057E+03  0.12500451871E+03 0.  0.
          2    1    1    2  501    0 -0.24743598968E+02 -0.22119558407E+02 -0.66849959622E+03  0.66932296442E+03  0.00000000000E+00 0. -1.
          1    1    1    2  502    0 -0.50687208782E+02 -0.15399535038E+02 -0.30670289332E+01  0.53063598445E+02  0.00000000000E+00 0. -1.
         22    1    3    3    0    0  0.32016892169E+02  0.69945357502E+02 -0.25394509713E+03  0.26534043563E+03  0.00000000000E+00 0. -1.
         22    1    3    3    0    0  0.43413915581E+02 -0.32426264057E+02 -0.54613942888E+03  0.54882101494E+03  0.00000000000E+00 0. -1.
</event>
<event>
 7    1  0.6122298E-006  0.2031326E+03  0.7818608E-02  0.1282548E+00
          2   -1    0    0  502    0  0.00000000000E+00  0.00000000000E+00  0.22422926893E+04  0.22422926893E+04  0.00000000000E+00 0. -1.
          1   -1    0    0  501    0 -0.00000000000E+00 -0.00000000000E+00 -0.14251539141E+04  0.14251539141E+04  0.00000000000E+00 0. -1.
         25    2    1    2    0    0 -0.11872037889E+03  0.16784488671E+03  0.77148897195E+03  0.80813712085E+03  0.12499575149E+03 0.  0.
          2    1    1    2  501    0  0.15285375168E+03 -0.13383065726E+03 -0.13990913067E+04  0.14137649729E+04  0.00000000000E+00 0. -1.
          1    1    1    2  502    0 -0.34133372788E+02 -0.34014229449E+02  0.14447411098E+04  0.14455445097E+04  0.00000000000E+00 0. -1.
         22    1    3    3    0    0 -0.28093885538E+02 -0.64093841172E+01  0.23619930658E+03  0.23795053906E+03  0.00000000000E+00 0. -1.
         22    1    3    3    0    0 -0.90626493351E+02  0.17425427083E+03  0.53528966538E+03  0.57018658179E+03  0.00000000000E+00 0. -1.
</event>
<event>
 7    1  0.6122298E-006  0.2030627E+03  0.7818608E-02  0.1363334E+00
          2   -1    0    0  502    0  0.00000000000E+00  0.00000000000E+00  0.83046253368E+03  0.83046253368E+03  0.00000000000E+00 0. -1.
          1   -1    0    0  501    0 -0.00000000000E+00 -0.00000000000E+00 -0.16509076809E+03  0.16509076809E+03  0.00000000000E+00 0. -1.
         25    2    1    2    0    0 -0.20240365786E+03  0.18575681907E+02  0.53731178533E+03  0.58791313667E+03  0.12500241976E+03 0.  0.
          2    1    1    2  501    0  0.19885202987E+03 -0.41789276228E+02 -0.64859902876E+02  0.21329622686E+03  0.00000000000E+00 0. -1.
          1    1    1    2  502    0  0.35516279885E+01  0.23213594321E+02  0.19291988313E+03  0.19434393824E+03  0.00000000000E+00 0. -1.
         22    1    3    3    0    0 -0.37068640033E+02  0.45496002636E+02  0.23580233100E+03  0.24299528726E+03  0.00000000000E+00 0. -1.
         22    1    3    3    0    0 -0.16533501783E+03 -0.26920320729E+02  0.30150945433E+03  0.34491784941E+03  0.00000000000E+00 0. -1.
</event>
<event>
 7    1  0.6122298E-006  0.1397376E+03  0.7818608E-02  0.1274382E+00
          2   -1    0    0  502    0  0.00000000000E+00  0.00000000000E+00  0.13772890777E+04  0.13772890777E+04  0.00000000000E+00 0. -1.
          1   -1    0    0  501    0 -0.00000000000E+00 -0.00000000000E+00 -0.21948565031E+03  0.21948565031E+03  0.00000000000E+00 0. -1.
         25    2    1    2    0    0 -0.86920156412E+02 -0.61665496363E+02  0.67908935184E+03  0.69867365977E+03  0.12499915219E+03 0.  0.
          2    1    1    2  501    0 -0.70916683395E+02 -0.26550066433E+02 -0.19044266907E+03  0.20494509561E+03  0.00000000000E+00 0. -1.
          1    1    1    2  502    0  0.15783683981E+03  0.88215562796E+02  0.66915674458E+03  0.69315597259E+03  0.00000000000E+00 0. -1.
         22    1    3    3    0    0 -0.50458304799E+02 -0.29923111057E+02  0.88921783908E+02  0.10652941731E+03  0.00000000000E+00 0.  1.
         22    1    3    3    0    0 -0.36461851613E+02 -0.31742385306E+02  0.59016756793E+03  0.59214424246E+03  0.00000000000E+00 0.  1.
</event>
<event>
 7    1  0.6122298E-006  0.1640564E+03  0.7818608E-02  0.1199870E+00
          2   -1    0    0  502    0  0.00000000000E+00  0.00000000000E+00  0.15652621977E+04  0.15652621977E+04  0.00000000000E+00 0. -1.
          1   -1    0    0  501    0 -0.00000000000E+00 -0.00000000000E+00 -0.13449036767E+04  0.13449036767E+04  0.00000000000E+00 0. -1.
         25    2    1    2    0    0  0.51058845027E+02 -0.29544277763E+02  0.96020297231E+02  0.16830015898E+03  0.12500070410E+03 0.  0.
          2    1    1    2  501    0  0.27553781622E+02 -0.13527030675E+03 -0.12992755381E+04  0.13065887612E+04  0.00000000000E+00 0. -1.
          1    1    1    2  502    0 -0.78612626649E+02  0.16481458451E+03  0.14236137619E+04  0.14352769543E+04  0.00000000000E+00 0. -1.
         22    1    3    3    0    0 -0.24155504630E+02 -0.41261023961E+02  0.75663396254E+02  0.89503687270E+02  0.00000000000E+00 0. -1.
         22    1    3    3    0    0  0.75214349657E+02  0.11716746198E+02  0.20356900977E+02  0.78796471705E+02  0.00000000000E+00 0. -1.
</event>
<event>
 7    1  0.6122298E-006  0.1029180E+03  0.7818608E-02  0.1413839E+00
          2   -1    0    0  502    0  0.00000000000E+00  0.00000000000E+00  0.72469082486E+03  0.72469082486E+03  0.00000000000E+00 0. -1.
          1   -1    0    0  501    0 -0.00000000000E+00 -0.00000000000E+00 -0.58551031375E+03  0.58551031375E+03  0.00000000000E+00 0. -1.
         25    2    1    2    0    0 -0.74013365922E+02  0.99976195919E+02 -0.31302964197E+03  0.35928520178E+03  0.12500032550E+03 0.  0.
          2    1    1    2  501    0  0.30001004422E+02 -0.71811492509E+01 -0.24462022013E+03  0.24655766317E+03  0.00000000000E+00 0. -1.
          1    1    1    2  502    0  0.44012361500E+02 -0.92795046668E+02  0.69683037322E+03  0.70435827367E+03  0.00000000000E+00 0. -1.
         22    1    3    3    0    0  0.14738958820E+02  0.79424831369E+02 -0.18768969441E+03  0.20433541575E+03  0.00000000000E+00 0. -1.
         22    1    3    3    0    0 -0.88752324743E+02  0.20551364551E+02 -0.12533994757E+03  0.15494978602E+03  0.00000000000E+00 0. -1.
</event>
<event>
 7    1  0.6122298E-006  0.1553740E+03  0.7818608E-02  0.1300253E+00
          2   -1    0    0  502    0  0.00000000000E+00  0.00000000000E+00  0.25824032476E+04  0.25824032476E+04  0.00000000000E+00 0. -1.
          1   -1    0    0  501    0 -0.00000000000E+00 -0.00000000000E+00 -0.16990490072E+03  0.16990490072E+03  0.00000000000E+00 0. -1.
         25    2    1    2    0    0  0.12965136102E+03  0.83138778193E+02  0.35330972359E+03  0.40517942351E+03  0.12498428939E+03 0.  0.
          2    1    1    2  501    0 -0.95336435401E+02 -0.12404458159E+03 -0.10104051842E+03  0.18623984671E+03  0.00000000000E+00 0. -1.
          1    1    1    2  502    0 -0.34314925622E+02  0.40905803400E+02  0.21602291417E+04  0.21608888781E+04  0.00000000000E+00 0. -1.
         22    1    3    3    0    0  0.14615096416E+03  0.39719806333E+02  0.28152276895E+03  0.31967614358E+03  0.00000000000E+00 0.  1.
         22    1    3    3    0    0 -0.16499603133E+02  0.43418971861E+02  0.71786954644E+02  0.85503279925E+02  0.00000000000E+00 0.  1.
</event>
<event>
 7    1  0.6122298E-006  0.5177633E+02  0.7818608E-02  0.1504910E+00
          2   -1    0    0  502    0  0.00000000000E+00  0.00000000000E+00  0.91524978078E+03  0.91524978078E+03  0.00000000000E+00 0. -1.
          1   -1    0    0  501    0 -0.00000000000E+00 -0.00000000000E+00 -0.68523478830E+02  0.68523478830E+02  0.00000000000E+00 0. -1.
         25    2    1    2    0    0 -0.81895788081E+02  0.69168307577E+00  0.44202960881E+02  0.15584082539E+03  0.12500025030E+03 0.  0.
          2    1    1    2  501    0  0.31009736371E+02  0.61038641353E+01  0.91538854626E+01  0.32903715994E+02  0.00000000000E+00 0. -1.
          1    1    1    2  502    0  0.50886051711E+02 -0.67955472110E+01  0.79336945560E+03  0.79502871823E+03  0.00000000000E+00 0. -1.
         22    1    3    3    0    0 -0.19375461740E+02 -0.55527833831E+02  0.41014839663E+02  0.71700529428E+02  0.00000000000E+00 0. -1.
         22    1    3    3    0    0 -0.62520326341E+02  0.56219516907E+02  0.31881212173E+01  0.84140295958E+02  0.00000000000E+00 0. -1.
</event>
<event>
 7    1  0.6122298E-006  0.6056294E+02  0.7818608E-02  0.1439467E+00
          2   -1    0    0  502    0  0.00000000000E+00  0.00000000000E+00  0.71917366131E+03  0.71917366131E+03  0.00000000000E+00 0. -1.
          1   -1    0    0  501    0 -0.00000000000E+00 -0.00000000000E+00 -0.63003243617E+03  0.63003243617E+03  0.00000000000E+00 0. -1.
         25    2    1    2    0    0  0.25920495586E+02 -0.60526519984E+01  0.35148556905E+03  0.37399942625E+03  0.12499983558E+03 0.  0.
          2    1    1    2  501    0 -0.37834481314E+02  0.47499746473E+02 -0.61597248886E+03  0.61895862618E+03  0.00000000000E+00 0. -1.
          1    1    1    2  502    0  0.11913985728E+02 -0.41447094475E+02  0.35362814495E+03  0.35624804504E+03  0.00000000000E+00 0. -1.
         22    1    3    3    0    0 -0.36498520654E+02 -0.18358948802E+02  0.44171563075E+02  0.60169095020E+02  0.00000000000E+00 0. -1.
         22    1    3    3    0    0  0.62419016240E+02  0.12306296803E+02  0.30731400598E+03  0.31383033123E+03  0.00000000000E+00 0. -1.
</event>
<event>
 7    1  0.6122298E-006  0.7143183E+02  0.7818608E-02  0.1380031E+00
          2   -1    0    0  502    0  0.00000000000E+00  0.00000000000E+00  0.61489443018E+03  0.61489443018E+03  0.00000000000E+00 0. -1.
          1   -1    0    0  501    0 -0.00000000000E+00 -0.00000000000E+00 -0.45153636927E+03  0.45153636927E+03  0.00000000000E+00 0. -1.
         25    2    1    2    0    0 -0.87423350831E+00  0.34765600808E+02  0.83625373700E+02  0.15436179710E+03  0.12499979998E+03 0.  0.
          2    1    1    2  501    0  0.55639261446E+02  0.16939381542E+02 -0.41125040524E+03  0.41534270894E+03  0.00000000000E+00 0. -1.
          1    1    1    2  502    0 -0.54765027938E+02 -0.51704982350E+02  0.49098309245E+03  0.49672629340E+03  0.00000000000E+00 0. -1.
         22    1    3    3    0    0  0.60012492319E+02  0.21619969724E+01  0.46495704685E+02  0.75947508316E+02  0.00000000000E+00 0. -1.
         22    1    3    3    0    0 -0.60886725827E+02  0.32603603836E+02  0.37129669015E+02  0.78414288788E+02  0.00000000000E+00 0. -1.
</event>
<event>
 7    1  0.6122298E-006  0.6078316E+02  0.7818608E-02  0.1540799E+00
          2   -1    0    0  502    0  0.00000000000E+00  0.00000000000E+00  0.20951079703E+04  0.20951079703E+04  0.00000000000E+00 0. -1.
          1   -1    0    0  501    0 -0.00000000000E+00 -0.00000000000E+00 -0.34269357256E+03  0.34269357256E+03  0.00000000000E+00 0. -1.
         25    2    1    2    0    0 -0.27465379676E+02  0.66771706501E+02  0.27257072476E+03  0.30843601854E+03  0.12500067867E+03 0.  0.
          2    1    1    2  501    0  0.20113605979E+02 -0.66889918761E+01 -0.32390682925E+03  0.32459965156E+03  0.00000000000E+00 0. -1.
          1    1    1    2  502    0  0.73517736962E+01 -0.60082714625E+02  0.18037505022E+04  0.18047658727E+04  0.00000000000E+00 0. -1.
         22    1    3    3    0    0 -0.16197686125E+02  0.26881812348E+02  0.26431417472E+03  0.26617095978E+03  0.00000000000E+00 0. -1.
         22    1    3    3    0    0 -0.11267693551E+02  0.39889894153E+02  0.82565500376E+01  0.42265058761E+02  0.00000000000E+00 0. -1.
</event>
<event>
 7    1  0.6122298E-006  0.8893647E+02  0.7818608E-02  0.1337387E+00
          2   -1    0    0  502    0  0.00000000000E+00  0.00000000000E+00  0.21458077710E+02  0.21458077710E+02  0.00000000000E+00 0. -1.
          1   -1    0    0  501    0 -0.00000000000E+00 -0.00000000000E+00 -0.18135112922E+04  0.18135112922E+04  0.00000000000E+00 0. -1.
         25    2    1    2    0    0  0.29164537227E+02 -0.28773196926E+02 -0.48933341100E+03  0.50670737272E+03  0.12500682923E+03 0.  0.
          2    1    1    2  501    0 -0.34840559485E+02  0.95429618862E+02 -0.12081996621E+04  0.12124632366E+04  0.00000000000E+00 0. -1.
          1    1    1    2  502    0  0.56760222577E+01 -0.66656421936E+02 -0.94520141408E+02  0.11579876055E+03  0.00000000000E+00 0. -1.
         22    1    3    3    0    0 -0.60535028271E+01 -0.54544374150E+02 -0.93047323190E+02  0.10802563585E+03  0.00000000000E+00 0. -1.
         22    1    3    3    0    0  0.35218040054E+02  0.25771177224E+02 -0.39628608781E+03  0.39868173687E+03  0.00000000000E+00 0. -1.
</event>
<event>
 7    1  0.6122298E-006  0.1508181E+03  0.7818608E-02  0.1248542E+00
          2   -1    0    0  502    0  0.00000000000E+00  0.00000000000E+00  0.95381333165E+02  0.95381333165E+02  0.00000000000E+00 0. -1.
          1   -1    0    0  501    0 -0.00000000000E+00 -0.00000000000E+00 -0.11162182025E+04  0.11162182025E+04  0.00000000000E+00 0. -1.
         25    2    1    2    0    0  0.79028264113E+01 -0.77343719274E+02 -0.77425772183E+02  0.16631066641E+03  0.12497992634E+03 0.  0.
          2    1    1    2  501    0  0.27989476327E+02  0.16030270575E+03 -0.94089509490E+03  0.95486331371E+03  0.00000000000E+00 0. -1.
          1    1    1    2  502    0 -0.35892302738E+02 -0.82958986474E+02 -0.25160022756E+01  0.90425555570E+02  0.00000000000E+00 0. -1.
         22    1    3    3    0    0  0.14074362562E+02  0.29288678637E+02  0.29614036158E+01  0.32629500290E+02  0.00000000000E+00 0. -1.
         22    1    3    3    0    0 -0.61715361502E+01 -0.10663239791E+03 -0.80387175799E+02  0.13368116612E+03  0.00000000000E+00 0. -1.
</event>
<event>
 7    1  0.6122298E-006  0.1822670E+03  0.7818608E-02  0.1299214E+00
          2   -1    0    0  502    0  0.00000000000E+00  0.00000000000E+00  0.80780605556E+03  0.80780605556E+03  0.00000000000E+00 0. -1.
          1   -1    0    0  501    0 -0.00000000000E+00 -0.00000000000E+00 -0.97582076382E+03  0.97582076382E+03  0.00000000000E+00 0. -1.
         25    2    1    2    0    0 -0.78976674440E+02  0.17870856215E+03  0.42001377759E+02  0.23572541820E+03  0.12501316635E+03 0.  0.
          2    1    1    2  501    0  0.33023366163E+02 -0.17868777712E+03 -0.86875798288E+03  0.88755861622E+03  0.00000000000E+00 0. -1.
          1    1    1    2  502    0  0.45953308276E+02 -0.20785029292E-01  0.65874189686E+03  0.66034278496E+03  0.00000000000E+00 0. -1.
         22    1    3    3    0    0 -0.23337785659E+02  0.13550693082E+03  0.76434406386E+02  0.15731814587E+03  0.00000000000E+00 0. -1.
         22    1    3    3    0    0 -0.55638888781E+02  0.43201631330E+02 -0.34433028627E+02  0.78407272334E+02  0.00000000000E+00 0. -1.
</event>
<event>
 7    1  0.6122298E-006  0.7533933E+02  0.7818608E-02  0.1454628E+00
          2   -1    0    0  502    0  0.00000000000E+00  0.00000000000E+00  0.86814094345E+03  0.86814094345E+03  0.00000000000E+00 0. -1.
          1   -1    0    0  501    0 -0.00000000000E+00 -0.00000000000E+00 -0.13663302491E+03  0.13663302491E+03  0.00000000000E+00 0. -1.
         25    2    1    2    0    0 -0.95787592389E+02 -0.26030513258E+02 -0.73253631011E+01  0.15978520613E+03  0.12499920270E+03 0.  0.
          2    1    1    2  501    0  0.65365310183E+02  0.20132115535E+02 -0.30602245185E+02  0.74929455234E+02  0.00000000000E+00 0. -1.
          1    1    1    2  502    0  0.30422282205E+02  0.58983977227E+01  0.76943552683E+03  0.77005930700E+03  0.00000000000E+00 0. -1.
         22    1    3    3    0    0  0.62939094399E+01  0.38116877228E+02  0.31880464938E+01  0.38764329816E+02  0.00000000000E+00 0. -1.
         22    1    3    3    0    0 -0.10208150183E+03 -0.64147390486E+02 -0.10513409595E+02  0.12102087631E+03  0.00000000000E+00 0. -1.
</event>
<event>
 7    1  0.6122298E-006  0.6864620E+02  0.7818608E-02  0.1420557E+00
          2   -1    0    0  502    0  0.00000000000E+00  0.00000000000E+00  0.12694313102E+04  0.12694313102E+04  0.00000000000E+00 0. -1.
          1   -1    0    0  501    0 -0.00000000000E+00 -0.00000000000E+00 -0.94499321564E+02  0.94499321564E+02  0.00000000000E+00 0. -1.
         25    2    1    2    0    0 -0.85106288580E+02 -0.69090462718E+02  0.38188685520E+03  0.41650859675E+03  0.12500107438E+03 0.  0.
          2    1    1    2  501    0  0.57228333923E+02  0.35163329414E+02 -0.61905425883E+02  0.91344532912E+02  0.00000000000E+00 0. -1.
          1    1    1    2  502    0  0.27877954657E+02  0.33927133304E+02  0.85495055933E+03  0.85607750212E+03  0.00000000000E+00 0. -1.
         22    1    3    3    0    0 -0.12075299416E+02 -0.89406383036E+02  0.21852701811E+03  0.23641779084E+03  0.00000000000E+00 0. -1.
         22    1    3    3    0    0 -0.73030989164E+02  0.20315920318E+02  0.16335983709E+03  0.18009080591E+03  0.00000000000E+00 0. -1.
</event>
<event>
 7    1  0.6122298E-006  0.7287363E+02  0.7818608E-02  0.1371902E+00
          2   -1    0    0  502    0  0.00000000000E+00  0.00000000000E+00  0.21878032122E+02  0.21878032122E+02  0.00000000000E+00 0. -1.
          1   -1    0    0  501    0 -0.00000000000E+00 -0.00000000000E+00 -0.33148816411E+04  0.33148816411E+04  0.00000000000E+00 0. -1.
         25    2    1    2    0    0 -0.21184347638E+02  0.20114960531E+02 -0.73680748160E+03  0.74790609226E+03  0.12499947870E+03 0.  0.
          2    1    1    2  501    0 -0.58431057813E+02 -0.17312344453E+02 -0.24726955362E+04  0.24734464054E+04  0.00000000000E+00 0. -1.
          1    1    1    2  502    0  0.79615405450E+02 -0.28026160775E+01 -0.83500591250E+02  0.11540717560E+03  0.00000000000E+00 0. -1.
         22    1    3    3    0    0 -0.59344368524E+02 -0.32288608193E+01 -0.18553298527E+03  0.19481957869E+03  0.00000000000E+00 0.  1.
         22    1    3    3    0    0  0.38160020886E+02  0.23343821350E+02 -0.55127449633E+03  0.55308651357E+03  0.00000000000E+00 0.  1.
</event>
<event>
 7    1  0.6122298E-006  0.9761399E+02  0.7818608E-02  0.1317842E+00
          2   -1    0    0  502    0  0.00000000000E+00  0.00000000000E+00  0.20968054189E+04  0.20968054189E+04  0.00000000000E+00 0. -1.
          1   -1    0    0  501    0 -0.00000000000E+00 -0.00000000000E+00 -0.10385872015E+03  0.10385872015E+03  0.00000000000E+00 0. -1.
         25    2    1    2    0    0  0.15370603205E+03  0.54566268650E+02  0.28041350839E+03  0.34764765885E+03  0.12499654817E+03 0.  0.
          2    1    1    2  501    0 -0.83276964986E+02 -0.37653344367E+02 -0.39444317883E+02  0.99542360091E+02  0.00000000000E+00 0. -1.
          1    1    1    2  502    0 -0.70429067061E+02 -0.16912924284E+02  0.17519775083E+04  0.17534741201E+04  0.00000000000E+00 0. -1.
         22    1    3    3    0    0  0.10571698845E+03  0.94350548846E+02  0.21304638857E+03  0.25586494758E+03  0.00000000000E+00 0.  1.
         22    1    3    3    0    0  0.47989043597E+02 -0.39784280195E+02  0.67367119817E+02  0.91782711271E+02  0.00000000000E+00 0.  1.
</event>
<event>
 7    1  0.6122298E-006  0.4664438E+02  0.7818608E-02  0.1524967E+00
          2   -1    0    0  502    0  0.00000000000E+00  0.00000000000E+00  0.55679080268E+03  0.55679080268E+03  0.00000000000E+00 0. -1.
          1   -1    0    0  501    0 -0.00000000000E+00 -0.00000000000E+00 -0.16178506255E+03  0.16178506255E+03  0.00000000000E+00 0. -1.
         25    2    1    2    0    0 -0.50296675803E+00 -0.57506614937E+02  0.74223658302E+02  0.15633844637E+03  0.12500117850E+03 0.  0.
          2    1    1    2  501    0 -0.24401747091E+02  0.39640381317E+02 -0.11568319826E+03  0.12469726321E+03  0.00000000000E+00 0. -1.
          1    1    1    2  502    0  0.24904713849E+02  0.17866233620E+02  0.43646528009E+03  0.43754015564E+03  0.00000000000E+00 0. -1.
         22    1    3    3    0    0 -0.40359392580E+02 -0.40112094397E+02  0.92955426441E+02  0.10898886178E+03  0.00000000000E+00 0.  1.
         22    1    3    3    0    0  0.39856425822E+02 -0.17394520540E+02 -0.18731768138E+02  0.47349584599E+02  0.00000000000E+00 0.  1.
</event>
<event>
 7    1  0.6122298E-006  0.1085789E+03  0.7818608E-02  0.1383214E+00
          2   -1    0    0  502    0  0.00000000000E+00  0.00000000000E+00  0.20308437175E+04  0.20308437175E+04  0.00000000000E+00 0. -1.
          1   -1    0    0  501    0 -0.00000000000E+00 -0.00000000000E+00 -0.24777051246E+03  0.24777051246E+03  0.00000000000E+00 0. -1.
         25    2    1    2    0    0 -0.65153268057E+02 -0.46709159559E+02  0.31849747969E+03  0.35140626336E+03  0.12497609144E+03 0.  0.
          2    1    1    2  501    0 -0.10551603361E+02 -0.35760533292E+02 -0.22795244855E+03  0.23098153795E+03  0.00000000000E+00 0. -1.
          1    1    1    2  502    0  0.75704871417E+02  0.82469692851E+02  0.16925281739E+04  0.16962264286E+04  0.00000000000E+00 0. -1.
         22    1    3    3    0    0  0.23676656546E+02  0.72344083022E+01  0.11505370431E+02  0.27300078341E+02  0.00000000000E+00 0.  1.
         22    1    3    3    0    0 -0.88829924603E+02 -0.53943567861E+02  0.30699210926E+03  0.32410618501E+03  0.00000000000E+00 0.  1.
</event>
<event>
 7    1  0.6122298E-006  0.7279802E+02  0.7818608E-02  0.1387854E+00
          2   -1    0    0  502    0  0.00000000000E+00  0.00000000000E+00  0.16958473822E+04  0.16958473822E+04  0.00000000000E+00 0. -1.
          1   -1    0    0  501    0 -0.00000000000E+00 -0.00000000000E+00 -0.32338973421E+02  0.32338973421E+02  0.00000000000E+00 0. -1.
         25    2    1    2    0    0  0.11962623455E+02 -0.34979213518E+02  0.16152538213E+03  0.20755289684E+03  0.12498442374E+03 0.  0.
          2    1    1    2  501    0 -0.41749390969E+02 -0.33553852091E+02  0.77591634937E+02  0.94283267066E+02  0.00000000000E+00 0. -1.
          1    1    1    2  502    0  0.29786767514E+02  0.68533065609E+02  0.14243913917E+04  0.14263501917E+04  0.00000000000E+00 0. -1.
         22    1    3    3    0    0  0.69526104093E+01 -0.75775974357E+02  0.14400065012E+03  0.16286965437E+03  0.00000000000E+00 0.  1.
         22    1    3    3    0    0  0.50100130460E+01  0.40796760839E+02  0.17524732009E+02  0.44683242470E+02  0.00000000000E+00 0.  1.
</event>
<event>
 7    1  0.6122298E-006  0.4292688E+02  0.7818608E-02  0.1540007E+00
          2   -1    0    0  502    0  0.00000000000E+00  0.00000000000E+00  0.24772111680E+04  0.24772111680E+04  0.00000000000E+00 0. -1.
          1   -1    0    0  501    0 -0.00000000000E+00 -0.00000000000E+00 -0.53679679133E+03  0.53679679133E+03  0.00000000000E+00 0. -1.
         25    2    1    2    0    0 -0.71901207763E+02 -0.97284313567E+01  0.39976114478E+03  0.42509405155E+03  0.12502621219E+03 0.  0.
          2    1    1    2  501    0  0.29740895926E+02  0.50641541218E+01 -0.52347813038E+03  0.52434675505E+03  0.00000000000E+00 0. -1.
          1    1    1    2  502    0  0.42160311836E+02  0.46642772349E+01  0.20641313623E+04  0.20645671527E+04  0.00000000000E+00 0. -1.
         22    1    3    3    0    0  0.93794382576E+01 -0.89947406934E+01 -0.37115797074E+01  0.13514993381E+02  0.00000000000E+00 0. -1.
         22    1    3    3    0    0 -0.81280646020E+02 -0.73369066329E+00  0.40347272449E+03  0.41157905817E+03  0.00000000000E+00 0. -1.
</event>
<event>
 7    1  0.6122298E-006  0.1479397E+03  0.7818608E-02  0.1396378E+00
          2   -1    0    0  502    0  0.00000000000E+00  0.00000000000E+00  0.21966652427E+04  0.21966652427E+04  0.00000000000E+00 0. -1.
          1   -1    0    0  501    0 -0.00000000000E+00 -0.00000000000E+00 -0.92617213521E+03  0.92617213521E+03  0.00000000000E+00 0. -1.
         25    2    1    2    0    0 -0.19226583010E+02  0.12249060529E+03  0.95323803194E+03  0.96936153641E+03  0.12500173144E+03 0.  0.
          2    1    1    2  501    0  0.17522419336E+02 -0.14704873757E+03 -0.91201474460E+03  0.92395955581E+03  0.00000000000E+00 0. -1.
          1    1    1    2  502    0  0.17041636742E+01  0.24558132275E+02  0.12292698201E+04  0.12295162857E+04  0.00000000000E+00 0. -1.
         22    1    3    3    0    0 -0.69229644408E+02  0.82672887817E+02  0.69584570070E+03  0.70415111250E+03  0.00000000000E+00 0.  1.
         22    1    3    3    0    0  0.50003061398E+02  0.39817717477E+02  0.25739233123E+03  0.26521042391E+03  0.00000000000E+00 0.  1.
</event>
<event>
 7    1  0.6122298E-006  0.1070751E+03  0.7818608E-02  0.1299506E+00
          2   -1    0    0  502    0  0.00000000000E+00  0.00000000000E+00  0.63927586203E+03  0.63927586203E+03  0.00000000000E+00 0. -1.
          1   -1    0    0  501    0 -0.00000000000E+00 -0.00000000000E+00 -0.12168248043E+04  0.12168248043E+04  0.00000000000E+00 0. -1.
         25    2    1    2    0    0  0.57652694166E+02  0.66230548538E+02 -0.32571260930E+03  0.35975579710E+03  0.12500084394E+03 0.  0.
          2    1    1    2  501    0 -0.66297554511E+02  0.41116501823E+02 -0.86766773691E+03  0.87116774167E+03  0.00000000000E+00 0. -1.
          1    1    1    2  502    0  0.86448603450E+01 -0.10734705036E+03  0.61583140390E+03  0.62517712759E+03  0.00000000000E+00 0. -1.
         22    1    3    3    0    0  0.47480193770E+02  0.59585131947E+02 -0.33556936938E+03  0.34410980575E+03  0.00000000000E+00 0.  1.
         22    1    3    3    0    0  0.10172500396E+02  0.66454165903E+01  0.98567600783E+01  0.15645991347E+02  0.00000000000E+00 0.  1.
</event>
<event>
 7    1  0.6122298E-006  0.3130682E+03  0.7818608E-02  0.1273314E+00
          2   -1    0    0  502    0  0.00000000000E+00  0.00000000000E+00  0.13118190988E+04  0.13118190988E+04  0.00000000000E+00 0. -1.
          1   -1    0    0  501    0 -0.00000000000E+00 -0.00000000000E+00 -0.20074524245E+03  0.20074524245E+03  0.00000000000E+00 0. -1.
         25    2    1    2    0    0  0.32455257863E+03  0.88627544833E+02  0.39586400477E+03  0.53434210686E+03  0.12499583552E+03 0.  0.
          2    1    1    2  501    0 -0.29618101167E+03 -0.69624587473E+02  0.45494635928E+02  0.30763702110E+03  0.00000000000E+00 0. -1.
          1    1    1    2  502    0 -0.28371566959E+02 -0.19002957360E+02  0.66971521562E+03  0.67058521325E+03  0.00000000000E+00 0. -1.
         22    1    3    3    0    0  0.18704990293E+03  0.19616003623E+01  0.15079149590E+03  0.24026982602E+03  0.00000000000E+00 0. -1.
         22    1    3    3    0    0  0.13750267570E+03  0.86665944471E+02  0.24507250886E+03  0.29407228084E+03  0.00000000000E+00 0. -1.
</event>
<event>
 7    1  0.6122298E-006  0.8599696E+02  0.7818608E-02  0.1411461E+00
          2   -1    0    0  502    0  0.00000000000E+00  0.00000000000E+00  0.24604330844E+04  0.24604330844E+04  0.00000000000E+00 0. -1.
          1   -1    0    0  501    0 -0.00000000000E+00 -0.00000000000E+00 -0.11833002744E+03  0.11833002744E+03  0.00000000000E+00 0. -1.
         25    2    1    2    0    0  0.20235805576E+02  0.81864172914E+02  0.18054328056E+03  0.23523662776E+03  0.12501665590E+03 0.  0.
          2    1    1    2  501    0  0.34438768510E+02 -0.15108449823E+02 -0.86233737596E+02  0.94077369927E+02  0.00000000000E+00 0. -1.
          1    1    1    2  502    0 -0.54674574085E+02 -0.66755723090E+02  0.22477935140E+04  0.22494491142E+04  0.00000000000E+00 0. -1.
         22    1    3    3    0    0  0.28392163184E+02 -0.23871558256E+02  0.83992887179E+02  0.91819231757E+02  0.00000000000E+00 0.  1.
         22    1    3    3    0    0 -0.81563576080E+01  0.10573573117E+03  0.96550393382E+02  0.14341739601E+03  0.00000000000E+00 0.  1.
</event>
<event>
 7    1  0.6122298E-006  0.5435662E+02  0.7818608E-02  0.1475346E+00
          2   -1    0    0  502    0  0.00000000000E+00  0.00000000000E+00  0.17389682134E+04  0.17389682134E+04  0.00000000000E+00 0. -1.
          1   -1    0    0  501    0 -0.00000000000E+00 -0.00000000000E+00 -0.10740780998E+03  0.10740780998E+03  0.00000000000E+00 0. -1.
         25    2    1    2    0    0 -0.34630554837E+02 -0.82247827231E+02  0.26199202056E+03  0.30369082633E+03  0.12499727495E+03 0.  0.
          2    1    1    2  501    0  0.71370360455E+01  0.36293722468E+02 -0.82090461171E+02  0.90038965950E+02  0.00000000000E+00 0. -1.
          1    1    1    2  502    0  0.27493518792E+02  0.45954104763E+02  0.14516588440E+04  0.14526462311E+04  0.00000000000E+00 0. -1.
         22    1    3    3    0    0  0.75275546452E+01 -0.18342720224E+02  0.21048943057E+03  0.21142119062E+03  0.00000000000E+00 0. -1.
         22    1    3    3    0    0 -0.42158109482E+02 -0.63905107008E+02  0.51502589996E+02  0.92269635705E+02  0.00000000000E+00 0. -1.
</event>
<event>
 7    1  0.6122298E-006  0.5541279E+02  0.7818608E-02  0.1479899E+00
          2   -1    0    0  502    0  0.00000000000E+00  0.00000000000E+00  0.33489407278E+02  0.33489407278E+02  0.00000000000E+00 0. -1.
          1   -1    0    0  501    0 -0.00000000000E+00 -0.00000000000E+00 -0.90122488194E+03  0.90122488194E+03  0.00000000000E+00 0. -1.
         25    2    1    2    0    0  0.60959970684E+02 -0.24079648952E+02 -0.24283982275E+03  0.28087816206E+03  0.12500165953E+03 0.  0.
          2    1    1    2  501    0 -0.69134871130E+01  0.34444705697E+02 -0.58453722860E+03  0.58559201298E+03  0.00000000000E+00 0. -1.
          1    1    1    2  502    0 -0.54046483571E+02 -0.10365056745E+02 -0.40358423314E+02  0.68244114179E+02  0.00000000000E+00 0. -1.
         22    1    3    3    0    0 -0.36286970983E+02  0.81849112554E+01 -0.83884146927E+02  0.91762122583E+02  0.00000000000E+00 0. -1.
         22    1    3    3    0    0  0.97246941666E+02 -0.32264560207E+02 -0.15895567583E+03  0.18911603947E+03  0.00000000000E+00 0. -1.
</event>
<event>
 7    1  0.6122298E-006  0.9560845E+02  0.7818608E-02  0.1362018E+00
          2   -1    0    0  502    0  0.00000000000E+00  0.00000000000E+00  0.12963238768E+03  0.12963238768E+03  0.00000000000E+00 0. -1.
          1   -1    0    0  501    0 -0.00000000000E+00 -0.00000000000E+00 -0.12964908732E+04  0.12964908732E+04  0.00000000000E+00 0. -1.
         25    2    1    2    0    0  0.12909384600E+03  0.82690379313E+01 -0.65864269249E+03  0.68276605753E+03  0.12500277949E+03 0.  0.
          2    1    1    2  501    0 -0.82973707685E+02 -0.28667233106E+02 -0.61712576015E+03  0.62333831125E+03  0.00000000000E+00 0. -1.
          1    1    1    2  502    0 -0.46120138313E+02  0.20398195175E+02  0.10890996712E+03  0.12001889211E+03  0.00000000000E+00 0. -1.
         22    1    3    3    0    0  0.11398339914E+03  0.18606652099E+02 -0.26964084151E+03  0.29333360904E+03  0.00000000000E+00 0. -1.
         22    1    3    3    0    0  0.15110446861E+02 -0.10337614168E+02 -0.38900185098E+03  0.38943244849E+03  0.00000000000E+00 0. -1.
</event>
<event>
 7    1  0.6122298E-006  0.1850410E+03  0.7818608E-02  0.1258904E+00
          2   -1    0    0  502    0  0.00000000000E+00  0.00000000000E+00  0.23034178702E+04  0.23034178702E+04  0.00000000000E+00 0. -1.
          1   -1    0    0  501    0 -0.00000000000E+00 -0.00000000000E+00 -0.14753835764E+03  0.14753835764E+03  0.00000000000E+00 0. -1.
         25    2    1    2    0    0 -0.19299512945E+02 -0.13459580791E+03  0.10089119058E+03  0.21045878337E+03  0.12500145781E+03 0.  0.
          2    1    1    2  501    0  0.39566874703E+02 -0.53411617930E+02 -0.76096429596E+02  0.10103962144E+03  0.00000000000E+00 0. -1.
          1    1    1    2  502    0 -0.20267361758E+02  0.18800742584E+03  0.21310847516E+04  0.21394578230E+04  0.00000000000E+00 0. -1.
         22    1    3    3    0    0 -0.30655048715E+02 -0.77428829189E+02  0.12264665898E+03  0.14824695127E+03  0.00000000000E+00 0.  1.
         22    1    3    3    0    0  0.11355535770E+02 -0.57166978721E+02 -0.21755468397E+02  0.62211832105E+02  0.00000000000E+00 0.  1.
</event>
<event>
 7    1  0.6122298E-006  0.4772275E+02  0.7818608E-02  0.1493607E+00
          2   -1    0    0  502    0  0.00000000000E+00  0.00000000000E+00  0.24633329535E+04  0.24633329535E+04  0.00000000000E+00 0. -1.
          1   -1    0    0  501    0 -0.00000000000E+00 -0.00000000000E+00 -0.12481698141E+02  0.12481698141E+02  0.00000000000E+00 0. -1.
         25    2    1    2    0    0  0.49863434848E+01  0.21799091172E+02  0.59822637019E+03  0.61155677596E+03  0.12500734472E+03 0.  0.
          2    1    1    2  501    0 -0.31203269580E+02  0.19997629590E+02  0.57211782190E+02  0.68166980592E+02  0.00000000000E+00 0. -1.
          1    1    1    2  502    0  0.26216926095E+02 -0.41796720761E+02  0.17954131030E+04  0.17960908951E+04  0.00000000000E+00 0. -1.
         22    1    3    3    0    0 -0.46633600051E+02 -0.79878743427E+01  0.11050430363E+03  0.12020690459E+03  0.00000000000E+00 0. -1.
         22    1    3    3    0    0  0.51619943536E+02  0.29786965515E+02  0.48772206657E+03  0.49134987137E+03  0.00000000000E+00 0. -1.
</event>
<event>
 7    1  0.6122298E-006  0.9767142E+02  0.7818608E-02  0.1390214E+00
          2   -1    0    0  502    0  0.00000000000E+00  0.00000000000E+00  0.22294887249E+04  0.22294887249E+04  0.00000000000E+00 0. -1.
          1   -1    0    0  501    0 -0.00000000000E+00 -0.00000000000E+00 -0.11434098678E+04  0.11434098678E+04  0.00000000000E+00 0. -1.
         25    2    1    2    0    0 -0.12592020804E+02 -0.62322301661E+02  0.17040508550E+04  0.17098116939E+04  0.12499633601E+03 0.  0.
          2    1    1    2  501    0  0.41951852124E+02  0.88251763754E+02 -0.11376981292E+04  0.11418867566E+04  0.00000000000E+00 0. -1.
          1    1    1    2  502    0 -0.29359831320E+02 -0.25929462093E+02  0.51972613128E+03  0.52120014220E+03  0.00000000000E+00 0. -1.
         22    1    3    3    0    0 -0.14743849931E+02 -0.29232401368E+02  0.96195003534E+02  0.10161394149E+03  0.00000000000E+00 0. -1.
         22    1    3    3    0    0  0.21518291263E+01 -0.33089900293E+02  0.16078558514E+04  0.16081977524E+04  0.00000000000E+00 0. -1.
</event>
<event>
 7    1  0.6122298E-006  0.2184016E+03  0.7818608E-02  0.1211772E+00
          2   -1    0    0  502    0  0.00000000000E+00  0.00000000000E+00  0.59586974761E+03  0.59586974761E+03  0.00000000000E+00 0. -1.
          1   -1    0    0  501    0 -0.00000000000E+00 -0.00000000000E+00 -0.10092428769E+04  0.10092428769E+04  0.00000000000E+00 0. -1.
         25    2    1    2    0    0 -0.14506986040E+03  0.58202221886E+02 -0.10695343584E+03  0.22692988272E+03  0.12500148481E+03 0.  0.
          2    1    1    2  501    0 -0.82524835598E+02 -0.38917626284E+02 -0.81530133220E+03  0.82039087782E+03  0.00000000000E+00 0. -1.
          1    1    1    2  502    0  0.22759469600E+03 -0.19284595602E+02  0.50888163874E+03  0.55779186398E+03  0.00000000000E+00 0. -1.
         22    1    3    3    0    0 -0.27990096427E+02 -0.75205454527E+01  0.25296589004E+02  0.38469748077E+02  0.00000000000E+00 0.  1.
         22    1    3    3    0    0 -0.11707976398E+03  0.65722767339E+02 -0.13225002485E+03  0.18846013465E+03  0.00000000000E+00 0.  1.
</event>
<event>
 7    1  0.6122298E-006  0.8219972E+02  0.7818608E-02  0.1378365E+00
          2   -1    0    0  502    0  0.00000000000E+00  0.00000000000E+00  0.91793953631E+02  0.91793953631E+02  0.00000000000E+00 0. -1.
          1   -1    0    0  501    0 -0.00000000000E+00 -0.00000000000E+00 -0.19399415699E+04  0.19399415699E+04  0.00000000000E+00 0. -1.
         25    2    1    2    0    0 -0.35863963805E+02  0.12019427449E+02  0.94405876148E+01  0.13093830003E+03  0.12500009274E+03 0.  0.
          2    1    1    2  501    0  0.82263765517E+02  0.97053862208E+01 -0.18465256028E+04  0.18483826237E+04  0.00000000000E+00 0. -1.
          1    1    1    2  502    0 -0.46399801712E+02 -0.21724813670E+02 -0.11062601012E+02  0.52414599770E+02  0.00000000000E+00 0. -1.
         22    1    3    3    0    0  0.19843155748E+02 -0.36896265727E+02  0.32803869964E+02  0.53208825765E+02  0.00000000000E+00 0.  1.
         22    1    3    3    0    0 -0.55707119552E+02  0.48915693176E+02 -0.23363282349E+02  0.77729474267E+02  0.00000000000E+00 0.  1.
</event>
<event>
 7    1  0.6122298E-006  0.7290293E+02  0.7818608E-02  0.1373799E+00
          2   -1    0    0  502    0  0.00000000000E+00  0.00000000000E+00  0.18714387718E+04  0.18714387718E+04  0.00000000000E+00 0. -1.
          1   -1    0    0  501    0 -0.00000000000E+00 -0.00000000000E+00 -0.67658215831E+03  0.67658215831E+03  0.00000000000E+00 0. -1.
         25    2    1    2    0    0  0.54063853441E+02 -0.11763123179E+02  0.10019672459E+04  0.10112486820E+04  0.12499705405E+03 0.  0.
          2    1    1    2  501    0 -0.50223573281E+01 -0.59761776307E+02 -0.66842144728E+03  0.67110649316E+03  0.00000000000E+00 0. -1.
          1    1    1    2  502    0 -0.49041496113E+02  0.71524899486E+02  0.86131081488E+03  0.86566575502E+03  0.00000000000E+00 0. -1.
         22    1    3    3    0    0  0.43494897026E+02  0.54293195756E+02  0.54017098768E+03  0.54463221820E+03  0.00000000000E+00 0.  1.
         22    1    3    3    0    0  0.10568956416E+02 -0.66056318935E+02  0.46179625825E+03  0.46661646375E+03  0.00000000000E+00 0.  1.
</event>
<event>
 7    1  0.6122298E-006  0.1149067E+03  0.7818608E-02  0.1374957E+00
          2   -1    0    0  502    0  0.00000000000E+00  0.00000000000E+00  0.21067552071E+03  0.21067552071E+03  0.00000000000E+00 0. -1.
          1   -1    0    0  501    0 -0.00000000000E+00 -0.00000000000E+00 -0.81120600309E+03  0.81120600309E+03  0.00000000000E+00 0. -1.
         25    2    1    2    0    0 -0.39141650541E+01 -0.12980737708E+03 -0.36024349652E+03  0.40282190509E+03  0.12499933843E+03 0.  0.
          2    1    1    2  501    0  0.33101278522E+02  0.10596243049E+03 -0.42052098595E+03  0.43492715591E+03  0.00000000000E+00 0. -1.
          1    1    1    2  502    0 -0.29187113468E+02  0.23844946584E+02  0.18023400009E+03  0.18413246280E+03  0.00000000000E+00 0. -1.
         22    1    3    3    0    0  0.23303831019E+02 -0.34556267999E+02 -0.16061929789E+02  0.44667547355E+02  0.00000000000E+00 0. -1.
         22    1    3    3    0    0 -0.27217996073E+02 -0.95251109077E+02 -0.34418156673E+03  0.35815435774E+03  0.00000000000E+00 0. -1.
</event>
<event>
 7    1  0.6122298E-006  0.6094504E+02  0.7818608E-02  0.1466606E+00
          2   -1    0    0  502    0  0.00000000000E+00  0.00000000000E+00  0.46891570225E+03  0.46891570225E+03  0.00000000000E+00 0. -1.
          1   -1    0    0  501    0 -0.00000000000E+00 -0.00000000000E+00 -0.99710779171E+02  0.99710779171E+02  0.00000000000E+00 0. -1.
         25    2    1    2    0    0  0.59312586924E+02 -0.59395245997E+02  0.13342069413E+03  0.20116937783E+03  0.12498903447E+03 0.  0.
          2    1    1    2  501    0 -0.53459709672E+01  0.34709106225E+02 -0.57964883681E+02  0.67773366455E+02  0.00000000000E+00 0. -1.
          1    1    1    2  502    0 -0.53966615957E+02  0.24686139772E+02  0.29374911263E+03  0.29968373714E+03  0.00000000000E+00 0. -1.
         22    1    3    3    0    0  0.29141056522E+02  0.25292960831E+02 -0.19829698918E+01  0.38637639840E+02  0.00000000000E+00 0. -1.
         22    1    3    3    0    0  0.30171530402E+02 -0.84688206829E+02  0.13540366402E+03  0.16253173799E+03  0.00000000000E+00 0. -1.
</event>
<event>
 7    1  0.6122298E-006  0.1482596E+03  0.7818608E-02  0.1326249E+00
          2   -1    0    0  502    0  0.00000000000E+00  0.00000000000E+00  0.18184513498E+04  0.18184513498E+04  0.00000000000E+00 0. -1.
          1   -1    0    0  501    0 -0.00000000000E+00 -0.00000000000E+00 -0.17534938881E+03  0.17534938881E+03  0.00000000000E+00 0. -1.
         25    2    1    2    0    0 -0.14473119633E+02  0.15273585137E+03  0.42046050113E+03  0.46470361322E+03  0.12499881457E+03 0.  0.
          2    1    1    2  501    0  0.43640620445E+02 -0.73108151550E+01 -0.14594066565E+03  0.15250124478E+03  0.00000000000E+00 0. -1.
          1    1    1    2  502    0 -0.29167500812E+02 -0.14542503622E+03  0.13685821255E+04  0.13765958807E+04  0.00000000000E+00 0. -1.
         22    1    3    3    0    0  0.42238130039E+02  0.11941982171E+03  0.32467661339E+03  0.34851120029E+03  0.00000000000E+00 0. -1.
         22    1    3    3    0    0 -0.56711249672E+02  0.33316029668E+02  0.95783887746E+02  0.11619241294E+03  0.00000000000E+00 0. -1.
</event>
<event>
 7    1  0.6122298E-006  0.5692049E+02  0.7818608E-02  0.1542363E+00
          2   -1    0    0  502    0  0.00000000000E+00  0.00000000000E+00  0.29473741538E+03  0.29473741538E+03  0.00000000000E+00 0. -1.
          1   -1    0    0  501    0 -0.00000000000E+00 -0.00000000000E+00 -0.16754598428E+04  0.16754598428E+04  0.00000000000E+00 0. -1.
         25    2    1    2    0    0 -0.64621184060E+01 -0.40937716383E+02 -0.19317929537E+02  0.13310031998E+03  0.12499942872E+03 0.  0.
          2    1    1    2  501    0  0.15631933456E+02 -0.16052658457E+02 -0.15956686552E+04  0.15958259624E+04  0.00000000000E+00 0. -1.
          1    1    1    2  502    0 -0.91698150500E+01  0.56990374840E+02  0.23426415733E+03  0.24127097576E+03  0.00000000000E+00 0. -1.
         22    1    3    3    0    0 -0.19627601832E+02  0.37208989386E+02  0.17690704783E+02  0.45636747041E+02  0.00000000000E+00 0. -1.
         22    1    3    3    0    0  0.13165483426E+02 -0.78146705769E+02 -0.37008634320E+02  0.87463572935E+02  0.00000000000E+00 0. -1.
</event>
<event>
 7    1  0.6122298E-006  0.5208854E+02  0.7818608E-02  0.1496247E+00
          2   -1    0    0  502    0  0.00000000000E+00  0.00000000000E+00  0.12997375100E+04  0.12997375100E+04  0.00000000000E+00 0. -1.
          1   -1    0    0  501    0 -0.00000000000E+00 -0.00000000000E+00 -0.54719455922E+02  0.54719455922E+02  0.00000000000E+00 0. -1.
         25    2    1    2    0    0  0.58797229305E+02 -0.41786339894E+02  0.37167788326E+03  0.39871282388E+03  0.12499701855E+03 0.  0.
          2    1    1    2  501    0 -0.83416568673E+01  0.32280069568E+02 -0.33610193986E+02  0.47341644145E+02  0.00000000000E+00 0. -1.
          1    1    1    2  502    0 -0.50455572437E+02  0.95062703266E+01  0.90695036476E+03  0.90840249785E+03  0.00000000000E+00 0. -1.
         22    1    3    3    0    0 -0.24411218599E+02 -0.10996932991E+02  0.14035239335E+02  0.30229589344E+02  0.00000000000E+00 0.  1.
         22    1    3    3    0    0  0.83208447904E+02 -0.30789406904E+02  0.35764264393E+03  0.36848323454E+03  0.00000000000E+00 0.  1.
</event>
<event>
 7    1  0.6122298E-006  0.3960029E+03  0.7818608E-02  0.1110225E+00
          2   -1    0    0  502    0  0.00000000000E+00  0.00000000000E+00  0.15571069162E+04  0.15571069162E+04  0.00000000000E+00 0. -1.
          1   -1    0    0  501    0 -0.00000000000E+00 -0.00000000000E+00 -0.74858833716E+03  0.74858833716E+03  0.00000000000E+00 0. -1.
         25    2    1    2    0    0 -0.50404273333E+02 -0.32720995001E+03  0.41926517346E+03  0.54864908861E+03  0.12500237839E+03 0.  0.
          2    1    1    2  501    0  0.21334601477E+03  0.34683876057E+03 -0.61603285556E+03  0.73845116764E+03  0.00000000000E+00 0. -1.
          1    1    1    2  502    0 -0.16294174144E+03 -0.19628810564E+02  0.10052862612E+04  0.10185949971E+04  0.00000000000E+00 0. -1.
         22    1    3    3    0    0  0.30027151166E+02 -0.35567190780E+02  0.28946909869E+02  0.54814035229E+02  0.00000000000E+00 0.  1.
         22    1    3    3    0    0 -0.80431424498E+02 -0.29164275923E+03  0.39031826359E+03  0.49383505339E+03  0.00000000000E+00 0.  1.
</event>
<event>
 7    1  0.6122298E-006  0.1121013E+03  0.7818608E-02  0.1257141E+00
          2   -1    0    0  502    0  0.00000000000E+00  0.00000000000E+00  0.51681296970E+04  0.51681296970E+04  0.00000000000E+00 0. -1.
          1   -1    0    0  501    0 -0.00000000000E+00 -0.00000000000E+00 -0.30872263797E+03  0.30872263797E+03  0.00000000000E+00 0. -1.
         25    2    1    2    0    0  0.68200873049E+02  0.75029303463E+02 -0.52390446307E+02  0.16926247410E+03  0.12499708321E+03 0.  0.
          2    1    1    2  501    0 -0.12780941427E+03  0.19370557192E+02 -0.17610812507E+03  0.21845946209E+03  0.00000000000E+00 0. -1.
          1    1    1    2  502    0  0.59608541224E+02 -0.94399860656E+02  0.50879056304E+04  0.50891303988E+04  0.00000000000E+00 0. -1.
         22    1    3    3    0    0  0.41817786812E+02  0.99946399238E+02 -0.35298010080E+01  0.10839958261E+03  0.00000000000E+00 0.  1.
         22    1    3    3    0    0  0.26383086237E+02 -0.24917095775E+02 -0.48860645299E+02  0.60862891488E+02  0.00000000000E+00 0.  1.
</event>
<event>
 7    1  0.6122298E-006  0.7311011E+02  0.7818608E-02  0.1387992E+00
          2   -1    0    0  502    0  0.00000000000E+00  0.00000000000E+00  0.17380807414E+02  0.17380807414E+02  0.00000000000E+00 0. -1.
          1   -1    0    0  501    0 -0.00000000000E+00 -0.00000000000E+00 -0.26514627878E+04  0.26514627878E+04  0.00000000000E+00 0. -1.
         25    2    1    2    0    0 -0.51018252104E+02  0.72591157736E+02 -0.70140281109E+03  0.71795670856E+03  0.12499437478E+03 0.  0.
          2    1    1    2  501    0 -0.18237324595E+02 -0.50055341649E+02 -0.17890958530E+04  0.17898888537E+04  0.00000000000E+00 0. -1.
          1    1    1    2  502    0  0.69255576699E+02 -0.22535816087E+02 -0.14358331630E+03  0.16099803300E+03  0.00000000000E+00 0. -1.
         22    1    3    3    0    0 -0.26929986799E+02  0.17648657337E+02 -0.59450180028E+03  0.59537306777E+03  0.00000000000E+00 0. -1.
         22    1    3    3    0    0 -0.24088265305E+02  0.54942500399E+02 -0.10690101082E+03  0.12258364079E+03  0.00000000000E+00 0. -1.
</event>
<event>
 7    1  0.6122298E-006  0.1175667E+03  0.7818608E-02  0.1360912E+00
          2   -1    0    0  502    0  0.00000000000E+00  0.00000000000E+00  0.26130830843E+04  0.26130830843E+04  0.00000000000E+00 0. -1.
          1   -1    0    0  501    0 -0.00000000000E+00 -0.00000000000E+00 -0.28794022160E+03  0.28794022160E+03  0.00000000000E+00 0. -1.
         25    2    1    2    0    0 -0.50741572401E+02  0.11148601108E+03  0.88701165308E+03  0.90411091385E+03  0.12499213578E+03 0.  0.
          2    1    1    2  501    0  0.81971530877E+02 -0.84318623261E+02 -0.26675402736E+03  0.29152473860E+03  0.00000000000E+00 0. -1.
          1    1    1    2  502    0 -0.31229958475E+02 -0.27167387818E+02  0.17048852370E+04  0.17053876535E+04  0.00000000000E+00 0. -1.
         22    1    3    3    0    0 -0.41924209614E+02  0.17214373758E+01  0.87376130526E+02  0.96928792854E+02  0.00000000000E+00 0.  1.
         22    1    3    3    0    0 -0.88173627873E+01  0.10976457370E+03  0.79963552255E+03  0.80718212099E+03  0.00000000000E+00 0.  1.
</event>
<event>
 7    1  0.6122298E-006  0.1428920E+03  0.7818608E-02  0.1249201E+00
          2   -1    0    0  502    0  0.00000000000E+00  0.00000000000E+00  0.29077575233E+03  0.29077575233E+03  0.00000000000E+00 0. -1.
          1   -1    0    0  501    0 -0.00000000000E+00 -0.00000000000E+00 -0.67533426323E+03  0.67533426323E+03  0.00000000000E+00 0. -1.
         25    2    1    2    0    0 -0.25351274759E+02  0.85074880621E+02 -0.13523228555E+03  0.20443363685E+03  0.12499967350E+03 0.  0.
          2    1    1    2  501    0  0.11079346062E+03 -0.12609358063E+03 -0.48202601075E+03  0.51041537695E+03  0.00000000000E+00 0. -1.
          1    1    1    2  502    0 -0.85442185858E+02  0.41018700014E+02  0.23269978541E+03  0.25126100176E+03  0.00000000000E+00 0. -1.
         22    1    3    3    0    0 -0.56349149419E+02  0.74665039764E+02 -0.36471804302E+02  0.10040063402E+03  0.00000000000E+00 0.  1.
         22    1    3    3    0    0  0.30997874660E+02  0.10409840856E+02 -0.98760481251E+02  0.10403300283E+03  0.00000000000E+00 0.  1.
</event>
<event>
 7    1  0.6122298E-006  0.1013845E+03  0.7818608E-02  0.1350575E+00
          2   -1    0    0  502    0  0.00000000000E+00  0.00000000000E+00  0.29274591706E+02  0.29274591706E+02  0.00000000000E+00 0. -1.
          1   -1    0    0  501    0 -0.00000000000E+00 -0.00000000000E+00 -0.17052535869E+04  0.17052535869E+04  0.00000000000E+00 0. -1.
         25    2    1    2    0    0  0.14130699823E+03  0.28797278148E+01 -0.68923946232E+03  0.71460086068E+03  0.12500957196E+03 0.  0.
          2    1    1    2  501    0 -0.48840613079E+02 -0.18941851814E+02 -0.86317029981E+03  0.86475844356E+03  0.00000000000E+00 0. -1.
          1    1    1    2  502    0 -0.92466385149E+02  0.16062124000E+02 -0.12356923303E+03  0.15516887433E+03  0.00000000000E+00 0. -1.
         22    1    3    3    0    0  0.11544679495E+03 -0.33464474760E+02 -0.30578842176E+03  0.32856413745E+03  0.00000000000E+00 0.  1.
         22    1    3    3    0    0  0.25860203277E+02  0.36344202575E+02 -0.38345104056E+03  0.38603672323E+03  0.00000000000E+00 0.  1.
</event>
<event>
 7    1  0.6122298E-006  0.4639124E+02  0.7818608E-02  0.1517685E+00
          2   -1    0    0  502    0  0.00000000000E+00  0.00000000000E+00  0.67803037224E+02  0.67803037224E+02  0.00000000000E+00 0. -1.
          1   -1    0    0  501    0 -0.00000000000E+00 -0.00000000000E+00 -0.25212648909E+04  0.25212648909E+04  0.00000000000E+00 0. -1.
         25    2    1    2    0    0  0.42843083230E+02  0.51504189906E+02 -0.36078364874E+03  0.38765856089E+03  0.12500442903E+03 0.  0.
          2    1    1    2  501    0 -0.10047948208E+01 -0.32337032394E+02 -0.21371605708E+04  0.21374054362E+04  0.00000000000E+00 0. -1.
          1    1    1    2  502    0 -0.41838288409E+02 -0.19167157512E+02  0.44482365917E+02  0.64003930987E+02  0.00000000000E+00 0. -1.
         22    1    3    3    0    0  0.37494825981E+02  0.87394945032E+02 -0.31610685758E+03  0.33010192941E+03  0.00000000000E+00 0.  1.
         22    1    3    3    0    0  0.53482572493E+01 -0.35890755126E+02 -0.44676791162E+02  0.57556631483E+02  0.00000000000E+00 0.  1.
</event>
<event>
 7    1  0.6122298E-006  0.7186623E+02  0.7818608E-02  0.1483199E+00
          2   -1    0    0  502    0  0.00000000000E+00  0.00000000000E+00  0.58921433291E+03  0.58921433291E+03  0.00000000000E+00 0. -1.
          1   -1    0    0  501    0 -0.00000000000E+00 -0.00000000000E+00 -0.20330103945E+03  0.20330103945E+03  0.00000000000E+00 0. -1.
         25    2    1    2    0    0 -0.33358800204E+01 -0.65928534050E+02  0.26176879792E+03  0.29749907546E+03  0.12500038656E+03 0.  0.
          2    1    1    2  501    0  0.29800345343E+02  0.65682488759E+02 -0.17782161894E+03  0.19189262121E+03  0.00000000000E+00 0. -1.
          1    1    1    2  502    0 -0.26464465322E+02  0.24604529090E+00  0.30196611448E+03  0.30312367568E+03  0.00000000000E+00 0. -1.
         22    1    3    3    0    0  0.54868012479E+02 -0.22184347359E+01  0.10861951453E+03  0.12171121223E+03  0.00000000000E+00 0. -1.
         22    1    3    3    0    0 -0.58203892500E+02 -0.63710099314E+02  0.15314928339E+03  0.17578786323E+03  0.00000000000E+00 0. -1.
</event>
<event>
 7    1  0.6122298E-006  0.1780740E+03  0.7818608E-02  0.1265605E+00
          2   -1    0    0  502    0  0.00000000000E+00  0.00000000000E+00  0.12931431550E+04  0.12931431550E+04  0.00000000000E+00 0. -1.
          1   -1    0    0  501    0 -0.00000000000E+00 -0.00000000000E+00 -0.31646630418E+04  0.31646630418E+04  0.00000000000E+00 0. -1.
         25    2    1    2    0    0 -0.12728692398E+03  0.70013347765E+02  0.20738446708E+03  0.28238011563E+03  0.12500553043E+03 0.  0.
          2    1    1    2  501    0  0.11791368435E+03 -0.13401549694E+03 -0.31236167577E+04  0.31287130644E+04  0.00000000000E+00 0. -1.
          1    1    1    2  502    0  0.93732396285E+01  0.64002149174E+02  0.10447124038E+04  0.10467130167E+04  0.00000000000E+00 0. -1.
         22    1    3    3    0    0 -0.44479216465E+02  0.87726910780E+02  0.69018939496E+02  0.12015833546E+03  0.00000000000E+00 0.  1.
         22    1    3    3    0    0 -0.82807707512E+02 -0.17713563015E+02  0.13836552758E+03  0.16222178017E+03  0.00000000000E+00 0.  1.
</event>
<event>
 7    1  0.6122298E-006  0.1310923E+03  0.7818608E-02  0.1337811E+00
          2   -1    0    0  502    0  0.00000000000E+00  0.00000000000E+00  0.11437924882E+04  0.11437924882E+04  0.00000000000E+00 0. -1.
          1   -1    0    0  501    0 -0.00000000000E+00 -0.00000000000E+00 -0.25771350275E+03  0.25771350275E+03  0.00000000000E+00 0. -1.
         25    2    1    2    0    0  0.13174882207E+03 -0.19049374748E+02  0.42650650143E+03  0.46395827611E+03  0.12501542071E+03 0.  0.
          2    1    1    2  501    0 -0.14706027620E+02 -0.42760230997E+02 -0.23050125927E+03  0.23489473202E+03  0.00000000000E+00 0. -1.
          1    1    1    2  502    0 -0.11704279445E+03  0.61809605745E+02  0.69007374329E+03  0.70265298283E+03  0.00000000000E+00 0. -1.
         22    1    3    3    0    0  0.46893044082E+02 -0.10401696091E+02  0.26296770665E+02  0.54760140725E+02  0.00000000000E+00 0. -1.
         22    1    3    3    0    0  0.84855777990E+02 -0.86476786569E+01  0.40020973077E+03  0.40919813539E+03  0.00000000000E+00 0. -1.
</event>
<event>
 7    1  0.6122298E-006  0.7763187E+02  0.7818608E-02  0.1384484E+00
          2   -1    0    0  502    0  0.00000000000E+00  0.00000000000E+00  0.57511144417E+03  0.57511144417E+03  0.00000000000E+00 0. -1.
          1   -1    0    0  501    0 -0.00000000000E+00 -0.00000000000E+00 -0.16933620928E+04  0.16933620928E+04  0.00000000000E+00 0. -1.
         25    2    1    2    0    0  0.21539446214E+02  0.10748134034E+03 -0.96662717741E+02  0.19231585897E+03  0.12500208937E+03 0.  0.
          2    1    1    2  501    0  0.18521198322E+02 -0.74937868994E+02 -0.15466448825E+04  0.15485700215E+04  0.00000000000E+00 0. -1.
          1    1    1    2  502    0 -0.40060644536E+02 -0.32543471342E+02  0.52505695164E+03  0.52758765645E+03  0.00000000000E+00 0. -1.
         22    1    3    3    0    0  0.60238415091E+02  0.75302014941E+02 -0.16751482501E+02  0.97875800241E+02  0.00000000000E+00 0. -1.
         22    1    3    3    0    0 -0.38698968877E+02  0.32179325396E+02 -0.79911235240E+02  0.94440058729E+02  0.00000000000E+00 0. -1.
</event>
<event>
 7    1  0.6122298E-006  0.5995285E+02  0.7818608E-02  0.1470302E+00
          2   -1    0    0  502    0  0.00000000000E+00  0.00000000000E+00  0.22426372593E+04  0.22426372593E+04  0.00000000000E+00 0. -1.
          1   -1    0    0  501    0 -0.00000000000E+00 -0.00000000000E+00 -0.25973471784E+03  0.25973471784E+03  0.00000000000E+00 0. -1.
         25    2    1    2    0    0  0.83808355894E+02  0.24664154737E+02  0.67401054219E+03  0.69104691316E+03  0.12499385649E+03 0.  0.
          2    1    1    2  501    0 -0.25437139970E+02 -0.23696975731E+02 -0.24946460820E+03  0.25187533720E+03  0.00000000000E+00 0. -1.
          1    1    1    2  502    0 -0.58371215924E+02 -0.96717900607E+00  0.15583566075E+04  0.15594497268E+04  0.00000000000E+00 0. -1.
         22    1    3    3    0    0  0.48687718346E+02  0.15981003143E+02  0.74363801269E+02  0.90309807431E+02  0.00000000000E+00 0. -1.
         22    1    3    3    0    0  0.35120637548E+02  0.86831515939E+01  0.59964674092E+03  0.60073710573E+03  0.00000000000E+00 0. -1.
</event>
<event>
 7    1  0.6122298E-006  0.6573425E+02  0.7818608E-02  0.1392582E+00
          2   -1    0    0  502    0  0.00000000000E+00  0.00000000000E+00  0.10997105537E+04  0.10997105537E+04  0.00000000000E+00 0. -1.
          1   -1    0    0  501    0 -0.00000000000E+00 -0.00000000000E+00 -0.33129777842E+02  0.33129777842E+02  0.00000000000E+00 0. -1.
         25    2    1    2    0    0  0.10588574944E+02  0.78420064865E+02  0.25459687190E+03  0.29445956127E+03  0.12500016621E+03 0.  0.
          2    1    1    2  501    0  0.40668994794E+02 -0.53243104950E+02  0.80772754160E+02  0.10494299966E+03  0.00000000000E+00 0. -1.
          1    1    1    2  502    0 -0.51257569738E+02 -0.25176959916E+02  0.73121114983E+03  0.73343777064E+03  0.00000000000E+00 0. -1.
         22    1    3    3    0    0  0.25585489877E+02 -0.29413853263E+02  0.71617639242E+02  0.81540654319E+02  0.00000000000E+00 0. -1.
         22    1    3    3    0    0 -0.14996914933E+02  0.10783391813E+03  0.18297923265E+03  0.21291890696E+03  0.00000000000E+00 0. -1.
</event>
<event>
 7    1  0.6122298E-006  0.7489657E+02  0.7818608E-02  0.1471340E+00
          2   -1    0    0  502    0  0.00000000000E+00  0.00000000000E+00  0.19873038929E+04  0.19873038929E+04  0.00000000000E+00 0. -1.
          1   -1    0    0  501    0 -0.00000000000E+00 -0.00000000000E+00 -0.35817859102E+02  0.35817859102E+02  0.00000000000E+00 0. -1.
         25    2    1    2    0    0 -0.50804714111E+02 -0.26482863271E+02  0.77888303371E+03  0.79092808096E+03  0.12500395202E+03 0.  0.
          2    1    1    2  501    0 -0.26224214323E+02  0.86770722167E+01 -0.21792766852E+02  0.35184168119E+02  0.00000000000E+00 0. -1.
          1    1    1    2  502    0  0.77028928434E+02  0.17805791055E+02  0.11943957669E+04  0.11970095029E+04  0.00000000000E+00 0. -1.
         22    1    3    3    0    0  0.11712592253E+02  0.34657250967E+02  0.41817100183E+03  0.41976814629E+03  0.00000000000E+00 0.  1.
         22    1    3    3    0    0 -0.62517306364E+02 -0.61140114238E+02  0.36071203188E+03  0.37115993467E+03  0.00000000000E+00 0.  1.
</event>
<event>
 7    1  0.6122298E-006  0.8639596E+02  0.7818608E-02  0.1328713E+00
          2   -1    0    0  502    0  0.00000000000E+00  0.00000000000E+00  0.14930410255E+04  0.14930410255E+04  0.00000000000E+00 0. -1.
          1   -1    0    0  501    0 -0.00000000000E+00 -0.00000000000E+00 -0.20080807481E+03  0.20080807481E+03  0.00000000000E+00 0. -1.
         25    2    1    2    0    0 -0.53483313401E+02 -0.29735815656E+02  0.11260803058E+03  0.17902565625E+03  0.12499973400E+03 0.  0.
          2    1    1    2  501    0  0.45688420300E+02 -0.58591059326E+02 -0.15782400546E+03  0.17443841515E+03  0.00000000000E+00 0. -1.
          1    1    1    2  502    0  0.77948931016E+01  0.88326874982E+02  0.13374489256E+04  0.13403850289E+04  0.00000000000E+00 0. -1.
         22    1    3    3    0    0 -0.58393051993E+02  0.18360351944E+01  0.13008872203E+03  0.14260503198E+03  0.00000000000E+00 0. -1.
         22    1    3    3    0    0  0.49097385920E+01 -0.31571850850E+02 -0.17480691447E+02  0.36420624276E+02  0.00000000000E+00 0. -1.
</event>
<event>
 7    1  0.6122298E-006  0.6155699E+02  0.7818608E-02  0.1470640E+00
          2   -1    0    0  502    0  0.00000000000E+00  0.00000000000E+00  0.13451024992E+04  0.13451024992E+04  0.00000000000E+00 0. -1.
          1   -1    0    0  501    0 -0.00000000000E+00 -0.00000000000E+00 -0.65352295832E+02  0.65352295832E+02  0.00000000000E+00 0. -1.
         25    2    1    2    0    0  0.45477262009E+02 -0.66823983828E+00  0.69684038924E+03  0.70942459771E+03  0.12501241480E+03 0.  0.
          2    1    1    2  501    0 -0.52093797146E+02  0.33790910793E+02 -0.42156640304E+02  0.75051793283E+02  0.00000000000E+00 0. -1.
          1    1    1    2  502    0  0.66165351371E+01 -0.33122670954E+02  0.62506645441E+03  0.62597840402E+03  0.00000000000E+00 0. -1.
         22    1    3    3    0    0 -0.19974124295E+02 -0.13755123724E+02  0.27103528498E+02  0.36369909638E+02  0.00000000000E+00 0.  1.
         22    1    3    3    0    0  0.65451386304E+02  0.13086883885E+02  0.66973686075E+03  0.67305468808E+03  0.00000000000E+00 0.  1.
</event>
<event>
 7    1  0.6122298E-006  0.9343152E+02  0.7818608E-02  0.1483725E+00
          2   -1    0    0  502    0  0.00000000000E+00  0.00000000000E+00  0.12967062618E+04  0.12967062618E+04  0.00000000000E+00 0. -1.
          1   -1    0    0  501    0 -0.00000000000E+00 -0.00000000000E+00 -0.54452796474E+03  0.54452796474E+03  0.00000000000E+00 0. -1.
         25    2    1    2    0    0 -0.68912060157E+02  0.30098964383E+02  0.24959815717E+03  0.28909999069E+03  0.12499897945E+03 0.  0.
          2    1    1    2  501    0 -0.18654273087E+02  0.79607059158E+01 -0.52236141359E+03  0.52275501064E+03  0.00000000000E+00 0. -1.
          1    1    1    2  502    0  0.87566333243E+02 -0.38059670299E+02  0.10249415535E+04  0.10293792252E+04  0.00000000000E+00 0. -1.
         22    1    3    3    0    0  0.14011989473E+02  0.55376066207E+02  0.12357990357E+03  0.13614270867E+03  0.00000000000E+00 0. -1.
         22    1    3    3    0    0 -0.82924049630E+02 -0.25277101823E+02  0.12601825360E+03  0.15295728202E+03  0.00000000000E+00 0. -1.
</event>
<event>
 7    1  0.6122298E-006  0.6508990E+02  0.7818608E-02  0.1388997E+00
          2   -1    0    0  502    0  0.00000000000E+00  0.00000000000E+00  0.76541625740E+03  0.76541625740E+03  0.00000000000E+00 0. -1.
          1   -1    0    0  501    0 -0.00000000000E+00 -0.00000000000E+00 -0.12041043992E+04  0.12041043992E+04  0.00000000000E+00 0. -1.
         25    2    1    2    0    0 -0.62339664197E+01 -0.53650317627E+02 -0.10174217768E+03  0.16998881104E+03  0.12501002455E+03 0.  0.
          2    1    1    2  501    0  0.59861648185E+02  0.28209841984E+02 -0.10660067633E+04  0.10680588146E+04  0.00000000000E+00 0. -1.
          1    1    1    2  502    0 -0.53627681766E+02  0.25440475643E+02  0.72906079919E+03  0.73147303092E+03  0.00000000000E+00 0. -1.
         22    1    3    3    0    0  0.39850316782E+02 -0.71442129219E+02 -0.84643458638E+02  0.11771380830E+03  0.00000000000E+00 0. -1.
         22    1    3    3    0    0 -0.46084283201E+02  0.17791811592E+02 -0.17098719047E+02  0.52275002735E+02  0.00000000000E+00 0. -1.
</event>
<event>
 7    1  0.6122298E-006  0.3511479E+03  0.7818608E-02  0.1173503E+00
          2   -1    0    0  502    0  0.00000000000E+00  0.00000000000E+00  0.84568990191E+03  0.84568990191E+03  0.00000000000E+00 0. -1.
          1   -1    0    0  501    0 -0.00000000000E+00 -0.00000000000E+00 -0.16263819824E+04  0.16263819824E+04  0.00000000000E+00 0. -1.
         25    2    1    2    0    0 -0.24486395571E+03  0.13608934973E+03  0.26753616123E+03  0.40703725322E+03  0.12500024010E+03 0.  0.
          2    1    1    2  501    0  0.33107983818E+03 -0.12969855753E+03 -0.15324468781E+04  0.15731589269E+04  0.00000000000E+00 0. -1.
          1    1    1    2  502    0 -0.86215882463E+02 -0.63907921975E+01  0.48421863636E+03  0.49187570423E+03  0.00000000000E+00 0. -1.
         22    1    3    3    0    0 -0.85593811006E+02  0.11021084539E+03  0.16392606937E+03  0.21527769774E+03  0.00000000000E+00 0. -1.
         22    1    3    3    0    0 -0.15927014471E+03  0.25878504335E+02  0.10361009185E+03  0.19175955547E+03  0.00000000000E+00 0. -1.
</event>
<event>
 7    1  0.6122298E-006  0.7160482E+02  0.7818608E-02  0.1377308E+00
          2   -1    0    0  502    0  0.00000000000E+00  0.00000000000E+00  0.65342394136E+03  0.65342394136E+03  0.00000000000E+00 0. -1.
          1   -1    0    0  501    0 -0.00000000000E+00 -0.00000000000E+00 -0.44700465543E+03  0.44700465543E+03  0.00000000000E+00 0. -1.
         25    2    1    2    0    0 -0.88447769102E+02  0.73327733374E+02  0.11759329640E+03  0.20652555921E+03  0.12499863563E+03 0.  0.
          2    1    1    2  501    0  0.21042814865E+02 -0.55468464224E+02 -0.39785405792E+03  0.40225290798E+03  0.00000000000E+00 0. -1.
          1    1    1    2  502    0  0.67404954237E+02 -0.17859269150E+02  0.48668004745E+03  0.49165012960E+03  0.00000000000E+00 0. -1.
         22    1    3    3    0    0 -0.75689956807E+02  0.88035797017E+02  0.13662959901E+03  0.17929561747E+03  0.00000000000E+00 0. -1.
         22    1    3    3    0    0 -0.12757812296E+02 -0.14708063643E+02 -0.19036302604E+02  0.27229941747E+02  0.00000000000E+00 0. -1.
</event>
<event>
 7    1  0.6122298E-006  0.1214363E+03  0.7818608E-02  0.1430490E+00
          2   -1    0    0  502    0  0.00000000000E+00  0.00000000000E+00  0.13912847137E+04  0.13912847137E+04  0.00000000000E+00 0. -1.
          1   -1    0    0  501    0 -0.00000000000E+00 -0.00000000000E+00 -0.29090145869E+03  0.29090145869E+03  0.00000000000E+00 0. -1.
         25    2    1    2    0    0  0.28837802150E+02 -0.13728224949E+03  0.35321551347E+03  0.40008083443E+03  0.12500176103E+03 0.  0.
          2    1    1    2  501    0 -0.13641869989E+02  0.12000248601E+03 -0.25369579118E+03  0.28097731532E+03  0.00000000000E+00 0. -1.
          1    1    1    2  502    0 -0.15195932161E+02  0.17279763486E+02  0.10008635327E+04  0.10011280226E+04  0.00000000000E+00 0. -1.
         22    1    3    3    0    0  0.10846543445E+02 -0.13407824036E+03  0.17398622476E+03  0.21992232367E+03  0.00000000000E+00 0.  1.
         22    1    3    3    0    0  0.17991258705E+02 -0.32040091271E+01  0.17922928871E+03  0.18015851075E+03  0.00000000000E+00 0.  1.
</event>
<event>
 7    1  0.6122298E-006  0.7528580E+02  0.7818608E-02  0.1377736E+00
          2   -1    0    0  502    0  0.00000000000E+00  0.00000000000E+00  0.23869483054E+04  0.23869483054E+04  0.00000000000E+00 0. -1.
          1   -1    0    0  501    0 -0.00000000000E+00 -0.00000000000E+00 -0.17956776289E+03  0.17956776289E+03  0.00000000000E+00 0. -1.
         25    2    1    2    0    0  0.12367609539E+03  0.17976352584E+02  0.55375463833E+03  0.58127991806E+03  0.12499287120E+03 0.  0.
          2    1    1    2  501    0 -0.68605482284E+02 -0.29323664830E+02 -0.15695326964E+03  0.17378411426E+03  0.00000000000E+00 0. -1.
          1    1    1    2  502    0 -0.55070613101E+02  0.11347312246E+02  0.18105791738E+04  0.18114520359E+04  0.00000000000E+00 0. -1.
         22    1    3    3    0    0  0.31354881626E+01  0.41770059665E+02  0.25220757115E+03  0.25566233222E+03  0.00000000000E+00 0.  1.
         22    1    3    3    0    0  0.12054060722E+03 -0.23793707081E+02  0.30154706718E+03  0.32561758584E+03  0.00000000000E+00 0.  1.
</event>
<event>
 7    1  0.6122298E-006  0.5822713E+02  0.7818608E-02  0.1469220E+00
          2   -1    0    0  502    0  0.00000000000E+00  0.00000000000E+00  0.24776022118E+04  0.24776022118E+04  0.00000000000E+00 0. -1.
          1   -1    0    0  501    0 -0.00000000000E+00 -0.00000000000E+00 -0.10820621132E+04  0.10820621132E+04  0.00000000000E+00 0. -1.
         25    2    1    2    0    0  0.17651436921E+02  0.20556247602E+02  0.78891004081E+03  0.79921090818E+03  0.12499956288E+03 0.  0.
          2    1    1    2  501    0 -0.14313517125E+02 -0.56475204949E+02 -0.10759302304E+04  0.10775064669E+04  0.00000000000E+00 0. -1.
          1    1    1    2  502    0 -0.33379197959E+01  0.35918957347E+02  0.16825602881E+04  0.16829469500E+04  0.00000000000E+00 0. -1.
         22    1    3    3    0    0 -0.50914911947E+02  0.17948886120E+02  0.23810709719E+03  0.24415052837E+03  0.00000000000E+00 0.  1.
         22    1    3    3    0    0  0.68566348869E+02  0.26073614817E+01  0.55080294362E+03  0.55506037981E+03  0.00000000000E+00 0.  1.
</event>
<event>
 7    1  0.6122298E-006  0.5457952E+02  0.7818608E-02  0.1519200E+00
          2   -1    0    0  502    0  0.00000000000E+00  0.00000000000E+00  0.22274751467E+03  0.22274751467E+03  0.00000000000E+00 0. -1.
          1   -1    0    0  501    0 -0.00000000000E+00 -0.00000000000E+00 -0.16782497934E+04  0.16782497934E+04  0.00000000000E+00 0. -1.
         25    2    1    2    0    0  0.15714619960E+02  0.78427239650E+02 -0.35218184136E+03  0.38217106905E+03  0.12499958173E+03 0.  0.
          2    1    1    2  501    0 -0.12499417274E+02 -0.24181649995E+02 -0.13073758291E+04  0.13076591858E+04  0.00000000000E+00 0. -1.
          1    1    1    2  502    0 -0.32152026856E+01 -0.54245589655E+02  0.20405539168E+03  0.21116705330E+03  0.00000000000E+00 0. -1.
         22    1    3    3    0    0 -0.64051313577E+01  0.88457452489E+02 -0.12264244044E+03  0.15135030494E+03  0.00000000000E+00 0.  1.
         22    1    3    3    0    0  0.22119751318E+02 -0.10030212838E+02 -0.22953940092E+03  0.23082076410E+03  0.00000000000E+00 0.  1.
</event>
<event>
 7    1  0.6122298E-006  0.6671359E+02  0.7818608E-02  0.1488106E+00
          2   -1    0    0  502    0  0.00000000000E+00  0.00000000000E+00  0.34077158183E+03  0.34077158183E+03  0.00000000000E+00 0. -1.
          1   -1    0    0  501    0 -0.00000000000E+00 -0.00000000000E+00 -0.75985841772E+02  0.75985841772E+02  0.00000000000E+00 0. -1.
         25    2    1    2    0    0  0.49696110097E+02  0.18949044345E+02  0.73455801227E+02  0.15442122539E+03  0.12498556107E+03 0.  0.
          2    1    1    2  501    0  0.12625856369E+01  0.27516994229E+02 -0.23812105798E+02  0.36411474516E+02  0.00000000000E+00 0. -1.
          1    1    1    2  502    0 -0.50958695734E+02 -0.46466038574E+02  0.21514204463E+03  0.22592472370E+03  0.00000000000E+00 0. -1.
         22    1    3    3    0    0  0.53246341464E+02  0.64421287680E+02  0.23592455244E+02  0.86843993057E+02  0.00000000000E+00 0.  1.
         22    1    3    3    0    0 -0.35502313673E+01 -0.45472243335E+02  0.49863345983E+02  0.67577232330E+02  0.00000000000E+00 0.  1.
</event>
<event>
 7    1  0.6122298E-006  0.5075257E+02  0.7818608E-02  0.1502047E+00
          2   -1    0    0  502    0  0.00000000000E+00  0.00000000000E+00  0.47263650705E+03  0.47263650705E+03  0.00000000000E+00 0. -1.
          1   -1    0    0  501    0 -0.00000000000E+00 -0.00000000000E+00 -0.14278518331E+03  0.14278518331E+03  0.00000000000E+00 0. -1.
         25    2    1    2    0    0 -0.78623506466E+02 -0.50884584729E+01  0.19518084794E+03  0.24479943312E+03  0.12499460338E+03 0.  0.
          2    1    1    2  501    0  0.30801683132E+02  0.11504021674E+02 -0.11331371758E+03  0.11798764677E+03  0.00000000000E+00 0. -1.
          1    1    1    2  502    0  0.47821823334E+02 -0.64155632013E+01  0.24798419339E+03  0.25263461047E+03  0.00000000000E+00 0. -1.
         22    1    3    3    0    0  0.22477380360E+01  0.49682496781E+02  0.58064920967E+02  0.76452193295E+02  0.00000000000E+00 0. -1.
         22    1    3    3    0    0 -0.80871244502E+02 -0.54770955254E+02  0.13711592697E+03  0.16834723982E+03  0.00000000000E+00 0. -1.
</event>
<event>
 7    1  0.6122298E-006  0.3676963E+02  0.7818608E-02  0.1561015E+00
          2   -1    0    0  502    0  0.00000000000E+00  0.00000000000E+00  0.30391495340E+03  0.30391495340E+03  0.00000000000E+00 0. -1.
          1   -1    0    0  501    0 -0.00000000000E+00 -0.00000000000E+00 -0.84413171696E+03  0.84413171696E+03  0.00000000000E+00 0. -1.
         25    2    1    2    0    0 -0.48918204136E+02 -0.67519375038E+01 -0.29846101666E+03  0.32732686676E+03  0.12500127951E+03 0.  0.
          2    1    1    2  501    0  0.31557368460E+02 -0.18662122852E+02 -0.52978437521E+03  0.53105143494E+03  0.00000000000E+00 0. -1.
          1    1    1    2  502    0  0.17360835676E+02  0.25414060356E+02  0.28802862832E+03  0.28966836867E+03  0.00000000000E+00 0. -1.
         22    1    3    3    0    0  0.27947145154E+02 -0.79876958423E+01 -0.13262293148E+02  0.31948937802E+02  0.00000000000E+00 0.  1.
         22    1    3    3    0    0 -0.76865349290E+02  0.12357583385E+01 -0.28519872351E+03  0.29537792895E+03  0.00000000000E+00 0.  1.
</event>
<event>
 7    1  0.6122298E-006  0.1092033E+03  0.7818608E-02  0.1404160E+00
          2   -1    0    0  502    0  0.00000000000E+00  0.00000000000E+00  0.15173770656E+03  0.15173770656E+03  0.00000000000E+00 0. -1.
          1   -1    0    0  501    0 -0.00000000000E+00 -0.00000000000E+00 -0.47907930453E+03  0.47907930453E+03  0.00000000000E+00 0. -1.
         25    2    1    2    0    0 -0.87462746770E+02 -0.13842356334E+02 -0.68985524168E+02  0.16800199455E+03  0.12499729888E+03 0.  0.
          2    1    1    2  501    0  0.11312243101E+03 -0.41815342551E+01 -0.34900056119E+03  0.36689993368E+03  0.00000000000E+00 0. -1.
          1    1    1    2  502    0 -0.25659684240E+02  0.18023890590E+02  0.90644487377E+02  0.95915082855E+02  0.00000000000E+00 0. -1.
         22    1    3    3    0    0  0.93005843099E+01 -0.46637653661E+02 -0.58887217162E+01  0.47919188755E+02  0.00000000000E+00 0.  1.
         22    1    3    3    0    0 -0.96763331080E+02  0.32795297327E+02 -0.63096802452E+02  0.12008280580E+03  0.00000000000E+00 0.  1.
</event>
<event>
 7    1  0.6122298E-006  0.1050562E+03  0.7818608E-02  0.1330027E+00
          2   -1    0    0  502    0  0.00000000000E+00  0.00000000000E+00  0.30284560362E+03  0.30284560362E+03  0.00000000000E+00 0. -1.
          1   -1    0    0  501    0 -0.00000000000E+00 -0.00000000000E+00 -0.21507906964E+04  0.21507906964E+04  0.00000000000E+00 0. -1.
         25    2    1    2    0    0  0.36738042346E+02 -0.48552827414E+02 -0.38028578163E+03  0.40490664007E+03  0.12500020264E+03 0.  0.
          2    1    1    2  501    0 -0.21037803677E+02 -0.56616827142E+02 -0.17479257816E+04  0.17489690084E+04  0.00000000000E+00 0. -1.
          1    1    1    2  502    0 -0.15700238669E+02  0.10516965456E+03  0.28026647048E+03  0.29976065153E+03  0.00000000000E+00 0. -1.
         22    1    3    3    0    0  0.55844567704E+02 -0.19265323342E+01 -0.32633420643E+03  0.33108358696E+03  0.00000000000E+00 0. -1.
         22    1    3    3    0    0 -0.19106525358E+02 -0.46626295079E+02 -0.53951575203E+02  0.73823053113E+02  0.00000000000E+00 0. -1.
</event>
<event>
 7    1  0.6122298E-006  0.1361073E+03  0.7818608E-02  0.1268651E+00
          2   -1    0    0  502    0  0.00000000000E+00  0.00000000000E+00  0.61483613721E+03  0.61483613721E+03  0.00000000000E+00 0. -1.
          1   -1    0    0  501    0 -0.00000000000E+00 -0.00000000000E+00 -0.10307373726E+03  0.10307373726E+03  0.00000000000E+00 0. -1.
         25    2    1    2    0    0 -0.13270290806E+02  0.12034308416E+03  0.35009727707E+03  0.39096361428E+03  0.12500354298E+03 0.  0.
          2    1    1    2  501    0  0.94321116941E+02 -0.10687672308E+03 -0.33756872285E+01  0.14258507040E+03  0.00000000000E+00 0. -1.
          1    1    1    2  502    0 -0.81050826136E+02 -0.13466361076E+02  0.16504081010E+03  0.18436118978E+03  0.00000000000E+00 0. -1.
         22    1    3    3    0    0 -0.11219572697E+02  0.85279619622E+02  0.34489272090E+03  0.35545672207E+03  0.00000000000E+00 0. -1.
         22    1    3    3    0    0 -0.20507181087E+01  0.35063464536E+02  0.52045561789E+01  0.35506892219E+02  0.00000000000E+00 0. -1.
</event>
<event>
 7    1  0.6122298E-006  0.8981027E+02  0.7818608E-02  0.1388367E+00
          2   -1    0    0  502    0  0.00000000000E+00  0.00000000000E+00  0.15442602354E+04  0.15442602354E+04  0.00000000000E+00 0. -1.
          1   -1    0    0  501    0 -0.00000000000E+00 -0.00000000000E+00 -0.24401542388E+04  0.24401542388E+04  0.00000000000E+00 0. -1.
         25    2    1    2    0    0 -0.76193274733E+02 -0.15488546027E+02  0.15970071277E+03  0.21720238976E+03  0.12500900082E+03 0.  0.
          2    1    1    2  501    0 -0.10822207910E+02  0.41860474337E+02 -0.24096848504E+04  0.24100727163E+04  0.00000000000E+00 0. -1.
          1    1    1    2  502    0  0.87015482644E+02 -0.26371928310E+02  0.13540901343E+04  0.13571393681E+04  0.00000000000E+00 0. -1.
         22    1    3    3    0    0  0.26711889941E+02  0.24128750957E+02  0.50472254991E+02  0.61993307790E+02  0.00000000000E+00 0. -1.
         22    1    3    3    0    0 -0.10290516467E+03 -0.39617296984E+02  0.10922845778E+03  0.15520908197E+03  0.00000000000E+00 0. -1.
</event>
<event>
 7    1  0.6122298E-006  0.1329346E+03  0.7818608E-02  0.1310437E+00
          2   -1    0    0  502    0  0.00000000000E+00  0.00000000000E+00  0.10879270490E+04  0.10879270490E+04  0.00000000000E+00 0. -1.
          1   -1    0    0  501    0 -0.00000000000E+00 -0.00000000000E+00 -0.80896301653E+03  0.80896301653E+03  0.00000000000E+00 0. -1.
         25    2    1    2    0    0 -0.15828258685E+03  0.37068384685E+02  0.12286850697E+03  0.23905825647E+03  0.12499895015E+03 0.  0.
          2    1    1    2  501    0  0.27735755334E+02 -0.49634799660E+02 -0.74503804030E+03  0.74720450143E+03  0.00000000000E+00 0. -1.
          1    1    1    2  502    0  0.13054683151E+03  0.12566414975E+02  0.90113356577E+03  0.91062730760E+03  0.00000000000E+00 0. -1.
         22    1    3    3    0    0 -0.91774450251E+02  0.80107266181E+02  0.97007772055E+02  0.15572485881E+03  0.00000000000E+00 0.  1.
         22    1    3    3    0    0 -0.66508136598E+02 -0.43038881496E+02  0.25860734920E+02  0.83333397655E+02  0.00000000000E+00 0.  1.
</event>
<event>
 7    1  0.6122298E-006  0.1074396E+03  0.7818608E-02  0.1341032E+00
          2   -1    0    0  502    0  0.00000000000E+00  0.00000000000E+00  0.20770576638E+04  0.20770576638E+04  0.00000000000E+00 0. -1.
          1   -1    0    0  501    0 -0.00000000000E+00 -0.00000000000E+00 -0.19701333662E+03  0.19701333662E+03  0.00000000000E+00 0. -1.
         25    2    1    2    0    0 -0.22131750556E+02  0.79469389631E+02  0.33049205015E+02  0.15337182195E+03  0.12500187016E+03 0.  0.
          2    1    1    2  501    0 -0.18782171866E+02 -0.11417907266E+03 -0.11195883968E+03  0.16101059715E+03  0.00000000000E+00 0. -1.
          1    1    1    2  502    0  0.40913922423E+02  0.34709683024E+02  0.19589539619E+04  0.19596885814E+04  0.00000000000E+00 0. -1.
         22    1    3    3    0    0  0.13337571506E+02  0.44483097303E+02  0.75018556364E+02  0.88229363357E+02  0.00000000000E+00 0.  1.
         22    1    3    3    0    0 -0.35469322062E+02  0.34986292328E+02 -0.41969351349E+02  0.65142458590E+02  0.00000000000E+00 0.  1.
</event>
<event>
 7    1  0.6122298E-006  0.7372660E+02  0.7818608E-02  0.1486566E+00
          2   -1    0    0  502    0  0.00000000000E+00  0.00000000000E+00  0.15602801488E+04  0.15602801488E+04  0.00000000000E+00 0. -1.
          1   -1    0    0  501    0 -0.00000000000E+00 -0.00000000000E+00 -0.66550033301E+02  0.66550033301E+02  0.00000000000E+00 0. -1.
         25    2    1    2    0    0 -0.75515092038E+02 -0.93393657816E+01  0.10055998493E+04  0.10161917377E+04  0.12499935188E+03 0.  0.
          2    1    1    2  501    0  0.72093254103E+02 -0.15622672980E+02 -0.38634528931E+02  0.83271435822E+02  0.00000000000E+00 0. -1.
          1    1    1    2  502    0  0.34218379354E+01  0.24962038762E+02  0.52676479519E+03  0.52736700864E+03  0.00000000000E+00 0. -1.
         22    1    3    3    0    0 -0.88091548613E+02 -0.50711200942E+01  0.99576221598E+03  0.99966405756E+03  0.00000000000E+00 0. -1.
         22    1    3    3    0    0  0.12576456575E+02 -0.42682456874E+01  0.98376333035E+01  0.16527680123E+02  0.00000000000E+00 0. -1.
</event>
<event>
 7    1  0.6122298E-006  0.7225828E+02  0.7818608E-02  0.1358715E+00
          2   -1    0    0  502    0  0.00000000000E+00  0.00000000000E+00  0.10503902384E+04  0.10503902384E+04  0.00000000000E+00 0. -1.
          1   -1    0    0  501    0 -0.00000000000E+00 -0.00000000000E+00 -0.19174346094E+03  0.19174346094E+03  0.00000000000E+00 0. -1.
         25    2    1    2    0    0  0.30457152732E+02 -0.71984367153E+02  0.24979452480E+03  0.29005110225E+03  0.12499179984E+03 0.  0.
          2    1    1    2  501    0  0.37504135759E+02  0.62622904940E+02 -0.16226102492E+03  0.17792365956E+03  0.00000000000E+00 0. -1.
          1    1    1    2  502    0 -0.67961288491E+02  0.93614622130E+01  0.77111327761E+03  0.77415893757E+03  0.00000000000E+00 0. -1.
         22    1    3    3    0    0 -0.11744250498E+02  0.30308278519E+02  0.31253772149E+02  0.45092321299E+02  0.00000000000E+00 0. -1.
         22    1    3    3    0    0  0.42201403229E+02 -0.10229264567E+03  0.21854075265E+03  0.24495878095E+03  0.00000000000E+00 0. -1.
</event>
<event>
 7    1  0.6122298E-006  0.6380821E+02  0.7818608E-02  0.1407170E+00
          2   -1    0    0  502    0  0.00000000000E+00  0.00000000000E+00  0.67632249359E+03  0.67632249359E+03  0.00000000000E+00 0. -1.
          1   -1    0    0  501    0 -0.00000000000E+00 -0.00000000000E+00 -0.16002988594E+04  0.16002988594E+04  0.00000000000E+00 0. -1.
         25    2    1    2    0    0 -0.22000806530E+02 -0.15399920683E+02 -0.67091028197E+02  0.14438642178E+03  0.12500015874E+03 0.  0.
          2    1    1    2  501    0  0.18491368362E+02 -0.49041942976E+02 -0.14924660327E+04  0.14933860524E+04  0.00000000000E+00 0. -1.
          1    1    1    2  502    0  0.35094381674E+01  0.64441863659E+02  0.63558069508E+03  0.63884887877E+03  0.00000000000E+00 0. -1.
         22    1    3    3    0    0 -0.45536152881E+02 -0.54784934197E+02 -0.68018285143E+02  0.98495773249E+02  0.00000000000E+00 0. -1.
         22    1    3    3    0    0  0.23535346352E+02  0.39385013514E+02  0.92725694596E+00  0.45890648533E+02  0.00000000000E+00 0. -1.
</event>
<event>
 7    1  0.6122298E-006  0.8952311E+02  0.7818608E-02  0.1341610E+00
          2   -1    0    0  502    0  0.00000000000E+00  0.00000000000E+00  0.19730637957E+04  0.19730637957E+04  0.00000000000E+00 0. -1.
          1   -1    0    0  501    0 -0.00000000000E+00 -0.00000000000E+00 -0.20088465727E+04  0.20088465727E+04  0.00000000000E+00 0. -1.
         25    2    1    2    0    0 -0.42503363991E+02 -0.13551488925E+03  0.11358530967E+03  0.22067532142E+03  0.12500061501E+03 0.  0.
          2    1    1    2  501    0 -0.90100114217E+01  0.63433917178E+02 -0.19536895004E+04  0.19547398052E+04  0.00000000000E+00 0. -1.
          1    1    1    2  502    0  0.51513375413E+02  0.72080972072E+02  0.18043214138E+04  0.18064952418E+04  0.00000000000E+00 0. -1.
         22    1    3    3    0    0  0.17650917342E+02 -0.82318977827E+01  0.70956831445E+02  0.73581186133E+02  0.00000000000E+00 0.  1.
         22    1    3    3    0    0 -0.60154281333E+02 -0.12728299147E+03  0.42628478223E+02  0.14709413528E+03  0.00000000000E+00 0.  1.
</event>
<event>
 7    1  0.6122298E-006  0.8330541E+02  0.7818608E-02  0.1352015E+00
          2   -1    0    0  502    0  0.00000000000E+00  0.00000000000E+00  0.11540432571E+04  0.11540432571E+04  0.00000000000E+00 0. -1.
          1   -1    0    0  501    0 -0.00000000000E+00 -0.00000000000E+00 -0.11926752760E+04  0.11926752760E+04  0.00000000000E+00 0. -1.
         25    2    1    2    0    0  0.39426292042E+01 -0.78978178755E+01  0.56686786689E+03  0.58055338378E+03  0.12500053218E+03 0.  0.
          2    1    1    2  501    0  0.20869416278E+02 -0.80648982008E+02 -0.11807128860E+04  0.11836480516E+04  0.00000000000E+00 0. -1.
          1    1    1    2  502    0 -0.24812045482E+02  0.88546799884E+02  0.57521300025E+03  0.58251709763E+03  0.00000000000E+00 0. -1.
         22    1    3    3    0    0 -0.29481302352E+02 -0.38389669317E+02  0.48159784786E+03  0.48402417394E+03  0.00000000000E+00 0. -1.
         22    1    3    3    0    0  0.33423931556E+02  0.30491851441E+02  0.85270019040E+02  0.96529209838E+02  0.00000000000E+00 0. -1.
</event>
<event>
 7    1  0.6122298E-006  0.1128645E+03  0.7818608E-02  0.1321298E+00
          2   -1    0    0  502    0  0.00000000000E+00  0.00000000000E+00  0.12083541418E+04  0.12083541418E+04  0.00000000000E+00 0. -1.
          1   -1    0    0  501    0 -0.00000000000E+00 -0.00000000000E+00 -0.73716035007E+03  0.73716035007E+03  0.00000000000E+00 0. -1.
         25    2    1    2    0    0  0.91024403950E+02 -0.77625977196E+02  0.31313391558E+03  0.35775639338E+03  0.12500221385E+03 0.  0.
          2    1    1    2  501    0 -0.11114487173E+03  0.20316631206E+02 -0.70931588779E+03  0.71825829386E+03  0.00000000000E+00 0. -1.
          1    1    1    2  502    0  0.20120467780E+02  0.57309345990E+02  0.86737576393E+03  0.86949980461E+03  0.00000000000E+00 0. -1.
         22    1    3    3    0    0  0.49686942191E+02 -0.81770767870E+02  0.91943897903E+02  0.13269864756E+03  0.00000000000E+00 0. -1.
         22    1    3    3    0    0  0.41337461759E+02  0.41447906736E+01  0.22119001768E+03  0.22505774582E+03  0.00000000000E+00 0. -1.
</event>
<event>
 7    1  0.6122298E-006  0.5485546E+02  0.7818608E-02  0.1474338E+00
          2   -1    0    0  502    0  0.00000000000E+00  0.00000000000E+00  0.94535441535E+02  0.94535441535E+02  0.00000000000E+00 0. -1.
          1   -1    0    0  501    0 -0.00000000000E+00 -0.00000000000E+00 -0.37182120492E+03  0.37182120492E+03  0.00000000000E+00 0. -1.
         25    2    1    2    0    0 -0.12175108843E+02 -0.40192267834E+02 -0.17093880477E+02  0.13296899670E+03  0.12499960665E+03 0.  0.
          2    1    1    2  501    0  0.47514790064E+02  0.29519498032E+02 -0.28400238984E+03  0.28945882864E+03  0.00000000000E+00 0. -1.
          1    1    1    2  502    0 -0.35339681222E+02  0.10672769801E+02  0.23810506939E+02  0.43928821118E+02  0.00000000000E+00 0. -1.
         22    1    3    3    0    0 -0.47802972801E+02 -0.61114084015E+01  0.36269715583E+02  0.60315551807E+02  0.00000000000E+00 0. -1.
         22    1    3    3    0    0  0.35627863959E+02 -0.34080859432E+02 -0.53363596060E+02  0.72653444890E+02  0.00000000000E+00 0. -1.
</event>
<event>
 7    1  0.6122298E-006  0.3585688E+02  0.7818608E-02  0.1574334E+00
          2   -1    0    0  502    0  0.00000000000E+00  0.00000000000E+00  0.13247213937E+04  0.13247213937E+04  0.00000000000E+00 0. -1.
          1   -1    0    0  501    0 -0.00000000000E+00 -0.00000000000E+00 -0.94426729139E+03  0.94426729139E+03  0.00000000000E+00 0. -1.
         25    2    1    2    0    0 -0.50014101476E+02  0.34074860772E+02 -0.21584402619E+02  0.14052053444E+03  0.12497050724E+03 0.  0.
          2    1    1    2  501    0  0.15519208435E+02 -0.24534475944E+02 -0.86271752392E+03  0.86320583432E+03  0.00000000000E+00 0. -1.
          1    1    1    2  502    0  0.34494893040E+02 -0.95403848275E+01  0.12647560288E+04  0.12652623163E+04  0.00000000000E+00 0. -1.
         22    1    3    3    0    0 -0.12754888956E+02 -0.45520579427E+02 -0.23115772179E+02  0.52622706763E+02  0.00000000000E+00 0.  1.
         22    1    3    3    0    0 -0.37259212520E+02  0.79595440198E+02  0.15313695595E+01  0.87897827679E+02  0.00000000000E+00 0.  1.
</event>
<event>
 7    1  0.6122298E-006  0.6021722E+02  0.7818608E-02  0.1517360E+00
          2   -1    0    0  502    0  0.00000000000E+00  0.00000000000E+00  0.50605663458E+03  0.50605663458E+03  0.00000000000E+00 0. -1.
          1   -1    0    0  501    0 -0.00000000000E+00 -0.00000000000E+00 -0.71013258874E+03  0.71013258874E+03  0.00000000000E+00 0. -1.
         25    2    1    2    0    0 -0.37629296428E+02 -0.76063007620E+02  0.45794162264E+02  0.15787178944E+03  0.12499940610E+03 0.  0.
          2    1    1    2  501    0  0.26797710004E+02  0.53554951723E+02 -0.65233507007E+03  0.65507808218E+03  0.00000000000E+00 0. -1.
          1    1    1    2  502    0  0.10831586424E+02  0.22508055897E+02  0.40246495365E+03  0.40323935170E+03  0.00000000000E+00 0. -1.
         22    1    3    3    0    0 -0.64791985447E+02  0.39706202375E+01  0.31505185518E+02  0.72154999257E+02  0.00000000000E+00 0.  1.
         22    1    3    3    0    0  0.27162689019E+02 -0.80033627857E+02  0.14288976745E+02  0.85716790182E+02  0.00000000000E+00 0.  1.
</event>
<event>
 7    1  0.6122298E-006  0.4014213E+02  0.7818608E-02  0.1536091E+00
          2   -1    0    0  502    0  0.00000000000E+00  0.00000000000E+00  0.15949432450E+03  0.15949432450E+03  0.00000000000E+00 0. -1.
          1   -1    0    0  501    0 -0.00000000000E+00 -0.00000000000E+00 -0.26014095138E+03  0.26014095138E+03  0.00000000000E+00 0. -1.
         25    2    1    2    0    0  0.15839941121E+02  0.47395383373E+02  0.30862648131E+02  0.13811124401E+03  0.12499994628E+03 0.  0.
          2    1    1    2  501    0  0.18966414711E+02 -0.27123401945E+02 -0.19964664869E+03  0.20237141140E+03  0.00000000000E+00 0. -1.
          1    1    1    2  502    0 -0.34806355833E+02 -0.20271981428E+02  0.68137373672E+02  0.79152620477E+02  0.00000000000E+00 0. -1.
         22    1    3    3    0    0 -0.49282565948E+02  0.18073090850E+02  0.40155331891E+02  0.66089776808E+02  0.00000000000E+00 0.  1.
         22    1    3    3    0    0  0.65122507069E+02  0.29322292523E+02 -0.92926837602E+01  0.72021467197E+02  0.00000000000E+00 0.  1.
</event>
<event>
 7    1  0.6122298E-006  0.1336673E+03  0.7818608E-02  0.1295671E+00
          2   -1    0    0  502    0  0.00000000000E+00  0.00000000000E+00  0.44095559475E+03  0.44095559475E+03  0.00000000000E+00 0. -1.
          1   -1    0    0  501    0 -0.00000000000E+00 -0.00000000000E+00 -0.71757015853E+03  0.71757015853E+03  0.00000000000E+00 0. -1.
         25    2    1    2    0    0 -0.21665312371E+02  0.18139700996E+03 -0.40897854373E+02  0.22510412699E+03  0.12499989006E+03 0.  0.
          2    1    1    2  501    0  0.37562774396E+02 -0.52740732459E+02 -0.57063152345E+03  0.57429337662E+03  0.00000000000E+00 0. -1.
          1    1    1    2  502    0 -0.15897462025E+02 -0.12865627750E+03  0.33491481404E+03  0.35912824966E+03  0.00000000000E+00 0. -1.
         22    1    3    3    0    0 -0.17679292778E+01  0.64980850528E+02  0.45004541140E+02  0.79063551859E+02  0.00000000000E+00 0. -1.
         22    1    3    3    0    0 -0.19897383093E+02  0.11641615943E+03 -0.85902395512E+02  0.14604057514E+03  0.00000000000E+00 0. -1.
</event>
<event>
 7    1  0.6122298E-006  0.1089521E+03  0.7818608E-02  0.1379259E+00
          2   -1    0    0  502    0  0.00000000000E+00  0.00000000000E+00  0.59967585989E+03  0.59967585989E+03  0.00000000000E+00 0. -1.
          1   -1    0    0  501    0 -0.00000000000E+00 -0.00000000000E+00 -0.62755567749E+03  0.62755567749E+03  0.00000000000E+00 0. -1.
         25    2    1    2    0    0  0.20185348081E+02 -0.13284492644E+03 -0.29121109968E+03  0.34421515369E+03  0.12499977879E+03 0.  0.
          2    1    1    2  501    0 -0.29417277985E+02  0.24639084007E+02 -0.30347946546E+03  0.30589581014E+03  0.00000000000E+00 0. -1.
          1    1    1    2  502    0  0.92319299036E+01  0.10820584244E+03  0.56681074755E+03  0.57712057354E+03  0.00000000000E+00 0. -1.
         22    1    3    3    0    0 -0.35378259998E+02 -0.10356924077E+03 -0.12289851163E+03  0.16456686506E+03  0.00000000000E+00 0.  1.
         22    1    3    3    0    0  0.55563608078E+02 -0.29275685677E+02 -0.16831258805E+03  0.17964828864E+03  0.00000000000E+00 0.  1.
</event>
<event>
 7    1  0.6122298E-006  0.3138774E+02  0.7818608E-02  0.1628765E+00
          2   -1    0    0  502    0  0.00000000000E+00  0.00000000000E+00  0.66068699146E+02  0.66068699146E+02  0.00000000000E+00 0. -1.
          1   -1    0    0  501    0 -0.00000000000E+00 -0.00000000000E+00 -0.14391999178E+03  0.14391999178E+03  0.00000000000E+00 0. -1.
         25    2    1    2    0    0 -0.23410287579E+02  0.35174672849E+02 -0.48242771179E+02  0.14051401990E+03  0.12502609985E+03 0.  0.
          2    1    1    2  501    0 -0.96498681696E-01 -0.30768962952E+02 -0.33228071236E+02  0.45286235340E+02  0.00000000000E+00 0. -1.
          1    1    1    2  502    0  0.23506786260E+02 -0.44057098971E+01  0.36195497839E+01  0.24188435680E+02  0.00000000000E+00 0. -1.
         22    1    3    3    0    0  0.58894383123E+01  0.62757019251E+02  0.15704163882E+02  0.64959600616E+02  0.00000000000E+00 0.  1.
         22    1    3    3    0    0 -0.29299725891E+02 -0.27582346402E+02 -0.63946935062E+02  0.75554419289E+02  0.00000000000E+00 0.  1.
</event>
<event>
 7    1  0.6122298E-006  0.5617307E+02  0.7818608E-02  0.1438196E+00
          2   -1    0    0  502    0  0.00000000000E+00  0.00000000000E+00  0.11840966570E+04  0.11840966570E+04  0.00000000000E+00 0. -1.
          1   -1    0    0  501    0 -0.00000000000E+00 -0.00000000000E+00 -0.41084013993E+02  0.41084013993E+02  0.00000000000E+00 0. -1.
         25    2    1    2    0    0 -0.68480953765E+02 -0.40764836632E+02  0.17389970967E+03  0.22851472809E+03  0.12500583585E+03 0.  0.
          2    1    1    2  501    0  0.12768763580E+02  0.45170047458E+02  0.29602674267E+02  0.55494980264E+02  0.00000000000E+00 0. -1.
          1    1    1    2  502    0  0.55712190185E+02 -0.44052108254E+01  0.93951025905E+03  0.94117096262E+03  0.00000000000E+00 0. -1.
         22    1    3    3    0    0 -0.38780680466E+02 -0.56738392252E+02  0.20886241747E+02  0.71829112671E+02  0.00000000000E+00 0.  1.
         22    1    3    3    0    0 -0.29700273299E+02  0.15973555620E+02  0.15301346793E+03  0.15668561542E+03  0.00000000000E+00 0.  1.
</event>
<event>
 7    1  0.6122298E-006  0.5996055E+02  0.7818608E-02  0.1421584E+00
          2   -1    0    0  502    0  0.00000000000E+00  0.00000000000E+00  0.30896039301E+03  0.30896039301E+03  0.00000000000E+00 0. -1.
          1   -1    0    0  501    0 -0.00000000000E+00 -0.00000000000E+00 -0.49324964925E+03  0.49324964925E+03  0.00000000000E+00 0. -1.
         25    2    1    2    0    0 -0.18072252319E+02  0.34534902184E+02 -0.18251069805E+02  0.13219292049E+03  0.12499040325E+03 0.  0.
          2    1    1    2  501    0 -0.27430158432E+02 -0.54962807990E+02 -0.41326694051E+03  0.41780723782E+03  0.00000000000E+00 0. -1.
          1    1    1    2  502    0  0.45502410751E+02  0.20427905807E+02  0.24722875408E+03  0.25220988395E+03  0.00000000000E+00 0. -1.
         22    1    3    3    0    0  0.11370075202E+02 -0.23297816457E+02  0.38209480551E+02  0.46173924089E+02  0.00000000000E+00 0.  1.
         22    1    3    3    0    0 -0.29442327520E+02  0.57832718641E+02 -0.56460550357E+02  0.86018996401E+02  0.00000000000E+00 0.  1.
</event>
<event>
 7    1  0.6122298E-006  0.9478001E+02  0.7818608E-02  0.1427440E+00
          2   -1    0    0  502    0  0.00000000000E+00  0.00000000000E+00  0.29410510466E+03  0.29410510466E+03  0.00000000000E+00 0. -1.
          1   -1    0    0  501    0 -0.00000000000E+00 -0.00000000000E+00 -0.20749564974E+04  0.20749564974E+04  0.00000000000E+00 0. -1.
         25    2    1    2    0    0  0.53199584340E+02 -0.43293351176E+02 -0.10865960583E+04  0.10959108622E+04  0.12500045604E+03 0.  0.
          2    1    1    2  501    0  0.30080356230E+02 -0.23655225448E+01 -0.97567258705E+03  0.97613903756E+03  0.00000000000E+00 0. -1.
          1    1    1    2  502    0 -0.83279940570E+02  0.45658873721E+02  0.28141725258E+03  0.29701170230E+03  0.00000000000E+00 0. -1.
         22    1    3    3    0    0  0.14391306218E+01 -0.62658415771E+02 -0.25914545777E+03  0.26661679701E+03  0.00000000000E+00 0. -1.
         22    1    3    3    0    0  0.51760453718E+02  0.19365064594E+02 -0.82745060053E+03  0.82929406522E+03  0.00000000000E+00 0. -1.
</event>
<event>
 7    1  0.6122298E-006  0.2942334E+02  0.7818608E-02  0.1656413E+00
          2   -1    0    0  502    0  0.00000000000E+00  0.00000000000E+00  0.27480573651E+03  0.27480573651E+03  0.00000000000E+00 0. -1.
          1   -1    0    0  501    0 -0.00000000000E+00 -0.00000000000E+00 -0.79021093380E+03  0.79021093380E+03  0.00000000000E+00 0. -1.
         25    2    1    2    0    0 -0.13594756554E+02 -0.37335313123E+02 -0.14068971564E+03  0.19234455966E+03  0.12499636207E+03 0.  0.
          2    1    1    2  501    0  0.20006795224E+02  0.86409910236E+01 -0.62263446643E+03  0.62301574408E+03  0.00000000000E+00 0. -1.
          1    1    1    2  502    0 -0.64120386699E+01  0.28694322099E+02  0.24791898478E+03  0.24965636658E+03  0.00000000000E+00 0. -1.
         22    1    3    3    0    0 -0.61301298230E+02 -0.51770730231E+02 -0.98489859334E+02  0.12703664851E+03  0.00000000000E+00 0.  1.
         22    1    3    3    0    0  0.47706541676E+02  0.14435417108E+02 -0.42199856306E+02  0.65307911144E+02  0.00000000000E+00 0.  1.
</event>
<event>
 7    1  0.6122298E-006  0.7593725E+02  0.7818608E-02  0.1451590E+00
          2   -1    0    0  502    0  0.00000000000E+00  0.00000000000E+00  0.25144026513E+03  0.25144026513E+03  0.00000000000E+00 0. -1.
          1   -1    0    0  501    0 -0.00000000000E+00 -0.00000000000E+00 -0.13288682930E+04  0.13288682930E+04  0.00000000000E+00 0. -1.
         25    2    1    2    0    0 -0.64947463588E+02  0.53364887910E+01 -0.47502220997E+03  0.49549735139E+03  0.12499949650E+03 0.  0.
          2    1    1    2  501    0 -0.17508601145E+01  0.31388782562E+02 -0.83729730674E+03  0.83788728422E+03  0.00000000000E+00 0. -1.
          1    1    1    2  502    0  0.66698323703E+02 -0.36725271353E+02  0.23489148889E+03  0.24692392248E+03  0.00000000000E+00 0. -1.
         22    1    3    3    0    0 -0.49283052292E+02  0.48732531454E+02 -0.40972299343E+03  0.41554375246E+03  0.00000000000E+00 0.  1.
         22    1    3    3    0    0 -0.15664411296E+02 -0.43396042663E+02 -0.65299216540E+02  0.79953598923E+02  0.00000000000E+00 0.  1.
</event>
<event>
 7    1  0.6122298E-006  0.7362791E+02  0.7818608E-02  0.1459618E+00
          2   -1    0    0  502    0  0.00000000000E+00  0.00000000000E+00  0.10164086600E+04  0.10164086600E+04  0.00000000000E+00 0. -1.
          1   -1    0    0  501    0 -0.00000000000E+00 -0.00000000000E+00 -0.35096597026E+03  0.35096597026E+03  0.00000000000E+00 0. -1.
         25    2    1    2    0    0  0.49835229251E+02 -0.41261644838E+02  0.26548259976E+03  0.30048624950E+03  0.12499960783E+03 0.  0.
          2    1    1    2  501    0 -0.71238173180E+02  0.19426053654E+02 -0.32905217394E+03  0.33723520287E+03  0.00000000000E+00 0. -1.
          1    1    1    2  502    0  0.21402943929E+02  0.21835591185E+02  0.72901226396E+03  0.72965317792E+03  0.00000000000E+00 0. -1.
         22    1    3    3    0    0  0.38501751836E+02  0.39003911325E+02  0.14738408679E+03  0.15724426550E+03  0.00000000000E+00 0. -1.
         22    1    3    3    0    0  0.11333477415E+02 -0.80265556163E+02  0.11809851297E+03  0.14324198401E+03  0.00000000000E+00 0. -1.
</event>
<event>
 7    1  0.6122298E-006  0.6206543E+02  0.7818608E-02  0.1472227E+00
          2   -1    0    0  502    0  0.00000000000E+00  0.00000000000E+00  0.31205406824E+03  0.31205406824E+03  0.00000000000E+00 0. -1.
          1   -1    0    0  501    0 -0.00000000000E+00 -0.00000000000E+00 -0.15165291680E+03  0.15165291680E+03  0.00000000000E+00 0. -1.
         25    2    1    2    0    0  0.60066705824E+02  0.44320918806E+02  0.31460178526E+02  0.14894979376E+03  0.12499578087E+03 0.  0.
          2    1    1    2  501    0 -0.28504397392E+02 -0.54367100560E+02 -0.81328397875E+02  0.10189499789E+03  0.00000000000E+00 0. -1.
          1    1    1    2  502    0 -0.31562308432E+02  0.10046181754E+02  0.21026937080E+03  0.21286219339E+03  0.00000000000E+00 0. -1.
         22    1    3    3    0    0 -0.28003442256E+02 -0.18151225271E+02  0.23226940945E+02  0.40658954028E+02  0.00000000000E+00 0. -1.
         22    1    3    3    0    0  0.88070148080E+02  0.62472144078E+02  0.82332375814E+01  0.10829083973E+03  0.00000000000E+00 0. -1.
</event>
<event>
 7    1  0.6122298E-006  0.6338935E+02  0.7818608E-02  0.1395434E+00
          2   -1    0    0  502    0  0.00000000000E+00  0.00000000000E+00  0.89699337297E+03  0.89699337297E+03  0.00000000000E+00 0. -1.
          1   -1    0    0  501    0 -0.00000000000E+00 -0.00000000000E+00 -0.88916101308E+02  0.88916101308E+02  0.00000000000E+00 0. -1.
         25    2    1    2    0    0 -0.26507384611E+02 -0.13102819905E+02  0.16890047621E+03  0.21219408271E+03  0.12499853018E+03 0.  0.
          2    1    1    2  501    0  0.57459052571E+02 -0.35812882853E+02 -0.48703737368E+02  0.83403593053E+02  0.00000000000E+00 0. -1.
          1    1    1    2  502    0 -0.30951667960E+02  0.48915702758E+02  0.68788053282E+03  0.69031179851E+03  0.00000000000E+00 0. -1.
         22    1    3    3    0    0 -0.38958146071E+02  0.50037276716E+02  0.94715221032E+02  0.11398438183E+03  0.00000000000E+00 0.  1.
         22    1    3    3    0    0  0.12450761460E+02 -0.63140096621E+02  0.74185255174E+02  0.98209700883E+02  0.00000000000E+00 0.  1.
</event>
<event>
 7    1  0.6122298E-006  0.8633353E+02  0.7818608E-02  0.1413124E+00
          2   -1    0    0  502    0  0.00000000000E+00  0.00000000000E+00  0.10956443824E+04  0.10956443824E+04  0.00000000000E+00 0. -1.
          1   -1    0    0  501    0 -0.00000000000E+00 -0.00000000000E+00 -0.58243094383E+03  0.58243094383E+03  0.00000000000E+00 0. -1.
         25    2    1    2    0    0  0.70800661670E+02 -0.24474741632E+02  0.12805977525E+03  0.19400001636E+03  0.12499981455E+03 0.  0.
          2    1    1    2  501    0 -0.77759476007E+01 -0.36152443969E+02 -0.54678924219E+03  0.54803826503E+03  0.00000000000E+00 0. -1.
          1    1    1    2  502    0 -0.63024714069E+02  0.60627185601E+02  0.93194290551E+03  0.93603704485E+03  0.00000000000E+00 0. -1.
         22    1    3    3    0    0  0.10546080162E+03 -0.48944748069E+01  0.98813803976E+02  0.14460326559E+03  0.00000000000E+00 0. -1.
         22    1    3    3    0    0 -0.34660139953E+02 -0.19580266825E+02  0.29245971278E+02  0.49396750768E+02  0.00000000000E+00 0. -1.
</event>
<event>
 7    1  0.6122298E-006  0.7665715E+02  0.7818608E-02  0.1394570E+00
          2   -1    0    0  502    0  0.00000000000E+00  0.00000000000E+00  0.49893229638E+03  0.49893229638E+03  0.00000000000E+00 0. -1.
          1   -1    0    0  501    0 -0.00000000000E+00 -0.00000000000E+00 -0.26812008538E+04  0.26812008538E+04  0.00000000000E+00 0. -1.
         25    2    1    2    0    0  0.36921395255E+02  0.74865322665E+01 -0.80819726460E+03  0.81867482617E+03  0.12500565949E+03 0.  0.
          2    1    1    2  501    0 -0.75646735583E+02 -0.36181587249E+02 -0.18656444294E+04  0.18675279577E+04  0.00000000000E+00 0. -1.
          1    1    1    2  502    0  0.38725340328E+02  0.28695054983E+02  0.49157313657E+03  0.49393036631E+03  0.00000000000E+00 0. -1.
         22    1    3    3    0    0  0.74867033935E+02 -0.38774088698E+01 -0.68904098117E+03  0.69310719286E+03  0.00000000000E+00 0. -1.
         22    1    3    3    0    0 -0.37945638680E+02  0.11363941136E+02 -0.11915628343E+03  0.12556763330E+03  0.00000000000E+00 0. -1.
</event>
<event>
 7    1  0.6122298E-006  0.5569305E+02  0.7818608E-02  0.1416967E+00
          2   -1    0    0  502    0  0.00000000000E+00  0.00000000000E+00  0.18075673025E+02  0.18075673025E+02  0.00000000000E+00 0. -1.
          1   -1    0    0  501    0 -0.00000000000E+00 -0.00000000000E+00 -0.16556014976E+04  0.16556014976E+04  0.00000000000E+00 0. -1.
         25    2    1    2    0    0  0.15507722334E+02  0.58364529452E+01 -0.86592222700E+03  0.87505504497E+03  0.12500189946E+03 0.  0.
          2    1    1    2  501    0 -0.71015611313E+02 -0.19707249665E+01 -0.71751288096E+03  0.72102138328E+03  0.00000000000E+00 0. -1.
          1    1    1    2  502    0  0.55507888979E+02 -0.38657279787E+01 -0.54090716572E+02  0.77600742336E+02  0.00000000000E+00 0. -1.
         22    1    3    3    0    0  0.42242073532E+02 -0.43636583152E+02 -0.28396060066E+03  0.29038279373E+03  0.00000000000E+00 0.  1.
         22    1    3    3    0    0 -0.26734351198E+02  0.49473036097E+02 -0.58196162634E+03  0.58467225124E+03  0.00000000000E+00 0.  1.
</event>
<event>
 7    1  0.6122298E-006  0.9821917E+02  0.7818608E-02  0.1302313E+00
          2   -1    0    0  502    0  0.00000000000E+00  0.00000000000E+00  0.48360172762E+03  0.48360172762E+03  0.00000000000E+00 0. -1.
          1   -1    0    0  501    0 -0.00000000000E+00 -0.00000000000E+00 -0.85860709342E+03  0.85860709342E+03  0.00000000000E+00 0. -1.
         25    2    1    2    0    0  0.54182791000E+01  0.17367506244E+02 -0.58281216925E+03  0.59634391125E+03  0.12500019134E+03 0.  0.
          2    1    1    2  501    0 -0.19339518408E+02  0.80589194602E+02 -0.25731690293E+03  0.27033428157E+03  0.00000000000E+00 0. -1.
          1    1    1    2  502    0  0.13921239308E+02 -0.97956700847E+02  0.46512370638E+03  0.47553062822E+03  0.00000000000E+00 0. -1.
         22    1    3    3    0    0  0.32581183061E+02  0.21944296738E+02 -0.55766181271E+03  0.55904363247E+03  0.00000000000E+00 0. -1.
         22    1    3    3    0    0 -0.27162903961E+02 -0.45767904942E+01 -0.25150356536E+02  0.37300278775E+02  0.00000000000E+00 0. -1.
</event>
<event>
 7    1  0.6122298E-006  0.1218505E+03  0.7818608E-02  0.1319699E+00
          2   -1    0    0  502    0  0.00000000000E+00  0.00000000000E+00  0.18461701897E+03  0.18461701897E+03  0.00000000000E+00 0. -1.
          1   -1    0    0  501    0 -0.00000000000E+00 -0.00000000000E+00 -0.13384827304E+04  0.13384827304E+04  0.00000000000E+00 0. -1.
         25    2    1    2    0    0 -0.12209863684E+03  0.88021428280E+02 -0.32092337145E+03  0.37586442129E+03  0.12500561544E+03 0.  0.
          2    1    1    2  501    0  0.56741550468E+01 -0.56785412786E+02 -0.96600625276E+03  0.96769047712E+03  0.00000000000E+00 0. -1.
          1    1    1    2  502    0  0.11642448179E+03 -0.31236015494E+02  0.13306391277E+03  0.17954485096E+03  0.00000000000E+00 0. -1.
         22    1    3    3    0    0  0.18550827592E+02  0.10950826397E+02 -0.10332989669E+03  0.10555151042E+03  0.00000000000E+00 0.  1.
         22    1    3    3    0    0 -0.14064946443E+03  0.77070601883E+02 -0.21759347477E+03  0.27031291087E+03  0.00000000000E+00 0.  1.
</event>
<event>
 7    1  0.6122298E-006  0.1035080E+03  0.7818608E-02  0.1453774E+00
          2   -1    0    0  502    0  0.00000000000E+00  0.00000000000E+00  0.98904500441E+03  0.98904500441E+03  0.00000000000E+00 0. -1.
          1   -1    0    0  501    0 -0.00000000000E+00 -0.00000000000E+00 -0.27035412426E+03  0.27035412426E+03  0.00000000000E+00 0. -1.
         25    2    1    2    0    0 -0.10907346257E+03 -0.31549214301E+02  0.22002525738E+02  0.17029869298E+03  0.12500064213E+03 0.  0.
          2    1    1    2  501    0  0.17006045413E+02 -0.15031569625E+02 -0.19255648085E+03  0.19388953552E+03  0.00000000000E+00 0. -1.
          1    1    1    2  502    0  0.92067417153E+02  0.46580783926E+02  0.88924483527E+03  0.89521090017E+03  0.00000000000E+00 0. -1.
         22    1    3    3    0    0 -0.10973707107E+03  0.40073155103E+01  0.54081460624E+02  0.12240542360E+03  0.00000000000E+00 0. -1.
         22    1    3    3    0    0  0.66360850155E+00 -0.35556529811E+02 -0.32078934886E+02  0.47893269380E+02  0.00000000000E+00 0. -1.
</event>
<event>
 7    1  0.6122298E-006  0.3087750E+02  0.7818608E-02  0.1636963E+00
          2   -1    0    0  502    0  0.00000000000E+00  0.00000000000E+00  0.14198392060E+03  0.14198392060E+03  0.00000000000E+00 0. -1.
          1   -1    0    0  501    0 -0.00000000000E+00 -0.00000000000E+00 -0.11258131923E+04  0.11258131923E+04  0.00000000000E+00 0. -1.
         25    2    1    2    0    0 -0.68913679287E+01  0.23234728822E+02 -0.16321586198E+03  0.20701414369E+03  0.12501237743E+03 0.  0.
          2    1    1    2  501    0 -0.21049502969E+02 -0.97267071476E+01 -0.93854742878E+03  0.93883383326E+03  0.00000000000E+00 0. -1.
          1    1    1    2  502    0  0.27940870898E+02 -0.13508021674E+02  0.11793401904E+03  0.12194913597E+03  0.00000000000E+00 0. -1.
         22    1    3    3    0    0 -0.77775034033E+01 -0.18182343811E+02 -0.16438580779E+03  0.16557107534E+03  0.00000000000E+00 0.  1.
         22    1    3    3    0    0  0.88613547454E+00  0.41417072632E+02  0.11699458081E+01  0.41443068355E+02  0.00000000000E+00 0.  1.
</event>
<event>
 7    1  0.6122298E-006  0.7537693E+02  0.7818608E-02  0.1355863E+00
          2   -1    0    0  502    0  0.00000000000E+00  0.00000000000E+00  0.23178969992E+03  0.23178969992E+03  0.00000000000E+00 0. -1.
          1   -1    0    0  501    0 -0.00000000000E+00 -0.00000000000E+00 -0.56039009175E+03  0.56039009175E+03  0.00000000000E+00 0. -1.
         25    2    1    2    0    0  0.21730746993E+02  0.99525789871E+02 -0.30709292081E+03  0.34685615544E+03  0.12500208934E+03 0.  0.
          2    1    1    2  501    0 -0.58343637746E+02 -0.33678142332E+02 -0.22154887947E+03  0.23156446906E+03  0.00000000000E+00 0. -1.
          1    1    1    2  502    0  0.36612890753E+02 -0.65847647540E+02  0.20004140846E+03  0.21375916718E+03  0.00000000000E+00 0. -1.
         22    1    3    3    0    0  0.81815553774E+01  0.49591901741E+02 -0.18338892834E+02  0.53503360240E+02  0.00000000000E+00 0.  1.
         22    1    3    3    0    0  0.13549191616E+02  0.49933888131E+02 -0.28875402798E+03  0.29335279520E+03  0.00000000000E+00 0.  1.
</event>
<event>
 7    1  0.6122298E-006  0.2593362E+03  0.7818608E-02  0.1247918E+00
          2   -1    0    0  502    0  0.00000000000E+00  0.00000000000E+00  0.17872894198E+04  0.17872894198E+04  0.00000000000E+00 0. -1.
          1   -1    0    0  501    0 -0.00000000000E+00 -0.00000000000E+00 -0.59984194403E+03  0.59984194403E+03  0.00000000000E+00 0. -1.
         25    2    1    2    0    0 -0.61817849938E+02 -0.25585168044E+03  0.18914837287E+03  0.34739575708E+03  0.12500070450E+03 0.  0.
          2    1    1    2  501    0  0.90328233405E+01  0.25928836630E+03 -0.48790157357E+03  0.55259387826E+03  0.00000000000E+00 0. -1.
          1    1    1    2  502    0  0.52785026598E+02 -0.34366858637E+01  0.14862006765E+04  0.14871417285E+04  0.00000000000E+00 0. -1.
         22    1    3    3    0    0 -0.49695846336E+02 -0.17600274096E+03  0.55288576433E+02  0.19105880940E+03  0.00000000000E+00 0. -1.
         22    1    3    3    0    0 -0.12122003603E+02 -0.79848939482E+02  0.13385979643E+03  0.15633694768E+03  0.00000000000E+00 0. -1.
</event>
<event>
 7    1  0.6122298E-006  0.4286987E+02  0.7818608E-02  0.1503344E+00
          2   -1    0    0  502    0  0.00000000000E+00  0.00000000000E+00  0.12948725772E+04  0.12948725772E+04  0.00000000000E+00 0. -1.
          1   -1    0    0  501    0 -0.00000000000E+00 -0.00000000000E+00 -0.20892190971E+03  0.20892190971E+03  0.00000000000E+00 0. -1.
         25    2    1    2    0    0 -0.12307494184E+02 -0.14001025309E+02  0.82116689531E+03  0.83083560359E+03  0.12500090849E+03 0.  0.
          2    1    1    2  501    0  0.41460648594E+02 -0.11270131933E+02 -0.20101985533E+03  0.20556017000E+03  0.00000000000E+00 0. -1.
          1    1    1    2  502    0 -0.29153154411E+02  0.25271157241E+02  0.46580362753E+03  0.46739871333E+03  0.00000000000E+00 0. -1.
         22    1    3    3    0    0 -0.33393501851E+02  0.11853438341E+02  0.65820016433E+02  0.74752287788E+02  0.00000000000E+00 0. -1.
         22    1    3    3    0    0  0.21086007667E+02 -0.25854463650E+02  0.75534687888E+03  0.75608331581E+03  0.00000000000E+00 0. -1.
</event>
<event>
 7    1  0.6122298E-006  0.1249258E+03  0.7818608E-02  0.1301154E+00
          2   -1    0    0  502    0  0.00000000000E+00  0.00000000000E+00  0.77437716785E+03  0.77437716785E+03  0.00000000000E+00 0. -1.
          1   -1    0    0  501    0 -0.00000000000E+00 -0.00000000000E+00 -0.33726663914E+03  0.33726663914E+03  0.00000000000E+00 0. -1.
         25    2    1    2    0    0 -0.71789715040E+02  0.16651754709E+03  0.61510604252E+01  0.22034447977E+03  0.12502798705E+03 0.  0.
          2    1    1    2  501    0  0.58265343613E+02 -0.10206356497E+03 -0.21337951686E+03  0.24360344779E+03  0.00000000000E+00 0. -1.
          1    1    1    2  502    0  0.13524371427E+02 -0.64453982123E+02  0.64433898515E+03  0.64769587942E+03  0.00000000000E+00 0. -1.
         22    1    3    3    0    0 -0.12178403631E+02  0.15215624064E+03 -0.19490451528E+02  0.15388213926E+03  0.00000000000E+00 0.  1.
         22    1    3    3    0    0 -0.59611311409E+02  0.14361306447E+02  0.25641511953E+02  0.66462340509E+02  0.00000000000E+00 0.  1.
</event>
<event>
 7    1  0.6122298E-006  0.1050491E+03  0.7818608E-02  0.1387136E+00
          2   -1    0    0  502    0  0.00000000000E+00  0.00000000000E+00  0.15769949798E+04  0.15769949798E+04  0.00000000000E+00 0. -1.
          1   -1    0    0  501    0 -0.00000000000E+00 -0.00000000000E+00 -0.10481742290E+04  0.10481742290E+04  0.00000000000E+00 0. -1.
         25    2    1    2    0    0  0.93513206075E+02  0.85542812833E+02  0.26800663898E+03  0.32173799742E+03  0.12500195162E+03 0.  0.
          2    1    1    2  501    0 -0.93154131619E+02 -0.48211070166E+02 -0.10183423722E+04  0.10237300360E+04  0.00000000000E+00 0. -1.
          1    1    1    2  502    0 -0.35907445621E+00 -0.37331742668E+02  0.12791564840E+04  0.12797011754E+04  0.00000000000E+00 0. -1.
         22    1    3    3    0    0 -0.19646160661E+02 -0.25368080753E+01  0.24796795741E+01  0.19963863221E+02  0.00000000000E+00 0. -1.
         22    1    3    3    0    0  0.11315936674E+03  0.88079620909E+02  0.26552695940E+03  0.30177413420E+03  0.00000000000E+00 0. -1.
</event>
<event>
 7    1  0.6122298E-006  0.9362587E+02  0.7818608E-02  0.1296463E+00
          2   -1    0    0  502    0  0.00000000000E+00  0.00000000000E+00  0.13713679513E+04  0.13713679513E+04  0.00000000000E+00 0. -1.
          1   -1    0    0  501    0 -0.00000000000E+00 -0.00000000000E+00 -0.51054988747E+02  0.51054988747E+02  0.00000000000E+00 0. -1.
         25    2    1    2    0    0 -0.10752352259E+03  0.42508061701E+02  0.50119673600E+03  0.52933072302E+03  0.12499841170E+03 0.  0.
          2    1    1    2  501    0  0.77623241156E+02  0.48943493297E+02  0.27708373887E+02  0.95857118083E+02  0.00000000000E+00 0. -1.
          1    1    1    2  502    0  0.29900281429E+02 -0.91451554998E+02  0.79140785265E+03  0.79723509894E+03  0.00000000000E+00 0. -1.
         22    1    3    3    0    0 -0.66337678221E+02  0.66985465423E+01  0.77932257162E+02  0.10256215083E+03  0.00000000000E+00 0. -1.
         22    1    3    3    0    0 -0.41185844365E+02  0.35809515159E+02  0.42326447884E+03  0.42676857218E+03  0.00000000000E+00 0. -1.
</event>
<event>
 7    1  0.6122298E-006  0.7262707E+02  0.7818608E-02  0.1377889E+00
          2   -1    0    0  502    0  0.00000000000E+00  0.00000000000E+00  0.11858049339E+03  0.11858049339E+03  0.00000000000E+00 0. -1.
          1   -1    0    0  501    0 -0.00000000000E+00 -0.00000000000E+00 -0.12686172841E+04  0.12686172841E+04  0.00000000000E+00 0. -1.
         25    2    1    2    0    0  0.92121910994E+02 -0.73764726735E+02 -0.33043036101E+03  0.37247417313E+03  0.12500041910E+03 0.  0.
          2    1    1    2  501    0 -0.57005840580E+02  0.11794021561E+02 -0.90310062177E+03  0.90497486034E+03  0.00000000000E+00 0. -1.
          1    1    1    2  502    0 -0.35116070414E+02  0.61970705174E+02  0.83494192083E+02  0.10974874401E+03  0.00000000000E+00 0. -1.
         22    1    3    3    0    0  0.11152430105E+03 -0.39828814394E+02 -0.16888964002E+03  0.20627097393E+03  0.00000000000E+00 0. -1.
         22    1    3    3    0    0 -0.19402390053E+02 -0.33935912341E+02 -0.16154072099E+03  0.16620319920E+03  0.00000000000E+00 0. -1.
</event>
<event>
 7    1  0.6122298E-006  0.4129494E+02  0.7818608E-02  0.1552719E+00
          2   -1    0    0  502    0  0.00000000000E+00  0.00000000000E+00  0.73669086018E+02  0.73669086018E+02  0.00000000000E+00 0. -1.
          1   -1    0    0  501    0 -0.00000000000E+00 -0.00000000000E+00 -0.14269808993E+04  0.14269808993E+04  0.00000000000E+00 0. -1.
         25    2    1    2    0    0 -0.36520780096E+01  0.23232350606E+02 -0.94128302492E+03  0.94983534005E+03  0.12498144027E+03 0.  0.
          2    1    1    2  501    0  0.26591681369E+02  0.11294478875E+02 -0.47475259206E+03  0.47563085102E+03  0.00000000000E+00 0. -1.
          1    1    1    2  502    0 -0.22939603360E+02 -0.34526829481E+02  0.62723803741E+02  0.75183794212E+02  0.00000000000E+00 0. -1.
         22    1    3    3    0    0 -0.27432912299E+02  0.68521800181E+02 -0.46623984415E+03  0.47204596604E+03  0.00000000000E+00 0.  1.
         22    1    3    3    0    0  0.23780834289E+02 -0.45289449574E+02 -0.47504318077E+03  0.47778937401E+03  0.00000000000E+00 0.  1.
</event>
<event>
 7    1  0.6122298E-006  0.5159839E+02  0.7818608E-02  0.1552696E+00
          2   -1    0    0  502    0  0.00000000000E+00  0.00000000000E+00  0.52282850833E+03  0.52282850833E+03  0.00000000000E+00 0. -1.
          1   -1    0    0  501    0 -0.00000000000E+00 -0.00000000000E+00 -0.53548906139E+02  0.53548906139E+02  0.00000000000E+00 0. -1.
         25    2    1    2    0    0 -0.27263861195E+02  0.48309412734E+02  0.11857955300E+03  0.18101088304E+03  0.12500684743E+03 0.  0.
          2    1    1    2  501    0 -0.14542903788E+02 -0.17980065941E+02 -0.13996262173E+02  0.27030985492E+02  0.00000000000E+00 0. -1.
          1    1    1    2  502    0  0.41806764983E+02 -0.30329346792E+02  0.36469631137E+03  0.36833554594E+03  0.00000000000E+00 0. -1.
         22    1    3    3    0    0  0.14559277357E+02 -0.36666324128E+02  0.51856694968E+02  0.65157568212E+02  0.00000000000E+00 0.  1.
         22    1    3    3    0    0 -0.41823138552E+02  0.84975736862E+02  0.66722858032E+02  0.11585331483E+03  0.00000000000E+00 0.  1.
</event>
<event>
 7    1  0.6122298E-006  0.8021063E+02  0.7818608E-02  0.1384495E+00
          2   -1    0    0  502    0  0.00000000000E+00  0.00000000000E+00  0.35994773808E+03  0.35994773808E+03  0.00000000000E+00 0. -1.
          1   -1    0    0  501    0 -0.00000000000E+00 -0.00000000000E+00 -0.11198531265E+04  0.11198531265E+04  0.00000000000E+00 0. -1.
         25    2    1    2    0    0  0.78048141004E+02  0.10227259616E+03 -0.81667951501E+02  0.19709285523E+03  0.12499897216E+03 0.  0.
          2    1    1    2  501    0 -0.50427260053E+02 -0.60654877825E+02 -0.97680823993E+03  0.97998788786E+03  0.00000000000E+00 0. -1.
          1    1    1    2  502    0 -0.27620880951E+02 -0.41617718332E+02  0.29857080301E+03  0.30272012149E+03  0.00000000000E+00 0. -1.
         22    1    3    3    0    0  0.67956081911E+02  0.11171889333E+03 -0.18065637957E+02  0.13200570999E+03  0.00000000000E+00 0. -1.
         22    1    3    3    0    0  0.10092059093E+02 -0.94462971710E+01 -0.63602313544E+02  0.65087145238E+02  0.00000000000E+00 0. -1.
</event>
<event>
 7    1  0.6122298E-006  0.6707784E+02  0.7818608E-02  0.1390631E+00
          2   -1    0    0  502    0  0.00000000000E+00  0.00000000000E+00  0.90707539416E+03  0.90707539416E+03  0.00000000000E+00 0. -1.
          1   -1    0    0  501    0 -0.00000000000E+00 -0.00000000000E+00 -0.11883482759E+04  0.11883482759E+04  0.00000000000E+00 0. -1.
         25    2    1    2    0    0  0.10143042926E+03 -0.31938692170E+02  0.42361251517E+02  0.16949413321E+03  0.12500229408E+03 0.  0.
          2    1    1    2  501    0 -0.65689917837E+02 -0.12265381282E+02 -0.11227787813E+04  0.11247656630E+04  0.00000000000E+00 0. -1.
          1    1    1    2  502    0 -0.35740511419E+02  0.44204073452E+02  0.79914464806E+03  0.80116387387E+03  0.00000000000E+00 0. -1.
         22    1    3    3    0    0  0.27555464044E+01  0.37131420666E+02 -0.93914666316E+01  0.38399675547E+02  0.00000000000E+00 0.  1.
         22    1    3    3    0    0  0.98674882852E+02 -0.69070112836E+02  0.51752718148E+02  0.13109445766E+03  0.00000000000E+00 0.  1.
</event>
<event>
 7    1  0.6122298E-006  0.2268390E+03  0.7818608E-02  0.1228855E+00
          2   -1    0    0  502    0  0.00000000000E+00  0.00000000000E+00  0.28130230968E+04  0.28130230968E+04  0.00000000000E+00 0. -1.
          1   -1    0    0  501    0 -0.00000000000E+00 -0.00000000000E+00 -0.47449174824E+03  0.47449174824E+03  0.00000000000E+00 0. -1.
         25    2    1    2    0    0  0.24789485985E+02 -0.27785016811E+03 -0.66579091217E+02  0.31284607208E+03  0.12499861957E+03 0.  0.
          2    1    1    2  501    0  0.48077459724E+01  0.21064859886E+03 -0.24522691404E+03  0.32331437641E+03  0.00000000000E+00 0. -1.
          1    1    1    2  502    0 -0.29597231957E+02  0.67201569247E+02  0.26503373539E+04  0.26513543966E+04  0.00000000000E+00 0. -1.
         22    1    3    3    0    0  0.45998041792E+02 -0.18234757319E+03  0.10421899736E+02  0.18834827658E+03  0.00000000000E+00 0.  1.
         22    1    3    3    0    0 -0.21208555807E+02 -0.95502594918E+02 -0.77000990953E+02  0.12449779550E+03  0.00000000000E+00 0.  1.
</event>
<event>
 7    1  0.6122298E-006  0.1742437E+03  0.7818608E-02  0.1218090E+00
          2   -1    0    0  502    0  0.00000000000E+00  0.00000000000E+00  0.11548748840E+03  0.11548748840E+03  0.00000000000E+00 0. -1.
          1   -1    0    0  501    0 -0.00000000000E+00 -0.00000000000E+00 -0.22615735853E+04  0.22615735853E+04  0.00000000000E+00 0. -1.
         25    2    1    2    0    0  0.73856964423E+02 -0.93372186159E+01 -0.39070851764E+02  0.15064541795E+03  0.12500190257E+03 0.  0.
          2    1    1    2  501    0 -0.17813069969E+03  0.33171340264E+02 -0.21115949897E+04  0.21193546859E+04  0.00000000000E+00 0. -1.
          1    1    1    2  502    0  0.10427373526E+03 -0.23834121648E+02  0.45797445149E+01  0.10706096992E+03  0.00000000000E+00 0. -1.
         22    1    3    3    0    0  0.61662693426E+02 -0.85524260618E+01 -0.83734538578E+02  0.10434033114E+03  0.00000000000E+00 0.  1.
         22    1    3    3    0    0  0.12194270997E+02 -0.78479255409E+00  0.44663686815E+02  0.46305086809E+02  0.00000000000E+00 0.  1.
</event>
<event>
 7    1  0.6122298E-006  0.4160084E+02  0.7818608E-02  0.1558679E+00
          2   -1    0    0  502    0  0.00000000000E+00  0.00000000000E+00  0.25285087850E+04  0.25285087850E+04  0.00000000000E+00 0. -1.
          1   -1    0    0  501    0 -0.00000000000E+00 -0.00000000000E+00 -0.53926334782E+02  0.53926334782E+02  0.00000000000E+00 0. -1.
         25    2    1    2    0    0  0.36222155913E+01  0.68500106342E+02  0.50021058223E+03  0.52013766421E+03  0.12500871226E+03 0.  0.
          2    1    1    2  501    0 -0.19000424477E+00 -0.27608719358E+02 -0.39398272965E+02  0.48109265208E+02  0.00000000000E+00 0. -1.
          1    1    1    2  502    0 -0.34322113465E+01 -0.40891386984E+02  0.20137701409E+04  0.20141881903E+04  0.00000000000E+00 0. -1.
         22    1    3    3    0    0 -0.11363795098E+02 -0.27068888000E+02  0.25261561207E+03  0.25431576435E+03  0.00000000000E+00 0.  1.
         22    1    3    3    0    0  0.14986010689E+02  0.95568994343E+02  0.24759497016E+03  0.26582189986E+03  0.00000000000E+00 0.  1.
</event>
<event>
 7    1  0.6122298E-006  0.5396234E+02  0.7818608E-02  0.1499489E+00
          2   -1    0    0  502    0  0.00000000000E+00  0.00000000000E+00  0.20207104533E+03  0.20207104533E+03  0.00000000000E+00 0. -1.
          1   -1    0    0  501    0 -0.00000000000E+00 -0.00000000000E+00 -0.20404739315E+03  0.20404739315E+03  0.00000000000E+00 0. -1.
         25    2    1    2    0    0  0.71599731009E+01 -0.32572632350E+02 -0.38265874448E+02  0.13491794954E+03  0.12500533736E+03 0.  0.
          2    1    1    2  501    0 -0.24144813207E+02 -0.20186671202E+02 -0.11018426776E+03  0.11459077869E+03  0.00000000000E+00 0. -1.
          1    1    1    2  502    0  0.16984840106E+02  0.52759303552E+02  0.14647379439E+03  0.15660971026E+03  0.00000000000E+00 0. -1.
         22    1    3    3    0    0 -0.41373868816E+02 -0.45686296505E+02 -0.54305562750E+02  0.82146995410E+02  0.00000000000E+00 0. -1.
         22    1    3    3    0    0  0.48533841917E+02  0.13113664155E+02  0.16039688302E+02  0.52770954129E+02  0.00000000000E+00 0. -1.
</event>
<event>
 7    1  0.6122298E-006  0.1009478E+03  0.7818608E-02  0.1324780E+00
          2   -1    0    0  502    0  0.00000000000E+00  0.00000000000E+00  0.14240645988E+04  0.14240645988E+04  0.00000000000E+00 0. -1.
          1   -1    0    0  501    0 -0.00000000000E+00 -0.00000000000E+00 -0.14174093156E+04  0.14174093156E+04  0.00000000000E+00 0. -1.
         25    2    1    2    0    0 -0.94226866679E+02  0.63682524303E+01  0.43718184658E+03  0.46440283155E+03  0.12499106341E+03 0.  0.
          2    1    1    2  501    0  0.63767559422E+01 -0.65528917581E+02 -0.14001415625E+04  0.14016886591E+04  0.00000000000E+00 0. -1.
          1    1    1    2  502    0  0.87850110737E+02  0.59160665151E+02  0.96961499901E+03  0.97538242376E+03  0.00000000000E+00 0. -1.
         22    1    3    3    0    0 -0.49172626590E+02 -0.54805357615E+02  0.28435085173E+03  0.29372943555E+03  0.00000000000E+00 0.  1.
         22    1    3    3    0    0 -0.45054240089E+02  0.61173610046E+02  0.15283099485E+03  0.17067339600E+03  0.00000000000E+00 0.  1.
</event>
<event>
 7    1  0.6122298E-006  0.8028793E+02  0.7818608E-02  0.1363565E+00
          2   -1    0    0  502    0  0.00000000000E+00  0.00000000000E+00  0.14378062836E+04  0.14378062836E+04  0.00000000000E+00 0. -1.
          1   -1    0    0  501    0 -0.00000000000E+00 -0.00000000000E+00 -0.16373222829E+04  0.16373222829E+04  0.00000000000E+00 0. -1.
         25    2    1    2    0    0  0.11385062752E+03 -0.63836167540E+02  0.59398377985E+03  0.62086888270E+03  0.12499766843E+03 0.  0.
          2    1    1    2  501    0 -0.57128716239E+02  0.15825404358E+02 -0.16216744677E+04  0.16227575952E+04  0.00000000000E+00 0. -1.
          1    1    1    2  502    0 -0.56721911284E+02  0.48010763183E+02  0.82817468856E+03  0.83150208862E+03  0.00000000000E+00 0. -1.
         22    1    3    3    0    0  0.30324596470E+02  0.99582062039E+01  0.36300615115E+03  0.36440665854E+03  0.00000000000E+00 0.  1.
         22    1    3    3    0    0  0.83526031053E+02 -0.73794373744E+02  0.23097762870E+03  0.25646222416E+03  0.00000000000E+00 0.  1.
</event>
<event>
 7    1  0.6122298E-006  0.1888529E+03  0.7818608E-02  0.1316299E+00
          2   -1    0    0  502    0  0.00000000000E+00  0.00000000000E+00  0.19998570945E+04  0.19998570945E+04  0.00000000000E+00 0. -1.
          1   -1    0    0  501    0 -0.00000000000E+00 -0.00000000000E+00 -0.32404757157E+03  0.32404757157E+03  0.00000000000E+00 0. -1.
         25    2    1    2    0    0 -0.14943508942E+03  0.11334181150E+03  0.76334544472E+03  0.79592539891E+03  0.12499504179E+03 0.  0.
          2    1    1    2  501    0  0.12466438076E+03 -0.14210624262E+03 -0.27839776226E+03  0.33651256449E+03  0.00000000000E+00 0. -1.
          1    1    1    2  502    0  0.24770708654E+02  0.28764431119E+02  0.11908618405E+04  0.11914667027E+04  0.00000000000E+00 0. -1.
         22    1    3    3    0    0 -0.16420799917E+03  0.10577406826E+03  0.58369451680E+03  0.61550930899E+03  0.00000000000E+00 0.  1.
         22    1    3    3    0    0  0.14772909755E+02  0.75677432491E+01  0.17965092792E+03  0.18041608992E+03  0.00000000000E+00 0.  1.
</event>
<event>
 7    1  0.6122298E-006  0.5175121E+02  0.7818608E-02  0.1494198E+00
          2   -1    0    0  502    0  0.00000000000E+00  0.00000000000E+00  0.11909429709E+03  0.11909429709E+03  0.00000000000E+00 0. -1.
          1   -1    0    0  501    0 -0.00000000000E+00 -0.00000000000E+00 -0.89443689012E+03  0.89443689012E+03  0.00000000000E+00 0. -1.
         25    2    1    2    0    0  0.18428419554E+02 -0.60164796151E+02 -0.66923315397E+02  0.15512287097E+03  0.12499986245E+03 0.  0.
          2    1    1    2  501    0 -0.39479082941E+02  0.33418145612E+02 -0.77864907198E+03  0.78036513744E+03  0.00000000000E+00 0. -1.
          1    1    1    2  502    0  0.21050663386E+02  0.26746650540E+02  0.70229794342E+02  0.78043178801E+02  0.00000000000E+00 0. -1.
         22    1    3    3    0    0  0.19726704194E+02 -0.98252595046E+02 -0.58687231486E+02  0.11613314097E+03  0.00000000000E+00 0. -1.
         22    1    3    3    0    0 -0.12982846395E+01  0.38087798895E+02 -0.82360839108E+01  0.38989730005E+02  0.00000000000E+00 0. -1.
</event>
<event>
 7    1  0.6122298E-006  0.6127494E+02  0.7818608E-02  0.1435314E+00
          2   -1    0    0  502    0  0.00000000000E+00  0.00000000000E+00  0.13883153911E+04  0.13883153911E+04  0.00000000000E+00 0. -1.
          1   -1    0    0  501    0 -0.00000000000E+00 -0.00000000000E+00 -0.35317074860E+03  0.35317074860E+03  0.00000000000E+00 0. -1.
         25    2    1    2    0    0 -0.71897230426E+00 -0.52929193545E+02  0.24390189757E+03  0.27913372957E+03  0.12500194757E+03 0.  0.
          2    1    1    2  501    0 -0.42446290950E+02  0.44540698736E+02 -0.33230075556E+03  0.33794874405E+03  0.00000000000E+00 0. -1.
          1    1    1    2  502    0  0.43165263254E+02  0.83884948088E+01  0.11235435005E+04  0.11244036661E+04  0.00000000000E+00 0. -1.
         22    1    3    3    0    0 -0.42564431360E+02  0.23249208436E+02  0.96895958163E+02  0.10835627909E+03  0.00000000000E+00 0.  1.
         22    1    3    3    0    0  0.41845459055E+02 -0.76178401981E+02  0.14700593940E+03  0.17077745048E+03  0.00000000000E+00 0.  1.
</event>
<event>
 7    1  0.6122298E-006  0.8290703E+02  0.7818608E-02  0.1333624E+00
          2   -1    0    0  502    0  0.00000000000E+00  0.00000000000E+00  0.66751187393E+03  0.66751187393E+03  0.00000000000E+00 0. -1.
          1   -1    0    0  501    0 -0.00000000000E+00 -0.00000000000E+00 -0.18505236898E+04  0.18505236898E+04  0.00000000000E+00 0. -1.
         25    2    1    2    0    0  0.55138401950E+02  0.47415349537E+01  0.41475872020E+03  0.43670618058E+03  0.12499906662E+03 0.  0.
          2    1    1    2  501    0  0.63260520881E+02  0.38697087422E+02 -0.18222983592E+04  0.18238066421E+04  0.00000000000E+00 0. -1.
          1    1    1    2  502    0 -0.11839892283E+03 -0.43438622376E+02  0.22452782305E+03  0.25752274107E+03  0.00000000000E+00 0. -1.
         22    1    3    3    0    0  0.65844931770E+02 -0.35403529025E+02  0.36154586295E+03  0.36919422521E+03  0.00000000000E+00 0. -1.
         22    1    3    3    0    0 -0.10706529820E+02  0.40145063979E+02  0.53212857246E+02  0.67511955378E+02  0.00000000000E+00 0. -1.
</event>
<event>
 7    1  0.6122298E-006  0.3333289E+02  0.7818608E-02  0.1574880E+00
          2   -1    0    0  502    0  0.00000000000E+00  0.00000000000E+00  0.11948153477E+04  0.11948153477E+04  0.00000000000E+00 0. -1.
          1   -1    0    0  501    0 -0.00000000000E+00 -0.00000000000E+00 -0.20676309473E+02  0.20676309473E+02  0.00000000000E+00 0. -1.
         25    2    1    2    0    0 -0.57120249341E+02  0.25447629379E+02  0.44925271058E+03  0.47049025095E+03  0.12499109388E+03 0.  0.
          2    1    1    2  501    0  0.27587952369E+02 -0.15624537577E+02  0.16149019257E+02  0.35581063972E+02  0.00000000000E+00 0. -1.
          1    1    1    2  502    0  0.29532296971E+02 -0.98230918016E+01  0.70873730843E+03  0.70942034229E+03  0.00000000000E+00 0. -1.
         22    1    3    3    0    0  0.22093697091E+02 -0.34120255390E+02  0.13082862315E+03  0.13699799968E+03  0.00000000000E+00 0. -1.
         22    1    3    3    0    0 -0.79213946432E+02  0.59567884769E+02  0.31842408743E+03  0.33349225127E+03  0.00000000000E+00 0. -1.
</event>
<event>
 7    1  0.6122298E-006  0.1161044E+03  0.7818608E-02  0.1359109E+00
          2   -1    0    0  502    0  0.00000000000E+00  0.00000000000E+00  0.24797808602E+03  0.24797808602E+03  0.00000000000E+00 0. -1.
          1   -1    0    0  501    0 -0.00000000000E+00 -0.00000000000E+00 -0.16383774205E+04  0.16383774205E+04  0.00000000000E+00 0. -1.
         25    2    1    2    0    0  0.77864831639E+02  0.13319541654E+03 -0.91673667030E+02  0.21870759618E+03  0.12500000162E+03 0.  0.
          2    1    1    2  501    0 -0.24405051957E+02 -0.34860424490E+02 -0.14658707427E+04  0.14664882850E+04  0.00000000000E+00 0. -1.
          1    1    1    2  502    0 -0.53459779683E+02 -0.98334992050E+02  0.16714507522E+03  0.20115962536E+03  0.00000000000E+00 0. -1.
         22    1    3    3    0    0 -0.24600691975E+02 -0.55831876210E+01 -0.52668780393E+01  0.25770254829E+02  0.00000000000E+00 0. -1.
         22    1    3    3    0    0  0.10246552361E+03  0.13877860416E+03 -0.86406788991E+02  0.19293734135E+03  0.00000000000E+00 0. -1.
</event>
<event>
 7    1  0.6122298E-006  0.1364148E+03  0.7818608E-02  0.1241545E+00
          2   -1    0    0  502    0  0.00000000000E+00  0.00000000000E+00  0.54121713501E+03  0.54121713501E+03  0.00000000000E+00 0. -1.
          1   -1    0    0  501    0 -0.00000000000E+00 -0.00000000000E+00 -0.46460020135E+03  0.46460020135E+03  0.00000000000E+00 0. -1.
         25    2    1    2    0    0  0.16481750925E+03  0.90878636963E+02 -0.36442805663E+03  0.42878562424E+03  0.12500226031E+03 0.  0.
          2    1    1    2  501    0 -0.29474566597E+02 -0.10310045683E+03 -0.83345717688E+01  0.10755426241E+03  0.00000000000E+00 0. -1.
          1    1    1    2  502    0 -0.13534294265E+03  0.12221819869E+02  0.44937956205E+03  0.46947744972E+03  0.00000000000E+00 0. -1.
         22    1    3    3    0    0  0.69234480920E+02 -0.14082392113E+02 -0.59261184970E+02  0.92215048446E+02  0.00000000000E+00 0. -1.
         22    1    3    3    0    0  0.95583028329E+02  0.10496102908E+03 -0.30516687166E+03  0.33657057579E+03  0.00000000000E+00 0. -1.
</event>
<event>
 7    1  0.6122298E-006  0.9991295E+02  0.7818608E-02  0.1380714E+00
          2   -1    0    0  502    0  0.00000000000E+00  0.00000000000E+00  0.23163714812E+04  0.23163714812E+04  0.00000000000E+00 0. -1.
          1   -1    0    0  501    0 -0.00000000000E+00 -0.00000000000E+00 -0.95245566778E+02  0.95245566778E+02  0.00000000000E+00 0. -1.
         25    2    1    2    0    0  0.13626665037E+03 -0.81253966710E+01  0.10752408890E+04  0.10910559007E+04  0.12500154835E+03 0.  0.
          2    1    1    2  501    0 -0.98596236996E+02 -0.89281100389E+01 -0.58814342540E+02  0.11515231646E+03  0.00000000000E+00 0. -1.
          1    1    1    2  502    0 -0.37670413374E+02  0.17053506710E+02  0.12046993680E+04  0.12054088308E+04  0.00000000000E+00 0. -1.
         22    1    3    3    0    0  0.47497119349E+02  0.34257991658E+02  0.15709762574E+03  0.16765813536E+03  0.00000000000E+00 0. -1.
         22    1    3    3    0    0  0.88769531021E+02 -0.42383388329E+02  0.91814326322E+03  0.92339776535E+03  0.00000000000E+00 0. -1.
</event>
<event>
 7    1  0.6122298E-006  0.3619266E+02  0.7818608E-02  0.1572092E+00
          2   -1    0    0  502    0  0.00000000000E+00  0.00000000000E+00  0.99852493345E+02  0.99852493345E+02  0.00000000000E+00 0. -1.
          1   -1    0    0  501    0 -0.00000000000E+00 -0.00000000000E+00 -0.82981819641E+03  0.82981819641E+03  0.00000000000E+00 0. -1.
         25    2    1    2    0    0 -0.22373772149E+02  0.34091148832E+02 -0.19215621092E+02  0.13288412688E+03  0.12500463581E+03 0.  0.
          2    1    1    2  501    0 -0.67525270014E+01 -0.35610438469E+02 -0.74833524160E+03  0.74921247572E+03  0.00000000000E+00 0. -1.
          1    1    1    2  502    0  0.29126299150E+02  0.15192896374E+01  0.37585159634E+02  0.47574087148E+02  0.00000000000E+00 0. -1.
         22    1    3    3    0    0 -0.20710523109E+02  0.55453696901E+02 -0.61574929302E+02  0.85413758763E+02  0.00000000000E+00 0.  1.
         22    1    3    3    0    0 -0.16632490397E+01 -0.21362548069E+02  0.42359308211E+02  0.47470368120E+02  0.00000000000E+00 0.  1.
</event>
<event>
 7    1  0.6122298E-006  0.8174641E+02  0.7818608E-02  0.1440898E+00
          2   -1    0    0  502    0  0.00000000000E+00  0.00000000000E+00  0.78950147724E+03  0.78950147724E+03  0.00000000000E+00 0. -1.
          1   -1    0    0  501    0 -0.00000000000E+00 -0.00000000000E+00 -0.21608083286E+03  0.21608083286E+03  0.00000000000E+00 0. -1.
         25    2    1    2    0    0  0.66893235164E+02 -0.21028508235E+02  0.47419412286E+03  0.49538128033E+03  0.12500257468E+03 0.  0.
          2    1    1    2  501    0  0.73864654950E+01 -0.30735115673E+02 -0.19747731393E+03  0.19999124162E+03  0.00000000000E+00 0. -1.
          1    1    1    2  502    0 -0.74279700659E+02  0.51763623908E+02  0.29670383544E+03  0.31020978814E+03  0.00000000000E+00 0. -1.
         22    1    3    3    0    0  0.68016882379E+02 -0.57631568101E+02  0.20283103166E+03  0.22155839261E+03  0.00000000000E+00 0. -1.
         22    1    3    3    0    0 -0.11236472156E+01  0.36603059866E+02  0.27136309120E+03  0.27382288773E+03  0.00000000000E+00 0. -1.
</event>
<event>
 7    1  0.6122298E-006  0.1398335E+03  0.7818608E-02  0.1329338E+00
          2   -1    0    0  502    0  0.00000000000E+00  0.00000000000E+00  0.20395036954E+04  0.20395036954E+04  0.00000000000E+00 0. -1.
          1   -1    0    0  501    0 -0.00000000000E+00 -0.00000000000E+00 -0.14975733447E+04  0.14975733447E+04  0.00000000000E+00 0. -1.
         25    2    1    2    0    0 -0.98648101369E+02  0.96166814174E+02  0.23428787314E+03  0.29915721382E+03  0.12499890811E+03 0.  0.
          2    1    1    2  501    0  0.12645640725E+03 -0.59959861027E+02 -0.14615014501E+04  0.14681869419E+04  0.00000000000E+00 0. -1.
          1    1    1    2  502    0 -0.27808305877E+02 -0.36206953147E+02  0.17691439276E+04  0.17697328843E+04  0.00000000000E+00 0. -1.
         22    1    3    3    0    0 -0.12851338366E+03  0.84829144483E+02  0.19749482476E+03  0.25043138649E+03  0.00000000000E+00 0. -1.
         22    1    3    3    0    0  0.29865282288E+02  0.11337669691E+02  0.36793048377E+02  0.48725827330E+02  0.00000000000E+00 0. -1.
</event>
<event>
 7    1  0.6122298E-006  0.6228564E+02  0.7818608E-02  0.1533472E+00
          2   -1    0    0  502    0  0.00000000000E+00  0.00000000000E+00  0.39766336280E+03  0.39766336280E+03  0.00000000000E+00 0. -1.
          1   -1    0    0  501    0 -0.00000000000E+00 -0.00000000000E+00 -0.14976872978E+03  0.14976872978E+03  0.00000000000E+00 0. -1.
         25    2    1    2    0    0  0.42741069482E+02  0.23301189882E+01  0.75050067359E+02  0.15195212964E+03  0.12499883446E+03 0.  0.
          2    1    1    2  501    0  0.21381481479E+02 -0.37030537121E+01 -0.10659148242E+03  0.10877786761E+03  0.00000000000E+00 0. -1.
          1    1    1    2  502    0 -0.64122550962E+02  0.13729347239E+01  0.27943604809E+03  0.28670209532E+03  0.00000000000E+00 0. -1.
         22    1    3    3    0    0  0.79009011443E+02  0.28180464290E+02  0.65437208848E+02  0.10638886576E+03  0.00000000000E+00 0. -1.
         22    1    3    3    0    0 -0.36267941960E+02 -0.25850345302E+02  0.96128585109E+01  0.45563263876E+02  0.00000000000E+00 0. -1.
</event>
<event>
 7    1  0.6122298E-006  0.1173352E+03  0.7818608E-02  0.1368598E+00
          2   -1    0    0  502    0  0.00000000000E+00  0.00000000000E+00  0.17416608035E+04  0.17416608035E+04  0.00000000000E+00 0. -1.
          1   -1    0    0  501    0 -0.00000000000E+00 -0.00000000000E+00 -0.13990423040E+03  0.13990423040E+03  0.00000000000E+00 0. -1.
         25    2    1    2    0    0  0.98430388694E+02 -0.90055814072E+02 -0.43090693443E+02  0.18783030676E+03  0.12499930083E+03 0.  0.
          2    1    1    2  501    0 -0.77511379302E+02  0.57261362390E+02  0.71722391261E+02  0.12012900962E+03  0.00000000000E+00 0. -1.
          1    1    1    2  502    0 -0.20919009392E+02  0.32794451682E+02  0.15731248753E+04  0.15736057175E+04  0.00000000000E+00 0. -1.
         22    1    3    3    0    0  0.67482112997E+02  0.17042086131E+02 -0.40738812432E+01  0.69719902343E+02  0.00000000000E+00 0. -1.
         22    1    3    3    0    0  0.30948275696E+02 -0.10709790020E+03 -0.39016812200E+02  0.11811040441E+03  0.00000000000E+00 0. -1.
</event>
<event>
 7    1  0.6122298E-006  0.4898107E+02  0.7818608E-02  0.1551590E+00
          2   -1    0    0  502    0  0.00000000000E+00  0.00000000000E+00  0.51170462992E+03  0.51170462992E+03  0.00000000000E+00 0. -1.
          1   -1    0    0  501    0 -0.00000000000E+00 -0.00000000000E+00 -0.99042560405E+02  0.99042560405E+02  0.00000000000E+00 0. -1.
         25    2    1    2    0    0  0.17511821239E+02 -0.64389788529E+01  0.46345124691E+03  0.48037504248E+03  0.12499999539E+03 0.  0.
          2    1    1    2  501    0 -0.47987494486E+01 -0.48745435321E+02 -0.54923353926E+02  0.73591577421E+02  0.00000000000E+00 0. -1.
          1    1    1    2  502    0 -0.12713071791E+02  0.55184414174E+02  0.41341765370E+01  0.56780570424E+02  0.00000000000E+00 0. -1.
         22    1    3    3    0    0 -0.46021960339E+02 -0.33816836862E+02  0.21877239160E+03  0.22610386687E+03  0.00000000000E+00 0. -1.
         22    1    3    3    0    0  0.63533781579E+02  0.27377858009E+02  0.24467885531E+03  0.25427117561E+03  0.00000000000E+00 0. -1.
</event>
<event>
 7    1  0.6122298E-006  0.5483182E+02  0.7818608E-02  0.1442316E+00
          2   -1    0    0  502    0  0.00000000000E+00  0.00000000000E+00  0.22516130444E+04  0.22516130444E+04  0.00000000000E+00 0. -1.
          1   -1    0    0  501    0 -0.00000000000E+00 -0.00000000000E+00 -0.34747034845E+03  0.34747034845E+03  0.00000000000E+00 0. -1.
         25    2    1    2    0    0  0.76126284615E+02 -0.61968680586E+02  0.54632697867E+02  0.16806308304E+03  0.12500055849E+03 0.  0.
          2    1    1    2  501    0 -0.47786192199E+02  0.24938140715E+02 -0.28800050558E+03  0.29300123249E+03  0.00000000000E+00 0. -1.
          1    1    1    2  502    0 -0.28340092416E+02  0.37030539872E+02  0.21375105036E+04  0.21380190773E+04  0.00000000000E+00 0. -1.
         22    1    3    3    0    0  0.59673292256E+02 -0.98219000984E+02  0.22972538250E+02  0.11719902507E+03  0.00000000000E+00 0.  1.
         22    1    3    3    0    0  0.16452992359E+02  0.36250320398E+02  0.31660159618E+02  0.50864057973E+02  0.00000000000E+00 0.  1.
</event>
<event>
 7    1  0.6122298E-006  0.7424840E+02  0.7818608E-02  0.1432731E+00
          2   -1    0    0  502    0  0.00000000000E+00  0.00000000000E+00  0.49601197671E+03  0.49601197671E+03  0.00000000000E+00 0. -1.
          1   -1    0    0  501    0 -0.00000000000E+00 -0.00000000000E+00 -0.47906861482E+03  0.47906861482E+03  0.00000000000E+00 0. -1.
         25    2    1    2    0    0  0.95211195583E+02  0.22570161703E+02 -0.62297189475E+02  0.17053040129E+03  0.12500037593E+03 0.  0.
          2    1    1    2  501    0 -0.72651255005E+02  0.67601541095E+01 -0.35819567676E+03  0.36555170275E+03  0.00000000000E+00 0. -1.
          1    1    1    2  502    0 -0.22559940578E+02 -0.29330315812E+02  0.43743622812E+03  0.43899848749E+03  0.00000000000E+00 0. -1.
         22    1    3    3    0    0  0.52668830736E+02 -0.51284508805E+02 -0.28980879660E+02  0.79018972154E+02  0.00000000000E+00 0. -1.
         22    1    3    3    0    0  0.42542364848E+02  0.73854670507E+02 -0.33316309815E+02  0.91511429135E+02  0.00000000000E+00 0. -1.
</event>
<event>
 7    1  0.6122298E-006  0.2151215E+03  0.7818608E-02  0.1295771E+00
          2   -1    0    0  502    0  0.00000000000E+00  0.00000000000E+00  0.32586708265E+04  0.32586708265E+04  0.00000000000E+00 0. -1.
          1   -1    0    0  501    0 -0.00000000000E+00 -0.00000000000E+00 -0.91181662670E+03  0.91181662670E+03  0.00000000000E+00 0. -1.
         25    2    1    2    0    0 -0.16478914742E+03  0.19375151759E+03  0.16297692951E+04  0.16542289820E+04  0.12502182249E+03 0.  0.
          2    1    1    2  501    0  0.13403356820E+03 -0.16787167809E+03 -0.88650715547E+03  0.91216272364E+03  0.00000000000E+00 0. -1.
          1    1    1    2  502    0  0.30755579217E+02 -0.25879839504E+02  0.16035920602E+04  0.16040957476E+04  0.00000000000E+00 0. -1.
         22    1    3    3    0    0 -0.14569426090E+02 -0.17150278298E+02  0.19371906188E+03  0.19502172996E+03  0.00000000000E+00 0. -1.
         22    1    3    3    0    0 -0.15021972133E+03  0.21090179589E+03  0.14360502332E+04  0.14592072521E+04  0.00000000000E+00 0. -1.
</event>
<event>
 7    1  0.6122298E-006  0.1089476E+03  0.7818608E-02  0.1343574E+00
          2   -1    0    0  502    0  0.00000000000E+00  0.00000000000E+00  0.14558285462E+04  0.14558285462E+04  0.00000000000E+00 0. -1.
          1   -1    0    0  501    0 -0.00000000000E+00 -0.00000000000E+00 -0.38239636785E+03  0.38239636785E+03  0.00000000000E+00 0. -1.
         25    2    1    2    0    0 -0.26874566823E+02  0.63300190877E+02  0.40113823650E+03  0.42575345826E+03  0.12499986371E+03 0.  0.
          2    1    1    2  501    0 -0.25712801101E+02  0.44924624156E+02 -0.36478319268E+03  0.36843744063E+03  0.00000000000E+00 0. -1.
          1    1    1    2  502    0  0.52587367925E+02 -0.10822481503E+03  0.10370771345E+04  0.10440340151E+04  0.00000000000E+00 0. -1.
         22    1    3    3    0    0 -0.15056247514E+02 -0.37627740509E+02  0.13144454760E+03  0.13755074169E+03  0.00000000000E+00 0.  1.
         22    1    3    3    0    0 -0.11818319309E+02  0.10092793139E+03  0.26969368890E+03  0.28820271657E+03  0.00000000000E+00 0.  1.
</event>
<event>
 7    1  0.6122298E-006  0.4930850E+02  0.7818608E-02  0.1549990E+00
          2   -1    0    0  502    0  0.00000000000E+00  0.00000000000E+00  0.35114743978E+03  0.35114743978E+03  0.00000000000E+00 0. -1.
          1   -1    0    0  501    0 -0.00000000000E+00 -0.00000000000E+00 -0.44012955277E+02  0.44012955277E+02  0.00000000000E+00 0. -1.
         25    2    1    2    0    0  0.17944453236E+02  0.37065480962E+02  0.26929709568E+03  0.29973696831E+03  0.12500188458E+03 0.  0.
          2    1    1    2  501    0  0.24162789135E+02  0.47362497748E+01 -0.77144193591E+00  0.24634682124E+02  0.00000000000E+00 0. -1.
          1    1    1    2  502    0 -0.42107242371E+02 -0.41801730736E+02  0.38608830753E+02  0.70788744619E+02  0.00000000000E+00 0. -1.
         22    1    3    3    0    0  0.54056904372E+02 -0.14288200297E+01  0.22320706594E+03  0.22966406929E+03  0.00000000000E+00 0.  1.
         22    1    3    3    0    0 -0.36112451136E+02  0.38494300991E+02  0.46090029747E+02  0.70072899026E+02  0.00000000000E+00 0.  1.
</event>
<event>
 7    1  0.6122298E-006  0.7394608E+02  0.7818608E-02  0.1393940E+00
          2   -1    0    0  502    0  0.00000000000E+00  0.00000000000E+00  0.35296191028E+03  0.35296191028E+03  0.00000000000E+00 0. -1.
          1   -1    0    0  501    0 -0.00000000000E+00 -0.00000000000E+00 -0.13501094422E+03  0.13501094422E+03  0.00000000000E+00 0. -1.
         25    2    1    2    0    0 -0.34475947506E+02  0.52239993447E+02  0.21872419824E+03  0.25958225593E+03  0.12500025930E+03 0.  0.
          2    1    1    2  501    0  0.33009531548E+02  0.37843493533E+02 -0.89064315809E+02  0.10224583867E+03  0.00000000000E+00 0. -1.
          1    1    1    2  502    0  0.14664159582E+01 -0.90083486980E+02  0.88291083626E+02  0.12614475990E+03  0.00000000000E+00 0. -1.
         22    1    3    3    0    0 -0.27092200861E+02 -0.27090732529E+02  0.14854985115E+03  0.15341106027E+03  0.00000000000E+00 0. -1.
         22    1    3    3    0    0 -0.73837466448E+01  0.79330725977E+02  0.70174347092E+02  0.10617119566E+03  0.00000000000E+00 0. -1.
</event>
<event>
 7    1  0.6122298E-006  0.4219887E+02  0.7818608E-02  0.1556044E+00
          2   -1    0    0  502    0  0.00000000000E+00  0.00000000000E+00  0.17298012111E+04  0.17298012111E+04  0.00000000000E+00 0. -1.
          1   -1    0    0  501    0 -0.00000000000E+00 -0.00000000000E+00 -0.81819624336E+03  0.81819624336E+03  0.00000000000E+00 0. -1.
         25    2    1    2    0    0  0.35331488084E+00 -0.14856535514E+02 -0.14956150076E+02  0.12676375468E+03  0.12499808637E+03 0.  0.
          2    1    1    2  501    0  0.67136463437E+01 -0.26851568777E+02 -0.74681262158E+03  0.74732534518E+03  0.00000000000E+00 0. -1.
          1    1    1    2  502    0 -0.70669612245E+01  0.41708104292E+02  0.16733737394E+04  0.16739083546E+04  0.00000000000E+00 0. -1.
         22    1    3    3    0    0 -0.13498535046E+02 -0.68809155435E+02 -0.64686140569E+01  0.70418415829E+02  0.00000000000E+00 0. -1.
         22    1    3    3    0    0  0.13851849926E+02  0.53952619921E+02 -0.84875360192E+01  0.56345338852E+02  0.00000000000E+00 0. -1.
</event>
<event>
 7    1  0.6122298E-006  0.1363101E+03  0.7818608E-02  0.1380257E+00
          2   -1    0    0  502    0  0.00000000000E+00  0.00000000000E+00  0.32142207175E+04  0.32142207175E+04  0.00000000000E+00 0. -1.
          1   -1    0    0  501    0 -0.00000000000E+00 -0.00000000000E+00 -0.19419251570E+04  0.19419251570E+04  0.00000000000E+00 0. -1.
         25    2    1    2    0    0  0.10251306712E+03  0.32745265132E+02 -0.71371996211E+02  0.17972151105E+03  0.12499871347E+03 0.  0.
          2    1    1    2  501    0  0.30405204155E+02 -0.10230992410E+01 -0.18147735370E+04  0.18150285159E+04  0.00000000000E+00 0. -1.
          1    1    1    2  502    0 -0.13291827128E+03 -0.31722165891E+02  0.31584410937E+04  0.31613958476E+04  0.00000000000E+00 0. -1.
         22    1    3    3    0    0  0.72858889048E+02  0.79164312396E+02 -0.60974698300E+02  0.12366616313E+03  0.00000000000E+00 0.  1.
         22    1    3    3    0    0  0.29654178075E+02 -0.46419047264E+02 -0.10397297911E+02  0.56055347917E+02  0.00000000000E+00 0.  1.
</event>
<event>
 7    1  0.6122298E-006  0.1163277E+03  0.7818608E-02  0.1264768E+00
          2   -1    0    0  502    0  0.00000000000E+00  0.00000000000E+00  0.18100022748E+04  0.18100022748E+04  0.00000000000E+00 0. -1.
          1   -1    0    0  501    0 -0.00000000000E+00 -0.00000000000E+00 -0.68951082070E+03  0.68951082070E+03  0.00000000000E+00 0. -1.
         25    2    1    2    0    0  0.11014020614E+03 -0.16772103052E+03 -0.26336016607E+03  0.35390370472E+03  0.12501218361E+03 0.  0.
          2    1    1    2  501    0 -0.69804141698E+02  0.76402742029E+02 -0.37240533123E+03  0.38651743547E+03  0.00000000000E+00 0. -1.
          1    1    1    2  502    0 -0.40336064443E+02  0.91318288488E+02  0.17562569514E+04  0.17590919553E+04  0.00000000000E+00 0. -1.
         22    1    3    3    0    0  0.11862313189E+03 -0.17216958820E+03 -0.27055304788E+03  0.34192508863E+03  0.00000000000E+00 0. -1.
         22    1    3    3    0    0 -0.84829257478E+01  0.44485576817E+01  0.71928818037E+01  0.11978616086E+02  0.00000000000E+00 0. -1.
</event>
<event>
 7    1  0.6122298E-006  0.5026477E+02  0.7818608E-02  0.1461260E+00
          2   -1    0    0  502    0  0.00000000000E+00  0.00000000000E+00  0.11832188302E+03  0.11832188302E+03  0.00000000000E+00 0. -1.
          1   -1    0    0  501    0 -0.00000000000E+00 -0.00000000000E+00 -0.13342878076E+04  0.13342878076E+04  0.00000000000E+00 0. -1.
         25    2    1    2    0    0  0.16442164717E+02 -0.61672839004E+01 -0.48649265457E+03  0.50260218936E+03  0.12500191051E+03 0.  0.
          2    1    1    2  501    0 -0.21172449702E+02  0.50170705064E+02 -0.83437604119E+03  0.83615115283E+03  0.00000000000E+00 0. -1.
          1    1    1    2  502    0  0.47302849849E+01 -0.44003421163E+02  0.10490277119E+03  0.11385634841E+03  0.00000000000E+00 0. -1.
         22    1    3    3    0    0 -0.91481736650E+01 -0.37535160581E+02 -0.43680897229E+03  0.43851414531E+03  0.00000000000E+00 0. -1.
         22    1    3    3    0    0  0.25590338382E+02  0.31367876680E+02 -0.49683682280E+02  0.64088044055E+02  0.00000000000E+00 0. -1.
</event>
<event>
 7    1  0.6122298E-006  0.3313158E+03  0.7818608E-02  0.1299495E+00
          2   -1    0    0  502    0  0.00000000000E+00  0.00000000000E+00  0.12187958002E+04  0.12187958002E+04  0.00000000000E+00 0. -1.
          1   -1    0    0  501    0 -0.00000000000E+00 -0.00000000000E+00 -0.18661744725E+04  0.18661744725E+04  0.00000000000E+00 0. -1.
         25    2    1    2    0    0 -0.14603659763E+03  0.29097281378E+03 -0.30650655145E+03  0.46428608576E+03  0.12499374840E+03 0.  0.
          2    1    1    2  501    0  0.12710236801E+03 -0.30762464743E+03 -0.14619302538E+04  0.14993425235E+04  0.00000000000E+00 0. -1.
          1    1    1    2  502    0  0.18934229619E+02  0.16651833654E+02  0.11210581330E+04  0.11213416635E+04  0.00000000000E+00 0. -1.
         22    1    3    3    0    0 -0.32087051053E+02  0.19523155187E+03 -0.19956070182E+03  0.28101496651E+03  0.00000000000E+00 0. -1.
         22    1    3    3    0    0 -0.11394954658E+03  0.95741261910E+02 -0.10694584963E+03  0.18327111925E+03  0.00000000000E+00 0. -1.
</event>
<event>
 7    1  0.6122298E-006  0.1439361E+03  0.7818608E-02  0.1294035E+00
          2   -1    0    0  502    0  0.00000000000E+00  0.00000000000E+00  0.70835995197E+02  0.70835995197E+02  0.00000000000E+00 0. -1.
          1   -1    0    0  501    0 -0.00000000000E+00 -0.00000000000E+00 -0.22093052569E+04  0.22093052569E+04  0.00000000000E+00 0. -1.
         25    2    1    2    0    0 -0.15248373999E+03 -0.11629019532E+03 -0.45365233872E+03  0.50813373506E+03  0.12499899114E+03 0.  0.
          2    1    1    2  501    0  0.92695961036E+02  0.10393062936E+03 -0.17027037192E+04  0.17083893211E+04  0.00000000000E+00 0. -1.
          1    1    1    2  502    0  0.59787778954E+02  0.12359565953E+02  0.17886796211E+02  0.63618195994E+02  0.00000000000E+00 0. -1.
         22    1    3    3    0    0 -0.17117122858E+01 -0.30323457321E+01  0.83943735862E+01  0.90879363715E+01  0.00000000000E+00 0.  1.
         22    1    3    3    0    0 -0.15077202770E+03 -0.11325784958E+03 -0.46204671231E+03  0.49904579869E+03  0.00000000000E+00 0.  1.
</event>
<event>
 7    1  0.6122298E-006  0.4347966E+02  0.7818608E-02  0.1506954E+00
          2   -1    0    0  502    0  0.00000000000E+00  0.00000000000E+00  0.68522054424E+03  0.68522054424E+03  0.00000000000E+00 0. -1.
          1   -1    0    0  501    0 -0.00000000000E+00 -0.00000000000E+00 -0.25543413545E+03  0.25543413545E+03  0.00000000000E+00 0. -1.
         25    2    1    2    0    0 -0.67332943089E+02  0.42269934968E+01  0.15986108602E+03  0.21385442380E+03  0.12500622006E+03 0.  0.
          2    1    1    2  501    0  0.31555996708E+02  0.19538154183E+02 -0.22599553367E+03  0.22902292819E+03  0.00000000000E+00 0. -1.
          1    1    1    2  502    0  0.35776946382E+02 -0.23765147679E+02  0.49592085643E+03  0.49777732771E+03  0.00000000000E+00 0. -1.
         22    1    3    3    0    0 -0.21615806564E+02 -0.24637374063E+02 -0.11055608968E+02  0.34590024339E+02  0.00000000000E+00 0. -1.
         22    1    3    3    0    0 -0.45717136525E+02  0.28864367559E+02  0.17091669499E+03  0.17926439946E+03  0.00000000000E+00 0. -1.
</event>
<event>
 7    1  0.6122298E-006  0.5755053E+02  0.7818608E-02  0.1463117E+00
          2   -1    0    0  502    0  0.00000000000E+00  0.00000000000E+00  0.25071469572E+04  0.25071469572E+04  0.00000000000E+00 0. -1.
          1   -1    0    0  501    0 -0.00000000000E+00 -0.00000000000E+00 -0.58610618110E+02  0.58610618110E+02  0.00000000000E+00 0. -1.
         25    2    1    2    0    0  0.93867452428E+02  0.92415130434E+01  0.15992434412E+04  0.16068921210E+04  0.12500480016E+03 0.  0.
          2    1    1    2  501    0 -0.55858183734E+02 -0.12370548494E+02 -0.39328849570E+02  0.69425683782E+02  0.00000000000E+00 0. -1.
          1    1    1    2  502    0 -0.38009268694E+02  0.31290354503E+01  0.88862174745E+03  0.88943977054E+03  0.00000000000E+00 0. -1.
         22    1    3    3    0    0  0.11524103003E+03  0.59493664858E+01  0.90702469695E+03  0.91433565546E+03  0.00000000000E+00 0. -1.
         22    1    3    3    0    0 -0.21373577603E+02  0.32921465576E+01  0.69221874424E+03  0.69255646551E+03  0.00000000000E+00 0. -1.
</event>
<event>
 7    1  0.6122298E-006  0.1718996E+03  0.7818608E-02  0.1265274E+00
          2   -1    0    0  502    0  0.00000000000E+00  0.00000000000E+00  0.28224232384E+03  0.28224232384E+03  0.00000000000E+00 0. -1.
          1   -1    0    0  501    0 -0.00000000000E+00 -0.00000000000E+00 -0.29174642819E+03  0.29174642819E+03  0.00000000000E+00 0. -1.
         25    2    1    2    0    0 -0.13539038653E+03  0.89072057445E+02  0.24480274016E+02  0.20612796560E+03  0.12500026481E+03 0.  0.
          2    1    1    2  501    0  0.17524867590E+03 -0.34938123342E+02 -0.15030981127E+03  0.23350762349E+03  0.00000000000E+00 0. -1.
          1    1    1    2  502    0 -0.39858289363E+02 -0.54133934104E+02  0.11632543290E+03  0.13435316294E+03  0.00000000000E+00 0. -1.
         22    1    3    3    0    0 -0.10648242505E+03  0.14932988790E+02  0.55154501572E+02  0.12084502490E+03  0.00000000000E+00 0. -1.
         22    1    3    3    0    0 -0.28907961484E+02  0.74139068655E+02 -0.30674227556E+02  0.85282940700E+02  0.00000000000E+00 0. -1.
</event>
<event>
 7    1  0.8021425E-006  0.1151789E+03  0.7818608E-02  0.1321497E+00
          2   -1    0    0  502    0  0.00000000000E+00  0.00000000000E+00  0.11632166223E+04  0.11632166223E+04  0.00000000000E+00 0. -1.
          1   -1    0    0  501    0 -0.00000000000E+00 -0.00000000000E+00 -0.91298522318E+03  0.91298522318E+03  0.00000000000E+00 0. -1.
         25    2    1    2    0    0 -0.59986598136E+02 -0.21151936378E+02 -0.23252527517E+03  0.27154485472E+03  0.12499123234E+03 0.  0.
          2    1    1    2  501    0 -0.30737963497E+02 -0.50843014294E+02 -0.65667344267E+03  0.65935562848E+03  0.00000000000E+00 0. -1.
          1    1    1    2  502    0  0.90724561633E+02  0.71994950672E+02  0.11394301170E+04  0.11453013623E+04  0.00000000000E+00 0. -1.
         22    1    3    3    0    0  0.15925223667E+02  0.22427575058E+02 -0.52588764009E+01  0.28004725545E+02  0.00000000000E+00 0. -1.
         22    1    3    3    0    0 -0.75911821803E+02 -0.43579511437E+02 -0.22726639877E+03  0.24354012917E+03  0.00000000000E+00 0. -1.
</event>
<event>
 7    1  0.6122298E-006  0.1332928E+03  0.7818608E-02  0.1262427E+00
          2   -1    0    0  502    0  0.00000000000E+00  0.00000000000E+00  0.65763227925E+03  0.65763227925E+03  0.00000000000E+00 0. -1.
          1   -1    0    0  501    0 -0.00000000000E+00 -0.00000000000E+00 -0.11185330351E+04  0.11185330351E+04  0.00000000000E+00 0. -1.
         25    2    1    2    0    0  0.25084895693E+02  0.46229403319E+02  0.12881295057E+03  0.18702973505E+03  0.12498374229E+03 0.  0.
          2    1    1    2  501    0 -0.14689681024E+02 -0.13476135797E+03 -0.10811828270E+04  0.10896479779E+04  0.00000000000E+00 0. -1.
          1    1    1    2  502    0 -0.10395214669E+02  0.88531954652E+02  0.49146912057E+03  0.49948760141E+03  0.00000000000E+00 0. -1.
         22    1    3    3    0    0 -0.24438061806E+02 -0.21138019312E+02 -0.13343140109E+01  0.32339064908E+02  0.00000000000E+00 0.  1.
         22    1    3    3    0    0  0.49522957499E+02  0.67367422631E+02  0.13014726458E+03  0.15469067014E+03  0.00000000000E+00 0.  1.
</event>
<event>
 7    1  0.6122298E-006  0.6496818E+02  0.7818608E-02  0.1446542E+00
          2   -1    0    0  502    0  0.00000000000E+00  0.00000000000E+00  0.39927218556E+03  0.39927218556E+03  0.00000000000E+00 0. -1.
          1   -1    0    0  501    0 -0.00000000000E+00 -0.00000000000E+00 -0.14574492144E+04  0.14574492144E+04  0.00000000000E+00 0. -1.
         25    2    1    2    0    0 -0.97302086789E+01  0.55843958130E+02 -0.84935386877E+02  0.16140231510E+03  0.12499385087E+03 0.  0.
          2    1    1    2  501    0  0.46546070882E+02 -0.45883405473E+02 -0.13324698725E+04  0.13340718814E+04  0.00000000000E+00 0. -1.
          1    1    1    2  502    0 -0.36815862203E+02 -0.99605526566E+01  0.35922823059E+03  0.36124720341E+03  0.00000000000E+00 0. -1.
         22    1    3    3    0    0  0.45201596652E+02  0.35706327144E+02 -0.85259650641E+02  0.10289477229E+03  0.00000000000E+00 0. -1.
         22    1    3    3    0    0 -0.54931805331E+02  0.20137630986E+02  0.32426376476E+00  0.58507542810E+02  0.00000000000E+00 0. -1.
</event>
<event>
 7    1  0.6122298E-006  0.2679501E+03  0.7818608E-02  0.1174094E+00
          2   -1    0    0  502    0  0.00000000000E+00  0.00000000000E+00  0.17836479810E+04  0.17836479810E+04  0.00000000000E+00 0. -1.
          1   -1    0    0  501    0 -0.00000000000E+00 -0.00000000000E+00 -0.33847903375E+03  0.33847903375E+03  0.00000000000E+00 0. -1.
         25    2    1    2    0    0  0.13914978198E+03 -0.92319553401E+02  0.54765625820E+03  0.58603560017E+03  0.12499914301E+03 0.  0.
          2    1    1    2  501    0 -0.24042915824E+03  0.14138294662E+03 -0.25510874007E+03  0.37798913607E+03  0.00000000000E+00 0. -1.
          1    1    1    2  502    0  0.10127937626E+03 -0.49063393223E+02  0.11526214291E+04  0.11581022785E+04  0.00000000000E+00 0. -1.
         22    1    3    3    0    0  0.10628844668E+03 -0.15767793013E+02  0.18506597435E+03  0.21399829919E+03  0.00000000000E+00 0.  1.
         22    1    3    3    0    0  0.32861335303E+02 -0.76551760387E+02  0.36259028385E+03  0.37203730098E+03  0.00000000000E+00 0.  1.
</event>
<event>
 7    1  0.6122298E-006  0.8313647E+02  0.7818608E-02  0.1394118E+00
          2   -1    0    0  502    0  0.00000000000E+00  0.00000000000E+00  0.70317891776E+03  0.70317891776E+03  0.00000000000E+00 0. -1.
          1   -1    0    0  501    0 -0.00000000000E+00 -0.00000000000E+00 -0.51881650320E+03  0.51881650320E+03  0.00000000000E+00 0. -1.
         25    2    1    2    0    0 -0.20629407624E+02  0.53191304409E+02 -0.20004964512E+03  0.24269197286E+03  0.12499858341E+03 0.  0.
          2    1    1    2  501    0  0.76219214687E+00 -0.93124559622E+02 -0.28940091737E+03  0.30401588037E+03  0.00000000000E+00 0. -1.
          1    1    1    2  502    0  0.19867215477E+02  0.39933255213E+02  0.67381297704E+03  0.67528756775E+03  0.00000000000E+00 0. -1.
         22    1    3    3    0    0  0.50565665585E+00  0.55551979808E+02 -0.21140578069E+03  0.21858335312E+03  0.00000000000E+00 0. -1.
         22    1    3    3    0    0 -0.21135064280E+02 -0.23606753987E+01  0.11356135577E+02  0.24108619739E+02  0.00000000000E+00 0. -1.
</event>
<event>
 7    1  0.6122298E-006  0.9290657E+02  0.7818608E-02  0.1330981E+00
          2   -1    0    0  502    0  0.00000000000E+00  0.00000000000E+00  0.13262530032E+04  0.13262530032E+04  0.00000000000E+00 0. -1.
          1   -1    0    0  501    0 -0.00000000000E+00 -0.00000000000E+00 -0.26182681717E+03  0.26182681717E+03  0.00000000000E+00 0. -1.
         25    2    1    2    0    0  0.12277729311E+02 -0.13012867306E+03  0.37965571547E+02  0.18479929624E+03  0.12500072431E+03 0.  0.
          2    1    1    2  501    0 -0.51244614747E+02  0.74734164485E+02 -0.17650668775E+03  0.19840820725E+03  0.00000000000E+00 0. -1.
          1    1    1    2  502    0  0.38966885435E+02  0.55394508577E+02  0.12029673022E+04  0.12048723169E+04  0.00000000000E+00 0. -1.
         22    1    3    3    0    0 -0.26400327522E+02 -0.13821879487E+03  0.23208299827E+02  0.14261850417E+03  0.00000000000E+00 0. -1.
         22    1    3    3    0    0  0.38678056834E+02  0.80901218112E+01  0.14757271720E+02  0.42180792074E+02  0.00000000000E+00 0. -1.
</event>
<event>
 7    1  0.6122298E-006  0.2273797E+02  0.7818608E-02  0.1699693E+00
          2   -1    0    0  502    0  0.00000000000E+00  0.00000000000E+00  0.71885152960E+02  0.71885152960E+02  0.00000000000E+00 0. -1.
          1   -1    0    0  501    0 -0.00000000000E+00 -0.00000000000E+00 -0.53006947001E+03  0.53006947001E+03  0.00000000000E+00 0. -1.
         25    2    1    2    0    0  0.83931521685E+00 -0.29286654220E+01 -0.50579174264E+02  0.13488678298E+03  0.12500763905E+03 0.  0.
          2    1    1    2  501    0 -0.16155640913E+02 -0.15329021673E+02 -0.43222776853E+03  0.43280114086E+03  0.00000000000E+00 0. -1.
          1    1    1    2  502    0  0.15316325696E+02  0.18257687095E+02  0.24622625746E+02  0.34266699133E+02  0.00000000000E+00 0. -1.
         22    1    3    3    0    0  0.59808539902E+01  0.60771889204E+02 -0.26995861424E+02  0.66766531031E+02  0.00000000000E+00 0.  1.
         22    1    3    3    0    0 -0.51415387734E+01 -0.63700554626E+02 -0.23583312841E+02  0.68120251946E+02  0.00000000000E+00 0.  1.
</event>
<event>
 7    1  0.6122298E-006  0.9588479E+02  0.7818608E-02  0.1439941E+00
          2   -1    0    0  502    0  0.00000000000E+00  0.00000000000E+00  0.65455273520E+03  0.65455273520E+03  0.00000000000E+00 0. -1.
          1   -1    0    0  501    0 -0.00000000000E+00 -0.00000000000E+00 -0.14582305879E+03  0.14582305879E+03  0.00000000000E+00 0. -1.
         25    2    1    2    0    0 -0.72199948276E+02 -0.13301731337E+02  0.40342945285E+03  0.42868398941E+03  0.12499948304E+03 0.  0.
          2    1    1    2  501    0  0.91202809154E+02  0.32682467876E+02 -0.11463337495E+03  0.15008966239E+03  0.00000000000E+00 0. -1.
          1    1    1    2  502    0 -0.19002860878E+02 -0.19380736539E+02  0.21993359851E+03  0.22160214219E+03  0.00000000000E+00 0. -1.
         22    1    3    3    0    0 -0.90458351625E+01  0.49569852650E+02  0.20602360791E+03  0.21209602647E+03  0.00000000000E+00 0. -1.
         22    1    3    3    0    0 -0.63154113114E+02 -0.62871583987E+02  0.19740584494E+03  0.21658796295E+03  0.00000000000E+00 0. -1.
</event>
<event>
 7    1  0.6122298E-006  0.8320504E+02  0.7818608E-02  0.1343343E+00
          2   -1    0    0  502    0  0.00000000000E+00  0.00000000000E+00  0.97196173569E+03  0.97196173569E+03  0.00000000000E+00 0. -1.
          1   -1    0    0  501    0 -0.00000000000E+00 -0.00000000000E+00 -0.70219618193E+02  0.70219618193E+02  0.00000000000E+00 0. -1.
         25    2    1    2    0    0  0.13558894964E+03 -0.49388843368E+02  0.21443381870E+03  0.28710628025E+03  0.12499812976E+03 0.  0.
          2    1    1    2  501    0 -0.57132308639E+02  0.36714682195E+02  0.49371096697E+01  0.68091435813E+02  0.00000000000E+00 0. -1.
          1    1    1    2  502    0 -0.78456641003E+02  0.12674161172E+02  0.68237118913E+03  0.68698363782E+03  0.00000000000E+00 0. -1.
         22    1    3    3    0    0  0.82206050919E+01 -0.96272138790E+01  0.12689139770E+03  0.12752132529E+03  0.00000000000E+00 0.  1.
         22    1    3    3    0    0  0.12736834455E+03 -0.39761629489E+02  0.87542420999E+02  0.15958495495E+03  0.00000000000E+00 0.  1.
</event>
<event>
 7    1  0.6122298E-006  0.3435425E+02  0.7818608E-02  0.1582609E+00
          2   -1    0    0  502    0  0.00000000000E+00  0.00000000000E+00  0.70900762927E+03  0.70900762927E+03  0.00000000000E+00 0. -1.
          1   -1    0    0  501    0 -0.00000000000E+00 -0.00000000000E+00 -0.52584568959E+02  0.52584568959E+02  0.00000000000E+00 0. -1.
         25    2    1    2    0    0  0.18223989098E+01  0.10803264799E+02  0.60415418882E+03  0.61704661537E+03  0.12499683996E+03 0.  0.
          2    1    1    2  501    0 -0.11899209362E+02  0.32227674154E+02 -0.33547762442E+02  0.48017356546E+02  0.00000000000E+00 0. -1.
          1    1    1    2  502    0  0.10076810453E+02 -0.43030938953E+02  0.85816633936E+02  0.96528226318E+02  0.00000000000E+00 0. -1.
         22    1    3    3    0    0 -0.54376867452E+02  0.34591638857E+02  0.30840381203E+03  0.31506560661E+03  0.00000000000E+00 0. -1.
         22    1    3    3    0    0  0.56199266362E+02 -0.23788374058E+02  0.29575037679E+03  0.30198100876E+03  0.00000000000E+00 0. -1.
</event>
<event>
 7    1  0.6122298E-006  0.1502034E+03  0.7818608E-02  0.1332537E+00
          2   -1    0    0  502    0  0.00000000000E+00  0.00000000000E+00  0.85679571224E+03  0.85679571224E+03  0.00000000000E+00 0. -1.
          1   -1    0    0  501    0 -0.00000000000E+00 -0.00000000000E+00 -0.35842905264E+03  0.35842905264E+03  0.00000000000E+00 0. -1.
         25    2    1    2    0    0  0.67996856954E+02  0.10993340805E+03 -0.85333611727E+01  0.18002559434E+03  0.12500987802E+03 0.  0.
          2    1    1    2  501    0 -0.10926193246E+03 -0.11213340722E+03 -0.24032939336E+03  0.28682797669E+03  0.00000000000E+00 0. -1.
          1    1    1    2  502    0  0.41265075508E+02  0.21999991666E+01  0.74722941413E+03  0.74837119385E+03  0.00000000000E+00 0. -1.
         22    1    3    3    0    0  0.61641623935E+02  0.89402108429E+02  0.48608354822E+02  0.11897562335E+03  0.00000000000E+00 0. -1.
         22    1    3    3    0    0  0.63552330185E+01  0.20531299622E+02 -0.57141715994E+02  0.61049970988E+02  0.00000000000E+00 0. -1.
</event>
<event>
 7    1  0.6122298E-006  0.1138057E+03  0.7818608E-02  0.1264838E+00
          2   -1    0    0  502    0  0.00000000000E+00  0.00000000000E+00  0.10792163112E+04  0.10792163112E+04  0.00000000000E+00 0. -1.
          1   -1    0    0  501    0 -0.00000000000E+00 -0.00000000000E+00 -0.12815917927E+04  0.12815917927E+04  0.00000000000E+00 0. -1.
         25    2    1    2    0    0 -0.19434640973E+03 -0.36023592534E+02  0.39396638222E+03  0.45815713953E+03  0.12502091020E+03 0.  0.
          2    1    1    2  501    0  0.11106485181E+03 -0.22820177073E+02 -0.12429200344E+04  0.12480810766E+04  0.00000000000E+00 0. -1.
          1    1    1    2  502    0  0.83281557919E+02  0.58843769607E+02  0.64657817069E+03  0.65456988773E+03  0.00000000000E+00 0. -1.
         22    1    3    3    0    0 -0.88412208131E+02  0.46062873777E+02  0.17671054856E+03  0.20289190437E+03  0.00000000000E+00 0.  1.
         22    1    3    3    0    0 -0.10593420160E+03 -0.82086466311E+02  0.21725583366E+03  0.25526523516E+03  0.00000000000E+00 0.  1.
</event>
<event>
 7    1  0.6122298E-006  0.6967360E+02  0.7818608E-02  0.1492697E+00
          2   -1    0    0  502    0  0.00000000000E+00  0.00000000000E+00  0.34433207190E+03  0.34433207190E+03  0.00000000000E+00 0. -1.
          1   -1    0    0  501    0 -0.00000000000E+00 -0.00000000000E+00 -0.12033608970E+04  0.12033608970E+04  0.00000000000E+00 0. -1.
         25    2    1    2    0    0 -0.12044826956E+02  0.94038893196E+02 -0.76179408005E+03  0.77778117185E+03  0.12499975837E+03 0.  0.
          2    1    1    2  501    0  0.65082582977E+01 -0.24703038385E+02 -0.42959360425E+03  0.43035248616E+03  0.00000000000E+00 0. -1.
          1    1    1    2  502    0  0.55365686582E+01 -0.69335854811E+02  0.33235885918E+03  0.33955931092E+03  0.00000000000E+00 0. -1.
         22    1    3    3    0    0  0.40054050318E+02  0.62559358690E+02 -0.60570383588E+03  0.61024186771E+03  0.00000000000E+00 0.  1.
         22    1    3    3    0    0 -0.52098877274E+02  0.31479534506E+02 -0.15609024417E+03  0.16753930414E+03  0.00000000000E+00 0.  1.
</event>
<event>
 7    1  0.6122298E-006  0.1225614E+03  0.7818608E-02  0.1435564E+00
          2   -1    0    0  502    0  0.00000000000E+00  0.00000000000E+00  0.18348933886E+04  0.18348933886E+04  0.00000000000E+00 0. -1.
          1   -1    0    0  501    0 -0.00000000000E+00 -0.00000000000E+00 -0.51694356181E+02  0.51694356181E+02  0.00000000000E+00 0. -1.
         25    2    1    2    0    0 -0.64974224608E+02  0.82820889648E+02  0.23873636442E+03  0.28931091732E+03  0.12499922224E+03 0.  0.
          2    1    1    2  501    0 -0.20728898935E+02  0.71979507385E+01 -0.18912563780E+02  0.28968652275E+02  0.00000000000E+00 0. -1.
          1    1    1    2  502    0  0.85703123543E+02 -0.90018840386E+02  0.15633752318E+04  0.15683081752E+04  0.00000000000E+00 0. -1.
         22    1    3    3    0    0  0.24512286884E+02  0.16084496596E+02  0.13074836524E+03  0.13399514265E+03  0.00000000000E+00 0. -1.
         22    1    3    3    0    0 -0.89486511492E+02  0.66736393052E+02  0.10798799917E+03  0.15531577467E+03  0.00000000000E+00 0. -1.
</event>
<event>
 7    1  0.6122298E-006  0.7004646E+02  0.7818608E-02  0.1398891E+00
          2   -1    0    0  502    0  0.00000000000E+00  0.00000000000E+00  0.25331013642E+04  0.25331013642E+04  0.00000000000E+00 0. -1.
          1   -1    0    0  501    0 -0.00000000000E+00 -0.00000000000E+00 -0.30667971599E+02  0.30667971599E+02  0.00000000000E+00 0. -1.
         25    2    1    2    0    0 -0.75438890486E+01  0.72059870808E+02  0.45831644883E+03  0.48055088756E+03  0.12500261208E+03 0.  0.
          2    1    1    2  501    0  0.48867113397E+02 -0.14468369475E+02  0.15366708969E+02  0.53230294303E+02  0.00000000000E+00 0. -1.
          1    1    1    2  502    0 -0.41323224349E+02 -0.57591501334E+02  0.20287502348E+04  0.20299881539E+04  0.00000000000E+00 0. -1.
         22    1    3    3    0    0  0.36306256468E+02 -0.19694340163E+02  0.10314899902E+03  0.11111132837E+03  0.00000000000E+00 0.  1.
         22    1    3    3    0    0 -0.43850145517E+02  0.91754210971E+02  0.35516744980E+03  0.36943955919E+03  0.00000000000E+00 0.  1.
</event>
<event>
 7    1  0.6122298E-006  0.1231318E+03  0.7818608E-02  0.1312875E+00
          2   -1    0    0  502    0  0.00000000000E+00  0.00000000000E+00  0.60679285818E+03  0.60679285818E+03  0.00000000000E+00 0. -1.
          1   -1    0    0  501    0 -0.00000000000E+00 -0.00000000000E+00 -0.97996889871E+03  0.97996889871E+03  0.00000000000E+00 0. -1.
         25    2    1    2    0    0 -0.78988074616E+02 -0.13415830163E+03 -0.21871394539E+03  0.29613865227E+03  0.12499898252E+03 0.  0.
          2    1    1    2  501    0  0.58548140961E+02  0.13325550242E+02 -0.71465963819E+03  0.71717770013E+03  0.00000000000E+00 0. -1.
          1    1    1    2  502    0  0.20439933655E+02  0.12083275139E+03  0.56019754305E+03  0.57344540450E+03  0.00000000000E+00 0. -1.
         22    1    3    3    0    0 -0.73905832260E+02 -0.80882007581E+02 -0.52443244573E+02  0.12146713586E+03  0.00000000000E+00 0.  1.
         22    1    3    3    0    0 -0.50822423555E+01 -0.53276294049E+02 -0.16627070081E+03  0.17467151641E+03  0.00000000000E+00 0.  1.
</event>
<event>
 7    1  0.6122298E-006  0.5976876E+02  0.7818608E-02  0.1470002E+00
          2   -1    0    0  502    0  0.00000000000E+00  0.00000000000E+00  0.65635244307E+03  0.65635244307E+03  0.00000000000E+00 0. -1.
          1   -1    0    0  501    0 -0.00000000000E+00 -0.00000000000E+00 -0.32862498049E+04  0.32862498049E+04  0.00000000000E+00 0. -1.
         25    2    1    2    0    0 -0.55174009003E+02  0.32944925990E+01  0.13875772171E+03  0.19476508485E+03  0.12499883196E+03 0.  0.
          2    1    1    2  501    0  0.46794230900E+02 -0.37221793436E+02 -0.32573477809E+04  0.32578965189E+04  0.00000000000E+00 0. -1.
          1    1    1    2  502    0  0.83797781020E+01  0.33927300837E+02  0.48869269736E+03  0.48994064424E+03  0.00000000000E+00 0. -1.
         22    1    3    3    0    0 -0.91268567530E+02  0.24387928255E+02  0.89190983521E+02  0.12992210745E+03  0.00000000000E+00 0. -1.
         22    1    3    3    0    0  0.36094558527E+02 -0.21093435656E+02  0.49566738189E+02  0.64842977398E+02  0.00000000000E+00 0. -1.
</event>
<event>
 7    1  0.6122298E-006  0.1093374E+03  0.7818608E-02  0.1298223E+00
          2   -1    0    0  502    0  0.00000000000E+00  0.00000000000E+00  0.10917705640E+04  0.10917705640E+04  0.00000000000E+00 0. -1.
          1   -1    0    0  501    0 -0.00000000000E+00 -0.00000000000E+00 -0.38589895948E+03  0.38589895948E+03  0.00000000000E+00 0. -1.
         25    2    1    2    0    0 -0.85584247469E+02  0.94272899315E+02  0.71087629375E+02  0.19207114582E+03  0.12500332414E+03 0.  0.
          2    1    1    2  501    0  0.10788091039E+03 -0.20248760202E+02 -0.31453461127E+03  0.33313709611E+03  0.00000000000E+00 0. -1.
          1    1    1    2  502    0 -0.22296662917E+02 -0.74024139114E+02  0.94931858644E+03  0.95246128158E+03  0.00000000000E+00 0. -1.
         22    1    3    3    0    0 -0.77480199358E+02  0.18933964501E+02 -0.10818509389E+02  0.80490474280E+02  0.00000000000E+00 0.  1.
         22    1    3    3    0    0 -0.81040481108E+01  0.75338934814E+02  0.81906138764E+02  0.11158067154E+03  0.00000000000E+00 0.  1.
</event>
<event>
 7    1  0.6122298E-006  0.8026565E+02  0.7818608E-02  0.1437508E+00
          2   -1    0    0  502    0  0.00000000000E+00  0.00000000000E+00  0.28694301042E+02  0.28694301042E+02  0.00000000000E+00 0. -1.
          1   -1    0    0  501    0 -0.00000000000E+00 -0.00000000000E+00 -0.21924897479E+04  0.21924897479E+04  0.00000000000E+00 0. -1.
         25    2    1    2    0    0 -0.77559442295E+02 -0.18932933700E+02 -0.37808539066E+03  0.40613702957E+03  0.12499920433E+03 0.  0.
          2    1    1    2  501    0  0.12332185542E+02 -0.30630970209E+02 -0.16845601255E+04  0.16848837216E+04  0.00000000000E+00 0. -1.
          1    1    1    2  502    0  0.65227256753E+02  0.49563903909E+02 -0.10114993077E+03  0.13016329778E+03  0.00000000000E+00 0. -1.
         22    1    3    3    0    0 -0.16504654766E+02  0.36902308261E+02 -0.25271079235E+03  0.25592367720E+03  0.00000000000E+00 0. -1.
         22    1    3    3    0    0 -0.61054787529E+02 -0.55835241961E+02 -0.12537459832E+03  0.15021335236E+03  0.00000000000E+00 0. -1.
</event>
<event>
 7    1  0.6122298E-006  0.6466769E+02  0.7818608E-02  0.1396162E+00
          2   -1    0    0  502    0  0.00000000000E+00  0.00000000000E+00  0.15988064230E+04  0.15988064230E+04  0.00000000000E+00 0. -1.
          1   -1    0    0  501    0 -0.00000000000E+00 -0.00000000000E+00 -0.25624294029E+02  0.25624294029E+02  0.00000000000E+00 0. -1.
         25    2    1    2    0    0 -0.15384036737E+01 -0.14250700527E+02  0.26420029218E+03  0.29262746997E+03  0.12499437043E+03 0.  0.
          2    1    1    2  501    0 -0.40248521090E+02 -0.39528913560E+02  0.65446958506E+02  0.86404761644E+02  0.00000000000E+00 0. -1.
          1    1    1    2  502    0  0.41786924764E+02  0.53779614087E+02  0.12435348782E+04  0.12453984854E+04  0.00000000000E+00 0. -1.
         22    1    3    3    0    0 -0.13810864389E+02 -0.66018567951E+02  0.10522486976E+03  0.12498585722E+03  0.00000000000E+00 0.  1.
         22    1    3    3    0    0  0.12272460716E+02  0.51767867424E+02  0.15897542243E+03  0.16764161275E+03  0.00000000000E+00 0.  1.
</event>
<event>
 7    1  0.6122298E-006  0.1152191E+03  0.7818608E-02  0.1389858E+00
          2   -1    0    0  502    0  0.00000000000E+00  0.00000000000E+00  0.83462935979E+03  0.83462935979E+03  0.00000000000E+00 0. -1.
          1   -1    0    0  501    0 -0.00000000000E+00 -0.00000000000E+00 -0.94942770861E+02  0.94942770861E+02  0.00000000000E+00 0. -1.
         25    2    1    2    0    0  0.80844824710E+02  0.84038787437E+02  0.23102452826E+03  0.28739399702E+03  0.12499829355E+03 0.  0.
          2    1    1    2  501    0  0.19767461198E+02 -0.26798362522E+02 -0.56337182915E+02  0.65442974679E+02  0.00000000000E+00 0. -1.
          1    1    1    2  502    0 -0.10061228591E+03 -0.57240424916E+02  0.56499924358E+03  0.57673515895E+03  0.00000000000E+00 0. -1.
         22    1    3    3    0    0  0.47318345100E+02  0.10201430340E+03  0.22113851528E+03  0.24808907034E+03  0.00000000000E+00 0. -1.
         22    1    3    3    0    0  0.33526479610E+02 -0.17975515958E+02  0.98860129792E+01  0.39304926684E+02  0.00000000000E+00 0. -1.
</event>
<event>
 7    1  0.6122298E-006  0.1429056E+03  0.7818608E-02  0.1353255E+00
          2   -1    0    0  502    0  0.00000000000E+00  0.00000000000E+00  0.23328225468E+04  0.23328225468E+04  0.00000000000E+00 0. -1.
          1   -1    0    0  501    0 -0.00000000000E+00 -0.00000000000E+00 -0.13128850818E+03  0.13128850818E+03  0.00000000000E+00 0. -1.
         25    2    1    2    0    0  0.13115281640E+03  0.54276374532E+02  0.31624409263E+03  0.36848641820E+03  0.12499971277E+03 0.  0.
          2    1    1    2  501    0 -0.16762556572E+02  0.32228258531E+02 -0.99363676152E+02  0.10579595498E+03  0.00000000000E+00 0. -1.
          1    1    1    2  502    0 -0.11439025983E+03 -0.86504633063E+02  0.19846536222E+04  0.19898286818E+04  0.00000000000E+00 0. -1.
         22    1    3    3    0    0  0.12325990895E+03  0.85891953104E+02  0.21623226490E+03  0.26329987685E+03  0.00000000000E+00 0. -1.
         22    1    3    3    0    0  0.78929074448E+01 -0.31615578572E+02  0.10001182773E+03  0.10518654136E+03  0.00000000000E+00 0. -1.
</event>
<event>
 7    1  0.6122298E-006  0.1199088E+03  0.7818608E-02  0.1392008E+00
          2   -1    0    0  502    0  0.00000000000E+00  0.00000000000E+00  0.13325923971E+04  0.13325923971E+04  0.00000000000E+00 0. -1.
          1   -1    0    0  501    0 -0.00000000000E+00 -0.00000000000E+00 -0.99007742209E+03  0.99007742209E+03  0.00000000000E+00 0. -1.
         25    2    1    2    0    0 -0.19895283095E+02 -0.87894780009E+02  0.47471939146E+02  0.16124362572E+03  0.12499842874E+03 0.  0.
          2    1    1    2  501    0 -0.42935724286E+01 -0.31156113722E+02 -0.92992113567E+03  0.93045282349E+03  0.00000000000E+00 0. -1.
          1    1    1    2  502    0  0.24188855523E+02  0.11905089373E+03  0.12249641715E+04  0.12309733700E+04  0.00000000000E+00 0. -1.
         22    1    3    3    0    0  0.33925342066E+02 -0.14185260692E+02  0.58722310774E+02  0.69285353704E+02  0.00000000000E+00 0.  1.
         22    1    3    3    0    0 -0.53820625161E+02 -0.73709519318E+02 -0.11250371628E+02  0.91958272018E+02  0.00000000000E+00 0.  1.
</event>
<event>
 7    1  0.6122298E-006  0.1442698E+03  0.7818608E-02  0.1283156E+00
          2   -1    0    0  502    0  0.00000000000E+00  0.00000000000E+00  0.27707066438E+04  0.27707066438E+04  0.00000000000E+00 0. -1.
          1   -1    0    0  501    0 -0.00000000000E+00 -0.00000000000E+00 -0.48397455081E+03  0.48397455081E+03  0.00000000000E+00 0. -1.
         25    2    1    2    0    0  0.11967344370E+03  0.94074898812E+02  0.21969576959E+03  0.29506447028E+03  0.12499996294E+03 0.  0.
          2    1    1    2  501    0 -0.62741652413E+02 -0.13026160374E+03 -0.43411327077E+03  0.45755757257E+03  0.00000000000E+00 0. -1.
          1    1    1    2  502    0 -0.56931791288E+02  0.36186704925E+02  0.25011495941E+04  0.25020591517E+04  0.00000000000E+00 0. -1.
         22    1    3    3    0    0  0.86994138291E+01 -0.19824471778E+02  0.81684482239E+02  0.84504698810E+02  0.00000000000E+00 0. -1.
         22    1    3    3    0    0  0.11097402987E+03  0.11389937059E+03  0.13801128735E+03  0.21055977147E+03  0.00000000000E+00 0. -1.
</event>
<event>
 7    1  0.6122298E-006  0.5288490E+02  0.7818608E-02  0.1433435E+00
          2   -1    0    0  502    0  0.00000000000E+00  0.00000000000E+00  0.28413289048E+03  0.28413289048E+03  0.00000000000E+00 0. -1.
          1   -1    0    0  501    0 -0.00000000000E+00 -0.00000000000E+00 -0.37180165059E+03  0.37180165059E+03  0.00000000000E+00 0. -1.
         25    2    1    2    0    0 -0.46250027315E+02  0.36364666294E+02 -0.10110530145E+03  0.17116400148E+03  0.12495350911E+03 0.  0.
          2    1    1    2  501    0 -0.21953314769E+01 -0.54347694656E+02 -0.22977745339E+03  0.23612744331E+03  0.00000000000E+00 0. -1.
          1    1    1    2  502    0  0.48445358792E+02  0.17983028362E+02  0.24321399473E+03  0.24864309629E+03  0.00000000000E+00 0. -1.
         22    1    3    3    0    0 -0.10619358748E+02 -0.46612964483E+02 -0.35152440059E+02  0.59339980453E+02  0.00000000000E+00 0. -1.
         22    1    3    3    0    0 -0.35630668567E+02  0.82977630776E+02 -0.65952861396E+02  0.11182402102E+03  0.00000000000E+00 0. -1.
</event>
<event>
 7    1  0.6122298E-006  0.2908025E+02  0.7818608E-02  0.1621928E+00
          2   -1    0    0  502    0  0.00000000000E+00  0.00000000000E+00  0.19457163310E+04  0.19457163310E+04  0.00000000000E+00 0. -1.
          1   -1    0    0  501    0 -0.00000000000E+00 -0.00000000000E+00 -0.91266427078E+02  0.91266427078E+02  0.00000000000E+00 0. -1.
         25    2    1    2    0    0 -0.12598367034E+02  0.22555752109E+02  0.11592016486E+03  0.17242311291E+03  0.12499905776E+03 0.  0.
          2    1    1    2  501    0 -0.14059398894E+02 -0.25866720696E+02 -0.59470457957E+02  0.66358792232E+02  0.00000000000E+00 0. -1.
          1    1    1    2  502    0  0.26657765928E+02  0.33109685868E+01  0.17980001970E+04  0.17982008529E+04  0.00000000000E+00 0. -1.
         22    1    3    3    0    0 -0.55952677165E+02 -0.17955318497E+02  0.90425802669E+02  0.10784211298E+03  0.00000000000E+00 0.  1.
         22    1    3    3    0    0  0.43354310131E+02  0.40511070606E+02  0.25494362188E+02  0.64580999930E+02  0.00000000000E+00 0.  1.
</event>
<event>
 7    1  0.6122298E-006  0.6643630E+02  0.7818608E-02  0.1463003E+00
          2   -1    0    0  502    0  0.00000000000E+00  0.00000000000E+00  0.64780365854E+02  0.64780365854E+02  0.00000000000E+00 0. -1.
          1   -1    0    0  501    0 -0.00000000000E+00 -0.00000000000E+00 -0.88011618525E+03  0.88011618525E+03  0.00000000000E+00 0. -1.
         25    2    1    2    0    0 -0.48367432796E+02 -0.16922132847E+02 -0.86702638431E+02  0.16052535481E+03  0.12500109956E+03 0.  0.
          2    1    1    2  501    0 -0.64731400054E+01 -0.32424209199E+02 -0.70660625230E+03  0.70737940787E+03  0.00000000000E+00 0. -1.
          1    1    1    2  502    0  0.54840572801E+02  0.49346342046E+02 -0.22026928661E+02  0.76991788424E+02  0.00000000000E+00 0. -1.
         22    1    3    3    0    0 -0.21019489127E+02 -0.57430374824E+02 -0.18461441132E+00  0.61156364821E+02  0.00000000000E+00 0.  1.
         22    1    3    3    0    0 -0.27347943669E+02  0.40508241977E+02 -0.86518024020E+02  0.99368989988E+02  0.00000000000E+00 0.  1.
</event>
<event>
 7    1  0.6122298E-006  0.6373954E+02  0.7818608E-02  0.1450838E+00
          2   -1    0    0  502    0  0.00000000000E+00  0.00000000000E+00  0.14095513773E+02  0.14095513773E+02  0.00000000000E+00 0. -1.
          1   -1    0    0  501    0 -0.00000000000E+00 -0.00000000000E+00 -0.24250833276E+04  0.24250833276E+04  0.00000000000E+00 0. -1.
         25    2    1    2    0    0 -0.39161713843E+02  0.68427904767E+02 -0.80842932409E+03  0.82182650261E+03  0.12499924147E+03 0.  0.
          2    1    1    2  501    0 -0.13694780987E+02 -0.35083297002E+02 -0.14732726097E+04  0.14737539032E+04  0.00000000000E+00 0. -1.
          1    1    1    2  502    0  0.52856494830E+02 -0.33344607765E+02 -0.12928588002E+03  0.14359843553E+03  0.00000000000E+00 0. -1.
         22    1    3    3    0    0 -0.63233626439E+02  0.83603258996E+02 -0.44058446342E+03  0.45288261817E+03  0.00000000000E+00 0.  1.
         22    1    3    3    0    0  0.24071912596E+02 -0.15175354229E+02 -0.36784486066E+03  0.36894388444E+03  0.00000000000E+00 0.  1.
</event>
<event>
 7    1  0.6122298E-006  0.4688309E+02  0.7818608E-02  0.1583465E+00
          2   -1    0    0  502    0  0.00000000000E+00  0.00000000000E+00  0.15018505889E+03  0.15018505889E+03  0.00000000000E+00 0. -1.
          1   -1    0    0  501    0 -0.00000000000E+00 -0.00000000000E+00 -0.73027006303E+02  0.73027006303E+02  0.00000000000E+00 0. -1.
         25    2    1    2    0    0  0.80290026238E+01 -0.56027998459E+02  0.49699395795E+02  0.14593893748E+03  0.12499816813E+03 0.  0.
          2    1    1    2  501    0 -0.17342518800E+02  0.11814372439E+02 -0.50822669723E+01  0.21591011834E+02  0.00000000000E+00 0. -1.
          1    1    1    2  502    0  0.93135161760E+01  0.44213626019E+02  0.32540923763E+02  0.55682115878E+02  0.00000000000E+00 0. -1.
         22    1    3    3    0    0 -0.12135190013E+02 -0.25275124755E+02  0.88288630383E+02  0.92633563155E+02  0.00000000000E+00 0.  1.
         22    1    3    3    0    0  0.20164192637E+02 -0.30752873704E+02 -0.38589234588E+02  0.53305374324E+02  0.00000000000E+00 0.  1.
</event>
<event>
 7    1  0.6122298E-006  0.6919537E+02  0.7818608E-02  0.1498751E+00
          2   -1    0    0  502    0  0.00000000000E+00  0.00000000000E+00  0.38071748703E+04  0.38071748703E+04  0.00000000000E+00 0. -1.
          1   -1    0    0  501    0 -0.00000000000E+00 -0.00000000000E+00 -0.81308373710E+02  0.81308373710E+02  0.00000000000E+00 0. -1.
         25    2    1    2    0    0  0.41459687813E+02  0.62424186916E+02  0.27918496616E+04  0.27956511494E+04  0.12500052542E+03 0.  0.
          2    1    1    2  501    0 -0.55086041706E+02 -0.41860788726E+02 -0.64155932625E+02  0.94354551107E+02  0.00000000000E+00 0. -1.
          1    1    1    2  502    0  0.13626353893E+02 -0.20563398191E+02  0.99817276763E+03  0.99847754352E+03  0.00000000000E+00 0. -1.
         22    1    3    3    0    0  0.83733869114E+02  0.26328365509E+02  0.19445006827E+04  0.19464807856E+04  0.00000000000E+00 0. -1.
         22    1    3    3    0    0 -0.42274181300E+02  0.36095821408E+02  0.84734897888E+03  0.84917036379E+03  0.00000000000E+00 0. -1.
</event>
<event>
 7    1  0.6122298E-006  0.7663359E+02  0.7818608E-02  0.1506364E+00
          2   -1    0    0  502    0  0.00000000000E+00  0.00000000000E+00  0.13275019338E+04  0.13275019338E+04  0.00000000000E+00 0. -1.
          1   -1    0    0  501    0 -0.00000000000E+00 -0.00000000000E+00 -0.35912191381E+04  0.35912191381E+04  0.00000000000E+00 0. -1.
         25    2    1    2    0    0 -0.40795681909E+02 -0.54128178439E+02  0.20536644830E+00  0.14215411181E+03  0.12495439955E+03 0.  0.
          2    1    1    2  501    0  0.28392897768E+02  0.71250710667E+02 -0.35197379882E+04  0.35205735791E+04  0.00000000000E+00 0. -1.
          1    1    1    2  502    0  0.12402784140E+02 -0.17122532227E+02  0.12558154175E+04  0.12559933809E+04  0.00000000000E+00 0. -1.
         22    1    3    3    0    0 -0.67334287177E+02 -0.61549150499E+02  0.35051847982E+02  0.97728379726E+02  0.00000000000E+00 0. -1.
         22    1    3    3    0    0  0.26538605269E+02  0.74209720599E+01 -0.34846481534E+02  0.44425732084E+02  0.00000000000E+00 0. -1.
</event>
<event>
 7    1  0.6122298E-006  0.7808980E+02  0.7818608E-02  0.1475741E+00
          2   -1    0    0  502    0  0.00000000000E+00  0.00000000000E+00  0.29323160073E+04  0.29323160073E+04  0.00000000000E+00 0. -1.
          1   -1    0    0  501    0 -0.00000000000E+00 -0.00000000000E+00 -0.15581469363E+02  0.15581469363E+02  0.00000000000E+00 0. -1.
         25    2    1    2    0    0  0.58389635966E+02  0.30823674905E+02  0.22582705625E+04  0.22626908250E+04  0.12499754996E+03 0.  0.
          2    1    1    2  501    0 -0.55246738034E+02 -0.56305415404E+02  0.10591983193E+03  0.13206631919E+03  0.00000000000E+00 0. -1.
          1    1    1    2  502    0 -0.31428979323E+01  0.25481740499E+02  0.55254414352E+03  0.55314033250E+03  0.00000000000E+00 0. -1.
         22    1    3    3    0    0  0.83799536945E+02  0.59684311629E+02  0.16228137109E+04  0.16260716220E+04  0.00000000000E+00 0.  1.
         22    1    3    3    0    0 -0.25409900980E+02 -0.28860636724E+02  0.63545685161E+03  0.63661920303E+03  0.00000000000E+00 0.  1.
</event>
<event>
 7    1  0.6122298E-006  0.8488354E+02  0.7818608E-02  0.1325129E+00
          2   -1    0    0  502    0  0.00000000000E+00  0.00000000000E+00  0.33420057676E+03  0.33420057676E+03  0.00000000000E+00 0. -1.
          1   -1    0    0  501    0 -0.00000000000E+00 -0.00000000000E+00 -0.46354919699E+03  0.46354919699E+03  0.00000000000E+00 0. -1.
         25    2    1    2    0    0  0.52741263228E+02  0.82331876125E+02  0.14349295609E+03  0.21395124160E+03  0.12499890664E+03 0.  0.
          2    1    1    2  501    0 -0.77983317405E+02  0.33709376228E+01 -0.41150629673E+03  0.41884387695E+03  0.00000000000E+00 0. -1.
          1    1    1    2  502    0  0.25242054176E+02 -0.85702813747E+02  0.13866472042E+03  0.16495465520E+03  0.00000000000E+00 0. -1.
         22    1    3    3    0    0 -0.29426034572E+02 -0.12383354714E+02  0.41248492800E+02  0.52160110648E+02  0.00000000000E+00 0.  1.
         22    1    3    3    0    0  0.82167297800E+02  0.94715230839E+02  0.10224446329E+03  0.16179113095E+03  0.00000000000E+00 0.  1.
</event>
<event>
 7    1  0.6122298E-006  0.7799108E+02  0.7818608E-02  0.1487147E+00
          2   -1    0    0  502    0  0.00000000000E+00  0.00000000000E+00  0.24153072256E+03  0.24153072256E+03  0.00000000000E+00 0. -1.
          1   -1    0    0  501    0 -0.00000000000E+00 -0.00000000000E+00 -0.82793472761E+03  0.82793472761E+03  0.00000000000E+00 0. -1.
         25    2    1    2    0    0  0.78243868778E+01  0.69668675871E+02  0.12775179774E+03  0.19199162598E+03  0.12500126877E+03 0.  0.
          2    1    1    2  501    0  0.14829743563E+02 -0.76703356650E+02 -0.79212901725E+03  0.79597217676E+03  0.00000000000E+00 0. -1.
          1    1    1    2  502    0 -0.22654130441E+02  0.70346807790E+01  0.77973214460E+02  0.81501647425E+02  0.00000000000E+00 0. -1.
         22    1    3    3    0    0  0.52698467491E+02  0.15200546973E+01  0.84613937598E+02  0.99694320189E+02  0.00000000000E+00 0. -1.
         22    1    3    3    0    0 -0.44874080613E+02  0.68148621174E+02  0.43137860138E+02  0.92297305790E+02  0.00000000000E+00 0. -1.
</event>
<event>
 7    1  0.6122298E-006  0.4556782E+02  0.7818608E-02  0.1479594E+00
          2   -1    0    0  502    0  0.00000000000E+00  0.00000000000E+00  0.15237096121E+04  0.15237096121E+04  0.00000000000E+00 0. -1.
          1   -1    0    0  501    0 -0.00000000000E+00 -0.00000000000E+00 -0.24197016302E+03  0.24197016302E+03  0.00000000000E+00 0. -1.
         25    2    1    2    0    0  0.30217726901E+02  0.96888119776E+01  0.24508221545E+03  0.27694278265E+03  0.12500011375E+03 0.  0.
          2    1    1    2  501    0 -0.31728034377E+02  0.33098479117E+02 -0.22334753546E+03  0.22800504179E+03  0.00000000000E+00 0. -1.
          1    1    1    2  502    0  0.15103074768E+01 -0.42787291094E+02  0.12600047691E+04  0.12607319507E+04  0.00000000000E+00 0. -1.
         22    1    3    3    0    0 -0.47896243792E+02 -0.27840586271E+01  0.70508772295E+02  0.85283574751E+02  0.00000000000E+00 0.  1.
         22    1    3    3    0    0  0.78113970693E+02  0.12472870605E+02  0.17457344315E+03  0.19165920790E+03  0.00000000000E+00 0.  1.
</event>
<event>
 7    1  0.6122298E-006  0.2687711E+02  0.7818608E-02  0.1661908E+00
          2   -1    0    0  502    0  0.00000000000E+00  0.00000000000E+00  0.13312420210E+03  0.13312420210E+03  0.00000000000E+00 0. -1.
          1   -1    0    0  501    0 -0.00000000000E+00 -0.00000000000E+00 -0.14612023038E+04  0.14612023038E+04  0.00000000000E+00 0. -1.
         25    2    1    2    0    0  0.17829690854E+02  0.24464206984E+02 -0.79856901589E+02  0.15139059520E+03  0.12500236911E+03 0.  0.
          2    1    1    2  501    0  0.52272120943E+01 -0.26388101163E+02 -0.13440674322E+04  0.13443366088E+04  0.00000000000E+00 0. -1.
          1    1    1    2  502    0 -0.23056902948E+02  0.19238941789E+01  0.95846232021E+02  0.98599301899E+02  0.00000000000E+00 0. -1.
         22    1    3    3    0    0 -0.27209904077E+02 -0.90815002298E+01  0.21273739384E+02  0.35713086029E+02  0.00000000000E+00 0.  1.
         22    1    3    3    0    0  0.45039594931E+02  0.33545707214E+02 -0.10113064097E+03  0.11567750917E+03  0.00000000000E+00 0.  1.
</event>
<event>
 7    1  0.6122298E-006  0.6442586E+02  0.7818608E-02  0.1454485E+00
          2   -1    0    0  502    0  0.00000000000E+00  0.00000000000E+00  0.18499515836E+03  0.18499515836E+03  0.00000000000E+00 0. -1.
          1   -1    0    0  501    0 -0.00000000000E+00 -0.00000000000E+00 -0.56366039955E+03  0.56366039955E+03  0.00000000000E+00 0. -1.
         25    2    1    2    0    0 -0.41410761542E+02 -0.10376260396E+01 -0.90343084685E+02  0.15969669109E+03  0.12500092942E+03 0.  0.
          2    1    1    2  501    0  0.58941454142E+02 -0.30721313215E+02 -0.43388362810E+03  0.43894520937E+03  0.00000000000E+00 0. -1.
          1    1    1    2  502    0 -0.17530692600E+02  0.31758939254E+02  0.14556147160E+03  0.15001365744E+03  0.00000000000E+00 0. -1.
         22    1    3    3    0    0 -0.14388549049E+02  0.22484488527E+02  0.26421890561E+02  0.37559271410E+02  0.00000000000E+00 0. -1.
         22    1    3    3    0    0 -0.27022212493E+02 -0.23522114566E+02 -0.11676497525E+03  0.12213741968E+03  0.00000000000E+00 0. -1.
</event>
<event>
 7    1  0.6122298E-006  0.1041973E+03  0.7818608E-02  0.1307942E+00
          2   -1    0    0  502    0  0.00000000000E+00  0.00000000000E+00  0.31932236420E+04  0.31932236420E+04  0.00000000000E+00 0. -1.
          1   -1    0    0  501    0 -0.00000000000E+00 -0.00000000000E+00 -0.15990826530E+04  0.15990826530E+04  0.00000000000E+00 0. -1.
         25    2    1    2    0    0 -0.76333610695E+02 -0.31757940985E+02 -0.54000666129E+01  0.14996626981E+03  0.12500133769E+03 0.  0.
          2    1    1    2  501    0  0.36014106436E+02 -0.64877808661E+02 -0.15196156528E+04  0.15214262644E+04  0.00000000000E+00 0. -1.
          1    1    1    2  502    0  0.40319504259E+02  0.96635749647E+02  0.31191567084E+04  0.31209137608E+04  0.00000000000E+00 0. -1.
         22    1    3    3    0    0 -0.71653499578E+02  0.20106682742E+01 -0.54601012814E+02  0.90108475678E+02  0.00000000000E+00 0. -1.
         22    1    3    3    0    0 -0.46801111165E+01 -0.33768609260E+02  0.49200946201E+02  0.59857794133E+02  0.00000000000E+00 0. -1.
</event>
<event>
 7    1  0.6122298E-006  0.2026274E+03  0.7818608E-02  0.1367092E+00
          2   -1    0    0  502    0  0.00000000000E+00  0.00000000000E+00  0.10451652832E+04  0.10451652832E+04  0.00000000000E+00 0. -1.
          1   -1    0    0  501    0 -0.00000000000E+00 -0.00000000000E+00 -0.36227827753E+04  0.36227827753E+04  0.00000000000E+00 0. -1.
         25    2    1    2    0    0  0.17784210795E+03  0.45300951684E+02  0.38730339288E+03  0.44644127644E+03  0.12500361430E+03 0.  0.
          2    1    1    2  501    0 -0.19926716035E+03 -0.37478523172E+02 -0.35901453277E+04  0.35958664484E+04  0.00000000000E+00 0. -1.
          1    1    1    2  502    0  0.21425052404E+02 -0.78224285116E+01  0.62522444277E+03  0.62564033365E+03  0.00000000000E+00 0. -1.
         22    1    3    3    0    0  0.32220999296E+02  0.24572163320E+02  0.21988181572E+03  0.22358442899E+03  0.00000000000E+00 0. -1.
         22    1    3    3    0    0  0.14562110865E+03  0.20728788364E+02  0.16742157716E+03  0.22285684744E+03  0.00000000000E+00 0. -1.
</event>
<event>
 7    1  0.6122298E-006  0.1984656E+03  0.7818608E-02  0.1206818E+00
          2   -1    0    0  502    0  0.00000000000E+00  0.00000000000E+00  0.10736212864E+04  0.10736212864E+04  0.00000000000E+00 0. -1.
          1   -1    0    0  501    0 -0.00000000000E+00 -0.00000000000E+00 -0.28813507888E+03  0.28813507888E+03  0.00000000000E+00 0. -1.
         25    2    1    2    0    0  0.50834546526E+02  0.23508083090E+03  0.24320148051E+03  0.36416861860E+03  0.12499869788E+03 0.  0.
          2    1    1    2  501    0  0.45015286417E+02 -0.19013198132E+03 -0.18115297256E+03  0.26644501459E+03  0.00000000000E+00 0. -1.
          1    1    1    2  502    0 -0.95849832943E+02 -0.44948849578E+02  0.72343769953E+03  0.73114273207E+03  0.00000000000E+00 0. -1.
         22    1    3    3    0    0 -0.19976829031E+02  0.14734008233E+02 -0.44321506597E+01  0.25215246503E+02  0.00000000000E+00 0. -1.
         22    1    3    3    0    0  0.70811375557E+02  0.22034682267E+03  0.24763363117E+03  0.33895337210E+03  0.00000000000E+00 0. -1.
</event>
<event>
 7    1  0.6122298E-006  0.1586458E+03  0.7818608E-02  0.1297914E+00
          2   -1    0    0  502    0  0.00000000000E+00  0.00000000000E+00  0.12036071336E+04  0.12036071336E+04  0.00000000000E+00 0. -1.
          1   -1    0    0  501    0 -0.00000000000E+00 -0.00000000000E+00 -0.79705198990E+03  0.79705198990E+03  0.00000000000E+00 0. -1.
         25    2    1    2    0    0  0.94999149528E+01  0.15339508821E+03  0.54233730938E+03  0.57738626611E+03  0.12499936668E+03 0.  0.
          2    1    1    2  501    0 -0.62427748903E+02 -0.14606308001E+03 -0.77030094409E+03  0.78650822732E+03  0.00000000000E+00 0. -1.
          1    1    1    2  502    0  0.52927833950E+02 -0.73320082024E+01  0.63451877843E+03  0.63676463009E+03  0.00000000000E+00 0. -1.
         22    1    3    3    0    0 -0.37915230891E+02  0.14064606510E+03  0.44720147704E+03  0.47032758948E+03  0.00000000000E+00 0. -1.
         22    1    3    3    0    0  0.47415145843E+02  0.12749023117E+02  0.95135832340E+02  0.10705867663E+03  0.00000000000E+00 0. -1.
</event>
<event>
 7    1  0.6122298E-006  0.3355071E+02  0.7818608E-02  0.1572447E+00
          2   -1    0    0  502    0  0.00000000000E+00  0.00000000000E+00  0.22738540291E+03  0.22738540291E+03  0.00000000000E+00 0. -1.
          1   -1    0    0  501    0 -0.00000000000E+00 -0.00000000000E+00 -0.41573507456E+03  0.41573507456E+03  0.00000000000E+00 0. -1.
         25    2    1    2    0    0  0.62872169793E+01 -0.14250736260E+02  0.13104853146E+03  0.18177162888E+03  0.12499837954E+03 0.  0.
          2    1    1    2  501    0  0.23517064009E+02  0.24110859285E+02 -0.38613289956E+03  0.38759902214E+03  0.00000000000E+00 0. -1.
          1    1    1    2  502    0 -0.29804280988E+02 -0.98601230251E+01  0.66734696449E+02  0.73749826450E+02  0.00000000000E+00 0. -1.
         22    1    3    3    0    0  0.38214774674E+02  0.27039699172E+02  0.11946135669E+03  0.12830639141E+03  0.00000000000E+00 0.  1.
         22    1    3    3    0    0 -0.31927557694E+02 -0.41290435433E+02  0.11587174764E+02  0.53465237468E+02  0.00000000000E+00 0.  1.
</event>
<event>
 7    1  0.6122298E-006  0.3479978E+02  0.7818608E-02  0.1572454E+00
          2   -1    0    0  502    0  0.00000000000E+00  0.00000000000E+00  0.19234263573E+04  0.19234263573E+04  0.00000000000E+00 0. -1.
          1   -1    0    0  501    0 -0.00000000000E+00 -0.00000000000E+00 -0.18402109988E+03  0.18402109988E+03  0.00000000000E+00 0. -1.
         25    2    1    2    0    0 -0.51055457663E+02  0.18771352502E+02  0.35139999836E+03  0.37691657721E+03  0.12500049556E+03 0.  0.
          2    1    1    2  501    0  0.29174057447E+02  0.80518469679E+01 -0.16973195560E+03  0.17240909088E+03  0.00000000000E+00 0. -1.
          1    1    1    2  502    0  0.21881400216E+02 -0.26823199470E+02  0.15577372146E+04  0.15581217891E+04  0.00000000000E+00 0. -1.
         22    1    3    3    0    0 -0.23379905540E+02 -0.46923880000E+02  0.75235649050E+02  0.91699909407E+02  0.00000000000E+00 0. -1.
         22    1    3    3    0    0 -0.27675552123E+02  0.65695232502E+02  0.27616434931E+03  0.28521666780E+03  0.00000000000E+00 0. -1.
</event>
<event>
 7    1  0.6122298E-006  0.2344026E+02  0.7818608E-02  0.1706497E+00
          2   -1    0    0  502    0  0.00000000000E+00  0.00000000000E+00  0.20709861220E+03  0.20709861220E+03  0.00000000000E+00 0. -1.
          1   -1    0    0  501    0 -0.00000000000E+00 -0.00000000000E+00 -0.99105502927E+03  0.99105502927E+03  0.00000000000E+00 0. -1.
         25    2    1    2    0    0 -0.12412760875E+01 -0.24953621092E+01  0.10453176611E+03  0.16297204519E+03  0.12500091914E+03 0.  0.
          2    1    1    2  501    0  0.32095825521E+01  0.23241981161E+02 -0.96020840127E+03  0.96049501038E+03  0.00000000000E+00 0. -1.
          1    1    1    2  502    0 -0.19683064645E+01 -0.20746619052E+02  0.71720218080E+02  0.74686585903E+02  0.00000000000E+00 0. -1.
         22    1    3    3    0    0  0.43673049304E+02  0.42837544836E+02  0.49056545186E+02  0.78415145914E+02  0.00000000000E+00 0.  1.
         22    1    3    3    0    0 -0.44914325392E+02 -0.45332906945E+02  0.55475220929E+02  0.84556899273E+02  0.00000000000E+00 0.  1.
</event>
<event>
 7    1  0.6122298E-006  0.3280651E+02  0.7818608E-02  0.1582691E+00
          2   -1    0    0  502    0  0.00000000000E+00  0.00000000000E+00  0.10268214152E+04  0.10268214152E+04  0.00000000000E+00 0. -1.
          1   -1    0    0  501    0 -0.00000000000E+00 -0.00000000000E+00 -0.12747019015E+03  0.12747019015E+03  0.00000000000E+00 0. -1.
         25    2    1    2    0    0  0.41064206057E+02  0.41490612643E+02 -0.74465755944E+01  0.13816029682E+03  0.12500030469E+03 0.  0.
          2    1    1    2  501    0 -0.27642545136E+02 -0.14513774094E+02 -0.49952418886E+02  0.58906740638E+02  0.00000000000E+00 0. -1.
          1    1    1    2  502    0 -0.13421660920E+02 -0.26976838549E+02  0.95675021953E+03  0.95722456789E+03  0.00000000000E+00 0. -1.
         22    1    3    3    0    0 -0.36588429232E+02  0.39995724105E+02 -0.23113597060E+02  0.58928850909E+02  0.00000000000E+00 0.  1.
         22    1    3    3    0    0  0.77652635289E+02  0.14948885385E+01  0.15667021466E+02  0.79231445908E+02  0.00000000000E+00 0.  1.
</event>
<event>
 7    1  0.6122298E-006  0.2127921E+02  0.7818608E-02  0.1730204E+00
          2   -1    0    0  502    0  0.00000000000E+00  0.00000000000E+00  0.12261044950E+04  0.12261044950E+04  0.00000000000E+00 0. -1.
          1   -1    0    0  501    0 -0.00000000000E+00 -0.00000000000E+00 -0.56619912586E+03  0.56619912586E+03  0.00000000000E+00 0. -1.
         25    2    1    2    0    0 -0.39285944600E+02  0.12488557592E+02  0.64729830931E+02  0.14666790321E+03  0.12498869271E+03 0.  0.
          2    1    1    2  501    0  0.19324519070E+02 -0.88130806616E+01 -0.52492339178E+03  0.52535290488E+03  0.00000000000E+00 0. -1.
          1    1    1    2  502    0  0.19961425530E+02 -0.36754769301E+01  0.11200989300E+04  0.11202828127E+04  0.00000000000E+00 0. -1.
         22    1    3    3    0    0 -0.56677375011E+02 -0.42309131570E+02  0.19076992690E+02  0.73255164340E+02  0.00000000000E+00 0. -1.
         22    1    3    3    0    0  0.17391430411E+02  0.54797689162E+02  0.45652838241E+02  0.73412738872E+02  0.00000000000E+00 0. -1.
</event>
<event>
 7    1  0.6122298E-006  0.9888653E+02  0.7818608E-02  0.1357384E+00
          2   -1    0    0  502    0  0.00000000000E+00  0.00000000000E+00  0.52351415317E+03  0.52351415317E+03  0.00000000000E+00 0. -1.
          1   -1    0    0  501    0 -0.00000000000E+00 -0.00000000000E+00 -0.27394181461E+04  0.27394181461E+04  0.00000000000E+00 0. -1.
         25    2    1    2    0    0  0.53795221206E+02  0.43617829066E+01 -0.33488506888E+03  0.36150575557E+03  0.12500180389E+03 0.  0.
          2    1    1    2  501    0  0.43284415357E+02 -0.26390172311E+02 -0.23860951756E+04  0.23866336479E+04  0.00000000000E+00 0. -1.
          1    1    1    2  502    0 -0.97079636563E+02  0.22028389404E+02  0.50507625156E+03  0.51479289589E+03  0.00000000000E+00 0. -1.
         22    1    3    3    0    0  0.49327679276E+02 -0.56312314022E+02 -0.16993491025E+03  0.18569375427E+03  0.00000000000E+00 0. -1.
         22    1    3    3    0    0  0.44675419303E+01  0.60674096928E+02 -0.16495015863E+03  0.17581200130E+03  0.00000000000E+00 0. -1.
</event>
<event>
 7    1  0.6122298E-006  0.4160846E+02  0.7818608E-02  0.1537667E+00
          2   -1    0    0  502    0  0.00000000000E+00  0.00000000000E+00  0.16702784185E+04  0.16702784185E+04  0.00000000000E+00 0. -1.
          1   -1    0    0  501    0 -0.00000000000E+00 -0.00000000000E+00 -0.37903459266E+02  0.37903459266E+02  0.00000000000E+00 0. -1.
         25    2    1    2    0    0 -0.29083446737E+02  0.14758981863E+01  0.13940579764E+03  0.18949162669E+03  0.12500030008E+03 0.  0.
          2    1    1    2  501    0  0.36139155652E+02  0.29329674163E+02  0.29987154499E+02  0.55366937722E+02  0.00000000000E+00 0. -1.
          1    1    1    2  502    0 -0.70557089155E+01 -0.30805572350E+02  0.14629820071E+04  0.14633233133E+04  0.00000000000E+00 0. -1.
         22    1    3    3    0    0  0.27450481823E+02  0.47231377054E+02  0.71567758156E+02  0.90034859572E+02  0.00000000000E+00 0.  1.
         22    1    3    3    0    0 -0.56533928559E+02 -0.45755478867E+02  0.67838039483E+02  0.99456767118E+02  0.00000000000E+00 0.  1.
</event>
<event>
 7    1  0.6122298E-006  0.1409174E+03  0.7818608E-02  0.1315005E+00
          2   -1    0    0  502    0  0.00000000000E+00  0.00000000000E+00  0.43841357493E+03  0.43841357493E+03  0.00000000000E+00 0. -1.
          1   -1    0    0  501    0 -0.00000000000E+00 -0.00000000000E+00 -0.90995959518E+03  0.90995959518E+03  0.00000000000E+00 0. -1.
         25    2    1    2    0    0 -0.71405078932E+02 -0.12448542802E+03  0.17932591231E+03  0.26149303475E+03  0.12500206922E+03 0.  0.
          2    1    1    2  501    0 -0.38878518159E+02  0.33727113833E+02 -0.84461476118E+03  0.84618151255E+03  0.00000000000E+00 0. -1.
          1    1    1    2  502    0  0.11028359709E+03  0.90758314190E+02  0.19374282862E+03  0.24069862281E+03  0.00000000000E+00 0. -1.
         22    1    3    3    0    0 -0.10044033253E+03 -0.53947117583E+02  0.10531394154E+03  0.15520817690E+03  0.00000000000E+00 0.  1.
         22    1    3    3    0    0  0.29035253595E+02 -0.70538310441E+02  0.74011970771E+02  0.10628485785E+03  0.00000000000E+00 0.  1.
</event>
<event>
 7    1  0.6122298E-006  0.7582349E+02  0.7818608E-02  0.1354496E+00
          2   -1    0    0  502    0  0.00000000000E+00  0.00000000000E+00  0.15121585726E+04  0.15121585726E+04  0.00000000000E+00 0. -1.
          1   -1    0    0  501    0 -0.00000000000E+00 -0.00000000000E+00 -0.52283284981E+03  0.52283284981E+03  0.00000000000E+00 0. -1.
         25    2    1    2    0    0  0.79794738599E+02  0.34042086894E+02 -0.15862133756E+03  0.21979886799E+03  0.12499899861E+03 0.  0.
          2    1    1    2  501    0 -0.24984899389E+02 -0.73864195565E+02 -0.32827904753E+03  0.33741265186E+03  0.00000000000E+00 0. -1.
          1    1    1    2  502    0 -0.54809839210E+02  0.39822108671E+02  0.14762261079E+04  0.14777799026E+04  0.00000000000E+00 0. -1.
         22    1    3    3    0    0  0.55340558014E+02  0.53219121129E+02 -0.22257949118E+02  0.79939155075E+02  0.00000000000E+00 0.  1.
         22    1    3    3    0    0  0.24454180584E+02 -0.19177034235E+02 -0.13636338844E+03  0.13985971292E+03  0.00000000000E+00 0.  1.
</event>
<event>
 7    1  0.6122298E-006  0.2531926E+03  0.7818608E-02  0.1187259E+00
          2   -1    0    0  502    0  0.00000000000E+00  0.00000000000E+00  0.18592114892E+03  0.18592114892E+03  0.00000000000E+00 0. -1.
          1   -1    0    0  501    0 -0.00000000000E+00 -0.00000000000E+00 -0.13992755846E+04  0.13992755846E+04  0.00000000000E+00 0. -1.
         25    2    1    2    0    0  0.27530507287E+03  0.15253648163E+03 -0.74703243132E+03  0.82020893532E+03  0.12499993102E+03 0.  0.
          2    1    1    2  501    0 -0.17415305900E+03 -0.13457857383E+03 -0.57485242071E+03  0.61554527542E+03  0.00000000000E+00 0. -1.
          1    1    1    2  502    0 -0.10115201388E+03 -0.17957907801E+02  0.10853041631E+03  0.14944252282E+03  0.00000000000E+00 0. -1.
         22    1    3    3    0    0  0.12625092814E+03  0.10737228061E+03 -0.25510185151E+03  0.30421219263E+03  0.00000000000E+00 0.  1.
         22    1    3    3    0    0  0.14905414473E+03  0.45164201023E+02 -0.49193057981E+03  0.51599674269E+03  0.00000000000E+00 0.  1.
</event>
<event>
 7    1  0.7588983E-006  0.5829910E+02  0.7818608E-02  0.1424614E+00
          2   -1    0    0  502    0  0.00000000000E+00  0.00000000000E+00  0.79085170237E+03  0.79085170237E+03  0.00000000000E+00 0. -1.
          1   -1    0    0  501    0 -0.00000000000E+00 -0.00000000000E+00 -0.12542813767E+04  0.12542813767E+04  0.00000000000E+00 0. -1.
         25    2    1    2    0    0  0.31800517015E+02 -0.17068697048E+02 -0.67915459185E+03  0.69150415952E+03  0.12499771880E+03 0.  0.
          2    1    1    2  501    0 -0.28542686402E+02 -0.41201987131E+02 -0.56675925864E+03  0.56897130503E+03  0.00000000000E+00 0. -1.
          1    1    1    2  502    0 -0.32578306129E+01  0.58270684179E+02  0.78248417615E+03  0.78465761452E+03  0.00000000000E+00 0. -1.
         22    1    3    3    0    0 -0.17197111481E+02 -0.59301466525E+02 -0.25056566395E+03  0.25806114881E+03  0.00000000000E+00 0. -1.
         22    1    3    3    0    0  0.48997628496E+02  0.42232769477E+02 -0.42858892790E+03  0.43344301071E+03  0.00000000000E+00 0. -1.
</event>
<event>
 7    1  0.6122298E-006  0.8115450E+02  0.7818608E-02  0.1398762E+00
          2   -1    0    0  502    0  0.00000000000E+00  0.00000000000E+00  0.11635363491E+04  0.11635363491E+04  0.00000000000E+00 0. -1.
          1   -1    0    0  501    0 -0.00000000000E+00 -0.00000000000E+00 -0.46791014735E+03  0.46791014735E+03  0.00000000000E+00 0. -1.
         25    2    1    2    0    0 -0.40446391397E+02 -0.12384967235E+02 -0.78456002273E+01  0.13219739349E+03  0.12500119764E+03 0.  0.
          2    1    1    2  501    0 -0.41576969774E+02  0.14501928346E+02 -0.39513579368E+03  0.39758174730E+03  0.00000000000E+00 0. -1.
          1    1    1    2  502    0  0.82023361171E+02 -0.21169611107E+01  0.10986075956E+04  0.11016673556E+04  0.00000000000E+00 0. -1.
         22    1    3    3    0    0  0.98251872754E+01  0.24292280602E+02 -0.50403117327E+02  0.56807776212E+02  0.00000000000E+00 0. -1.
         22    1    3    3    0    0 -0.50271578673E+02 -0.36677247837E+02  0.42557517100E+02  0.75389617275E+02  0.00000000000E+00 0. -1.
</event>
<event>
 7    1  0.6122298E-006  0.1050584E+03  0.7818608E-02  0.1343410E+00
          2   -1    0    0  502    0  0.00000000000E+00  0.00000000000E+00  0.23931493878E+04  0.23931493878E+04  0.00000000000E+00 0. -1.
          1   -1    0    0  501    0 -0.00000000000E+00 -0.00000000000E+00 -0.15411781954E+02  0.15411781954E+02  0.00000000000E+00 0. -1.
         25    2    1    2    0    0 -0.42826910262E+02  0.99276230995E+02  0.17439451286E+04  0.17517594131E+04  0.12500606169E+03 0.  0.
          2    1    1    2  501    0 -0.42839076850E+02 -0.32471244671E+02  0.11762137736E+03  0.12932268419E+03  0.00000000000E+00 0. -1.
          1    1    1    2  502    0  0.85665987112E+02 -0.66804986324E+02  0.51617109989E+03  0.52747907248E+03  0.00000000000E+00 0. -1.
         22    1    3    3    0    0 -0.66411562495E+02  0.93561102012E+02  0.87683594870E+03  0.88431072388E+03  0.00000000000E+00 0.  1.
         22    1    3    3    0    0  0.23584652232E+02  0.57151289824E+01  0.86710917990E+03  0.86744868919E+03  0.00000000000E+00 0.  1.
</event>
<event>
 7    1  0.6122298E-006  0.8816427E+02  0.7818608E-02  0.1455553E+00
          2   -1    0    0  502    0  0.00000000000E+00  0.00000000000E+00  0.14507374641E+04  0.14507374641E+04  0.00000000000E+00 0. -1.
          1   -1    0    0  501    0 -0.00000000000E+00 -0.00000000000E+00 -0.10985303798E+03  0.10985303798E+03  0.00000000000E+00 0. -1.
         25    2    1    2    0    0  0.43954784457E+02  0.10388763445E+03  0.31668669354E+03  0.35866456973E+03  0.12500059219E+03 0.  0.
          2    1    1    2  501    0 -0.35785825381E+02 -0.78885841569E+02 -0.67558243295E+02  0.10985316352E+03  0.00000000000E+00 0. -1.
          1    1    1    2  502    0 -0.81689590764E+01 -0.25001792880E+02  0.10917559759E+04  0.10920727689E+04  0.00000000000E+00 0. -1.
         22    1    3    3    0    0  0.86233140304E+02  0.86989235417E+02  0.22019992754E+03  0.25197477980E+03  0.00000000000E+00 0. -1.
         22    1    3    3    0    0 -0.42278355847E+02  0.16898399032E+02  0.96486766000E+02  0.10668978993E+03  0.00000000000E+00 0. -1.
</event>
<event>
 7    1  0.6122298E-006  0.1637234E+03  0.7818608E-02  0.1234861E+00
          2   -1    0    0  502    0  0.00000000000E+00  0.00000000000E+00  0.19399499169E+04  0.19399499169E+04  0.00000000000E+00 0. -1.
          1   -1    0    0  501    0 -0.00000000000E+00 -0.00000000000E+00 -0.17573221001E+03  0.17573221001E+03  0.00000000000E+00 0. -1.
         25    2    1    2    0    0  0.10045604465E+03 -0.73808843098E+02  0.17451622837E+03  0.24823407268E+03  0.12500031461E+03 0.  0.
          2    1    1    2  501    0 -0.17764955661E+03  0.17346171358E+02 -0.79578699274E+02  0.19543035589E+03  0.00000000000E+00 0. -1.
          1    1    1    2  502    0  0.77193511965E+02  0.56462671740E+02  0.16692801778E+04  0.16720176983E+04  0.00000000000E+00 0. -1.
         22    1    3    3    0    0 -0.26105118075E+02 -0.34807932213E+02  0.52212763930E+02  0.67965006083E+02  0.00000000000E+00 0. -1.
         22    1    3    3    0    0  0.12656116272E+03 -0.39000910886E+02  0.12230346444E+03  0.18026906660E+03  0.00000000000E+00 0. -1.
</event>
<event>
 7    1  0.6122298E-006  0.1243512E+03  0.7818608E-02  0.1292871E+00
          2   -1    0    0  502    0  0.00000000000E+00  0.00000000000E+00  0.42131578762E+03  0.42131578762E+03  0.00000000000E+00 0. -1.
          1   -1    0    0  501    0 -0.00000000000E+00 -0.00000000000E+00 -0.99188781554E+03  0.99188781554E+03  0.00000000000E+00 0. -1.
         25    2    1    2    0    0  0.15391311157E+03 -0.31656641009E+01  0.46026729640E+02  0.20357351119E+03  0.12499778908E+03 0.  0.
          2    1    1    2  501    0 -0.11139695808E+03 -0.54242618904E+02 -0.90452624211E+03  0.91297276336E+03  0.00000000000E+00 0. -1.
          1    1    1    2  502    0 -0.42516153482E+02  0.57408283005E+02  0.28792748454E+03  0.29665732861E+03  0.00000000000E+00 0. -1.
         22    1    3    3    0    0  0.14557373067E+03  0.19588544681E+02  0.75713463765E+02  0.16525117470E+03  0.00000000000E+00 0. -1.
         22    1    3    3    0    0  0.83393808979E+01 -0.22754208782E+02 -0.29686734125E+02  0.38322336490E+02  0.00000000000E+00 0. -1.
</event>
<event>
 7    1  0.6122298E-006  0.6091647E+02  0.7818608E-02  0.1426173E+00
          2   -1    0    0  502    0  0.00000000000E+00  0.00000000000E+00  0.62019639689E+03  0.62019639689E+03  0.00000000000E+00 0. -1.
          1   -1    0    0  501    0 -0.00000000000E+00 -0.00000000000E+00 -0.14346152022E+04  0.14346152022E+04  0.00000000000E+00 0. -1.
         25    2    1    2    0    0  0.58904457589E+01 -0.49201293663E+02  0.23326057990E+03  0.26924078088E+03  0.12499854120E+03 0.  0.
          2    1    1    2  501    0  0.41312809292E+02  0.44868850421E+02 -0.14144426684E+04  0.14157570498E+04  0.00000000000E+00 0. -1.
          1    1    1    2  502    0 -0.47203255051E+02  0.43324432422E+01  0.36676328321E+03  0.36981376835E+03  0.00000000000E+00 0. -1.
         22    1    3    3    0    0 -0.27331900353E+02 -0.29137865856E+02  0.81046083311E+01  0.40764355505E+02  0.00000000000E+00 0.  1.
         22    1    3    3    0    0  0.33222346112E+02 -0.20063427807E+02  0.22515597157E+03  0.22847642537E+03  0.00000000000E+00 0.  1.
</event>
<event>
 7    1  0.6122298E-006  0.1214745E+03  0.7818608E-02  0.1408476E+00
          2   -1    0    0  502    0  0.00000000000E+00  0.00000000000E+00  0.16155508058E+04  0.16155508058E+04  0.00000000000E+00 0. -1.
          1   -1    0    0  501    0 -0.00000000000E+00 -0.00000000000E+00 -0.35090383522E+03  0.35090383522E+03  0.00000000000E+00 0. -1.
         25    2    1    2    0    0  0.99863017951E+02  0.66806567417E+01 -0.33203432006E+02  0.16353734015E+03  0.12499896079E+03 0.  0.
          2    1    1    2  501    0  0.19395653978E+02  0.19142467251E+02 -0.24938913177E+03  0.25087360262E+03  0.00000000000E+00 0. -1.
          1    1    1    2  502    0 -0.11925867193E+03 -0.25823123993E+02  0.15472395343E+04  0.15520436982E+04  0.00000000000E+00 0. -1.
         22    1    3    3    0    0  0.11241445216E+03 -0.93952474907E+01 -0.61635499558E+02  0.12854654618E+03  0.00000000000E+00 0.  1.
         22    1    3    3    0    0 -0.12551434204E+02  0.16075904232E+02  0.28432067552E+02  0.34990793972E+02  0.00000000000E+00 0.  1.
</event>
<event>
 7    1  0.6122298E-006  0.1290900E+03  0.7818608E-02  0.1258314E+00
          2   -1    0    0  502    0  0.00000000000E+00  0.00000000000E+00  0.28204449350E+03  0.28204449350E+03  0.00000000000E+00 0. -1.
          1   -1    0    0  501    0 -0.00000000000E+00 -0.00000000000E+00 -0.98827918896E+03  0.98827918896E+03  0.00000000000E+00 0. -1.
         25    2    1    2    0    0  0.14296946928E+03 -0.15057024760E+03  0.49317851534E+02  0.24732510685E+03  0.12500315753E+03 0.  0.
          2    1    1    2  501    0 -0.11193623305E+03  0.59897580342E+02 -0.86686614440E+03  0.87611320770E+03  0.00000000000E+00 0. -1.
          1    1    1    2  502    0 -0.31033236230E+02  0.90672667254E+02  0.11131359741E+03  0.14688536791E+03  0.00000000000E+00 0. -1.
         22    1    3    3    0    0  0.45682976093E+02 -0.12017512847E+03  0.65229990966E+02  0.14416638834E+03  0.00000000000E+00 0.  1.
         22    1    3    3    0    0  0.97286493184E+02 -0.30395119130E+02 -0.15912139433E+02  0.10315871851E+03  0.00000000000E+00 0.  1.
</event>
<event>
 7    1  0.6122298E-006  0.9880232E+02  0.7818608E-02  0.1292243E+00
          2   -1    0    0  502    0  0.00000000000E+00  0.00000000000E+00  0.53108288203E+03  0.53108288203E+03  0.00000000000E+00 0. -1.
          1   -1    0    0  501    0 -0.00000000000E+00 -0.00000000000E+00 -0.18454958835E+04  0.18454958835E+04  0.00000000000E+00 0. -1.
         25    2    1    2    0    0 -0.13825982582E+03  0.71609912927E+02 -0.68967846500E+03  0.71800059554E+03  0.12499884415E+03 0.  0.
          2    1    1    2  501    0  0.40126264865E+02 -0.81049062661E+02 -0.11351408956E+04  0.11387378630E+04  0.00000000000E+00 0. -1.
          1    1    1    2  502    0  0.98133560954E+02  0.94391497349E+01  0.51040635914E+03  0.51984030701E+03  0.00000000000E+00 0. -1.
         22    1    3    3    0    0 -0.11389208956E+03  0.58259398287E+02 -0.67412957728E+03  0.68616051512E+03  0.00000000000E+00 0. -1.
         22    1    3    3    0    0 -0.24367736256E+02  0.13350514639E+02 -0.15548887727E+02  0.31840080416E+02  0.00000000000E+00 0. -1.
</event>
<event>
 7    1  0.6122298E-006  0.6223910E+02  0.7818608E-02  0.1501454E+00
          2   -1    0    0  502    0  0.00000000000E+00  0.00000000000E+00  0.20097980046E+03  0.20097980046E+03  0.00000000000E+00 0. -1.
          1   -1    0    0  501    0 -0.00000000000E+00 -0.00000000000E+00 -0.45082422663E+03  0.45082422663E+03  0.00000000000E+00 0. -1.
         25    2    1    2    0    0  0.14147691458E+02  0.81652991830E+02 -0.21258881578E+03  0.26016447138E+03  0.12499671725E+03 0.  0.
          2    1    1    2  501    0  0.22550005110E+00 -0.58890306856E+02 -0.20933815625E+03  0.21746398036E+03  0.00000000000E+00 0. -1.
          1    1    1    2  502    0 -0.14373191509E+02 -0.22762684974E+02  0.17208254586E+03  0.17417557536E+03  0.00000000000E+00 0. -1.
         22    1    3    3    0    0  0.54531741196E+02  0.15445896836E+02 -0.15050620197E+03  0.16082413798E+03  0.00000000000E+00 0.  1.
         22    1    3    3    0    0 -0.40384049738E+02  0.66207094995E+02 -0.62082613809E+02  0.99340333391E+02  0.00000000000E+00 0.  1.
</event>
<event>
 7    1  0.6122298E-006  0.8562264E+02  0.7818608E-02  0.1360571E+00
          2   -1    0    0  502    0  0.00000000000E+00  0.00000000000E+00  0.17536046903E+03  0.17536046903E+03  0.00000000000E+00 0. -1.
          1   -1    0    0  501    0 -0.00000000000E+00 -0.00000000000E+00 -0.34870323344E+04  0.34870323344E+04  0.00000000000E+00 0. -1.
         25    2    1    2    0    0 -0.76337655990E+02 -0.81944948462E+02 -0.27252949175E+03  0.32006255170E+03  0.12500120330E+03 0.  0.
          2    1    1    2  501    0  0.81535162476E+02  0.25183881877E+02 -0.31847867106E+04  0.31859297862E+04  0.00000000000E+00 0. -1.
          1    1    1    2  502    0 -0.51975064857E+01  0.56761066584E+02  0.14564433693E+03  0.15640046558E+03  0.00000000000E+00 0. -1.
         22    1    3    3    0    0 -0.88749048439E+02 -0.66003802711E+01 -0.11904906540E+03  0.14863592631E+03  0.00000000000E+00 0.  1.
         22    1    3    3    0    0  0.12411392448E+02 -0.75344568190E+02 -0.15348042636E+03  0.17142662539E+03  0.00000000000E+00 0.  1.
</event>
<event>
 7    1  0.6122298E-006  0.4662155E+02  0.7818608E-02  0.1511056E+00
          2   -1    0    0  502    0  0.00000000000E+00  0.00000000000E+00  0.10393946763E+04  0.10393946763E+04  0.00000000000E+00 0. -1.
          1   -1    0    0  501    0 -0.00000000000E+00 -0.00000000000E+00 -0.11758565522E+03  0.11758565522E+03  0.00000000000E+00 0. -1.
         25    2    1    2    0    0 -0.60157467313E+02 -0.52414125875E+02  0.99179004988E+02  0.17840228171E+03  0.12499895049E+03 0.  0.
          2    1    1    2  501    0  0.25363817590E+02  0.22133420689E+02 -0.73719883462E+02  0.81042166628E+02  0.00000000000E+00 0. -1.
          1    1    1    2  502    0  0.34793649723E+02  0.30280705186E+02  0.89634989953E+03  0.89753588316E+03  0.00000000000E+00 0. -1.
         22    1    3    3    0    0 -0.76432159175E+02 -0.48206890633E+02  0.12089842655E+03  0.15093776467E+03  0.00000000000E+00 0.  1.
         22    1    3    3    0    0  0.16274691862E+02 -0.42072352416E+01 -0.21719421560E+02  0.27464517045E+02  0.00000000000E+00 0.  1.
</event>
<event>
 7    1  0.6122298E-006  0.9107368E+02  0.7818608E-02  0.1313221E+00
          2   -1    0    0  502    0  0.00000000000E+00  0.00000000000E+00  0.42110531844E+04  0.42110531844E+04  0.00000000000E+00 0. -1.
          1   -1    0    0  501    0 -0.00000000000E+00 -0.00000000000E+00 -0.10046978567E+04  0.10046978567E+04  0.00000000000E+00 0. -1.
         25    2    1    2    0    0 -0.18376023415E+02 -0.48603427288E+02  0.17075499277E+04  0.17129071946E+04  0.12499732200E+03 0.  0.
          2    1    1    2  501    0  0.53205735576E+02 -0.60979637705E+02 -0.99906043641E+03  0.10023328400E+04  0.00000000000E+00 0. -1.
          1    1    1    2  502    0 -0.34829712161E+02  0.10958306499E+03  0.24978658364E+04  0.25005110065E+04  0.00000000000E+00 0. -1.
         22    1    3    3    0    0 -0.63029951791E+02 -0.49871221824E+02  0.74537459459E+03  0.74969540471E+03  0.00000000000E+00 0. -1.
         22    1    3    3    0    0  0.44653928376E+02  0.12677945365E+01  0.96217533308E+03  0.96321178990E+03  0.00000000000E+00 0. -1.
</event>
<event>
 7    1  0.6122298E-006  0.9241964E+02  0.7818608E-02  0.1309423E+00
          2   -1    0    0  502    0  0.00000000000E+00  0.00000000000E+00  0.31227191048E+04  0.31227191048E+04  0.00000000000E+00 0. -1.
          1   -1    0    0  501    0 -0.00000000000E+00 -0.00000000000E+00 -0.53590713330E+02  0.53590713330E+02  0.00000000000E+00 0. -1.
         25    2    1    2    0    0 -0.10470482572E+02 -0.71523521577E+01  0.19250179549E+04  0.19291138789E+04  0.12500177627E+03 0.  0.
          2    1    1    2  501    0  0.91640920557E+02  0.22129735570E+02 -0.56805842173E+01  0.94446029847E+02  0.00000000000E+00 0. -1.
          1    1    1    2  502    0 -0.81170437984E+02 -0.14977383412E+02  0.11497910208E+04  0.11527499094E+04  0.00000000000E+00 0. -1.
         22    1    3    3    0    0 -0.58270830791E+02  0.19180742614E+01  0.15300759352E+04  0.15311863166E+04  0.00000000000E+00 0.  1.
         22    1    3    3    0    0  0.47800348218E+02 -0.90704264191E+01  0.39494201963E+03  0.39792756225E+03  0.00000000000E+00 0.  1.
</event>
<event>
 7    1  0.6122298E-006  0.8221616E+02  0.7818608E-02  0.1496917E+00
          2   -1    0    0  502    0  0.00000000000E+00  0.00000000000E+00  0.46892780692E+03  0.46892780692E+03  0.00000000000E+00 0. -1.
          1   -1    0    0  501    0 -0.00000000000E+00 -0.00000000000E+00 -0.63796816918E+03  0.63796816918E+03  0.00000000000E+00 0. -1.
         25    2    1    2    0    0 -0.58281774946E+02 -0.48035814500E+02 -0.73524037278E+02  0.16351153728E+03  0.12500413593E+03 0.  0.
          2    1    1    2  501    0  0.74988757532E+02  0.35270480682E+02 -0.51588087086E+03  0.52249439565E+03  0.00000000000E+00 0. -1.
          1    1    1    2  502    0 -0.16706982586E+02  0.12765333818E+02  0.42036454588E+03  0.42089004317E+03  0.00000000000E+00 0. -1.
         22    1    3    3    0    0 -0.88259884673E+01 -0.80992087730E+02 -0.63380337415E+02  0.10322152643E+03  0.00000000000E+00 0.  1.
         22    1    3    3    0    0 -0.49455786479E+02  0.32956273231E+02 -0.10143699863E+02  0.60290010851E+02  0.00000000000E+00 0.  1.
</event>
<event>
 7    1  0.6122298E-006  0.6948135E+02  0.7818608E-02  0.1440911E+00
          2   -1    0    0  502    0  0.00000000000E+00  0.00000000000E+00  0.31193057774E+03  0.31193057774E+03  0.00000000000E+00 0. -1.
          1   -1    0    0  501    0 -0.00000000000E+00 -0.00000000000E+00 -0.33684592823E+03  0.33684592823E+03  0.00000000000E+00 0. -1.
         25    2    1    2    0    0  0.20052477761E+02  0.36940381362E+02  0.87875692818E+02  0.15847034631E+03  0.12499607846E+03 0.  0.
          2    1    1    2  501    0  0.33024873394E+02  0.17093999647E+02 -0.29272641011E+03  0.29507896954E+03  0.00000000000E+00 0. -1.
          1    1    1    2  502    0 -0.53077351155E+02 -0.54034381009E+02  0.17993536681E+03  0.19522719012E+03  0.00000000000E+00 0. -1.
         22    1    3    3    0    0 -0.24210274354E+02  0.63605616173E+01 -0.23781915400E+02  0.34527867418E+02  0.00000000000E+00 0. -1.
         22    1    3    3    0    0  0.44262752114E+02  0.30579819745E+02  0.11165760822E+03  0.12394247889E+03  0.00000000000E+00 0. -1.
</event>
<event>
 7    1  0.6122298E-006  0.5311732E+02  0.7818608E-02  0.1506477E+00
          2   -1    0    0  502    0  0.00000000000E+00  0.00000000000E+00  0.75697856435E+03  0.75697856435E+03  0.00000000000E+00 0. -1.
          1   -1    0    0  501    0 -0.00000000000E+00 -0.00000000000E+00 -0.12389210025E+03  0.12389210025E+03  0.00000000000E+00 0. -1.
         25    2    1    2    0    0 -0.46201563233E+02 -0.12528359915E+02  0.41964370863E+02  0.14027704533E+03  0.12500038711E+03 0.  0.
          2    1    1    2  501    0  0.35741021867E+02  0.41156591394E+02 -0.64395033112E+02  0.84368275725E+02  0.00000000000E+00 0. -1.
          1    1    1    2  502    0  0.10460541366E+02 -0.28628231479E+02  0.65551712635E+03  0.65622534354E+03  0.00000000000E+00 0. -1.
         22    1    3    3    0    0 -0.34458774174E+02  0.46902171557E+02 -0.11679444498E+02  0.59360173838E+02  0.00000000000E+00 0. -1.
         22    1    3    3    0    0 -0.11742789060E+02 -0.59430531472E+02  0.53643815361E+02  0.80916871494E+02  0.00000000000E+00 0. -1.
</event>
<event>
 7    1  0.6122298E-006  0.1136407E+03  0.7818608E-02  0.1284810E+00
          2   -1    0    0  502    0  0.00000000000E+00  0.00000000000E+00  0.18746899031E+04  0.18746899031E+04  0.00000000000E+00 0. -1.
          1   -1    0    0  501    0 -0.00000000000E+00 -0.00000000000E+00 -0.25665738414E+03  0.25665738414E+03  0.00000000000E+00 0. -1.
         25    2    1    2    0    0  0.46818307978E+02 -0.48321006593E+02  0.95611713269E+02  0.17115490151E+03  0.12500210781E+03 0.  0.
          2    1    1    2  501    0 -0.48821891538E+02 -0.68738151581E+02 -0.20871560868E+03  0.22510156793E+03  0.00000000000E+00 0. -1.
          1    1    1    2  502    0  0.20035835600E+01  0.11705915817E+03  0.17311364144E+04  0.17350908178E+04  0.00000000000E+00 0. -1.
         22    1    3    3    0    0  0.17447363758E+02 -0.32615635567E+02 -0.25903856497E+02  0.45157501779E+02  0.00000000000E+00 0. -1.
         22    1    3    3    0    0  0.29370944220E+02 -0.15705371026E+02  0.12151556977E+03  0.12599739973E+03  0.00000000000E+00 0. -1.
</event>
<event>
 7    1  0.6122298E-006  0.3485939E+02  0.7818608E-02  0.1594420E+00
          2   -1    0    0  502    0  0.00000000000E+00  0.00000000000E+00  0.40091305237E+04  0.40091305237E+04  0.00000000000E+00 0. -1.
          1   -1    0    0  501    0 -0.00000000000E+00 -0.00000000000E+00 -0.10020108847E+03  0.10020108847E+03  0.00000000000E+00 0. -1.
         25    2    1    2    0    0 -0.54049740537E+02 -0.12573822991E+02  0.18850987771E+04  0.18900535237E+04  0.12500179084E+03 0.  0.
          2    1    1    2  501    0  0.25701566304E+02 -0.60192301403E+01 -0.95803110619E+02  0.99373223990E+02  0.00000000000E+00 0. -1.
          1    1    1    2  502    0  0.28348174233E+02  0.18593053131E+02  0.21196337688E+04  0.21199048645E+04  0.00000000000E+00 0. -1.
         22    1    3    3    0    0 -0.85117595733E+02 -0.36664382497E+02  0.15253706930E+04  0.15281835731E+04  0.00000000000E+00 0.  1.
         22    1    3    3    0    0  0.31067855196E+02  0.24090559506E+02  0.35972808406E+03  0.36186995060E+03  0.00000000000E+00 0.  1.
</event>
<event>
 7    1  0.6122298E-006  0.1240860E+03  0.7818608E-02  0.1364586E+00
          2   -1    0    0  502    0  0.00000000000E+00  0.00000000000E+00  0.90781989443E+03  0.90781989443E+03  0.00000000000E+00 0. -1.
          1   -1    0    0  501    0 -0.00000000000E+00 -0.00000000000E+00 -0.74322226349E+02  0.74322226349E+02  0.00000000000E+00 0. -1.
         25    2    1    2    0    0 -0.12299769069E+03 -0.44709088650E+02  0.65085540753E+02  0.19232593520E+03  0.12500321282E+03 0.  0.
          2    1    1    2  501    0  0.11040897628E+03  0.88223765829E+01  0.29882604239E+03  0.31869261049E+03  0.00000000000E+00 0. -1.
          1    1    1    2  502    0  0.12588714409E+02  0.35886712067E+02  0.46958608494E+03  0.47112357509E+03  0.00000000000E+00 0. -1.
         22    1    3    3    0    0 -0.54796854699E+01 -0.45935045584E+02  0.58549814312E+02  0.74619944530E+02  0.00000000000E+00 0. -1.
         22    1    3    3    0    0 -0.11751800522E+03  0.12259569338E+01  0.65357264408E+01  0.11770599067E+03  0.00000000000E+00 0. -1.
</event>
<event>
 7    1  0.6122298E-006  0.8397201E+02  0.7818608E-02  0.1470491E+00
          2   -1    0    0  502    0  0.00000000000E+00  0.00000000000E+00  0.87955164413E+02  0.87955164413E+02  0.00000000000E+00 0. -1.
          1   -1    0    0  501    0 -0.00000000000E+00 -0.00000000000E+00 -0.12926075642E+04  0.12926075642E+04  0.00000000000E+00 0. -1.
         25    2    1    2    0    0 -0.27379816618E+02 -0.57597648286E+02 -0.45453539897E+03  0.47570406921E+03  0.12499915640E+03 0.  0.
          2    1    1    2  501    0 -0.21820498501E+02 -0.11759121011E+02 -0.80387411175E+03  0.80425617724E+03  0.00000000000E+00 0. -1.
          1    1    1    2  502    0  0.49200315119E+02  0.69356769297E+02  0.53757110890E+02  0.10060248221E+03  0.00000000000E+00 0. -1.
         22    1    3    3    0    0  0.15106863440E+01  0.29844213381E+02 -0.24511573005E+03  0.24693051728E+03  0.00000000000E+00 0.  1.
         22    1    3    3    0    0 -0.28890502962E+02 -0.87441861668E+02 -0.20941966892E+03  0.22877355193E+03  0.00000000000E+00 0.  1.
</event>
<event>
 7    1  0.6122298E-006  0.8654399E+02  0.7818608E-02  0.1363164E+00
          2   -1    0    0  502    0  0.00000000000E+00  0.00000000000E+00  0.33593121256E+04  0.33593121256E+04  0.00000000000E+00 0. -1.
          1   -1    0    0  501    0 -0.00000000000E+00 -0.00000000000E+00 -0.29043868526E+03  0.29043868526E+03  0.00000000000E+00 0. -1.
         25    2    1    2    0    0 -0.72147292423E+02 -0.86172869825E+02  0.13064722130E+03  0.21289753914E+03  0.12500268174E+03 0.  0.
          2    1    1    2  501    0  0.79988934547E+02  0.31553334696E+02 -0.24165283910E+03  0.25649549163E+03  0.00000000000E+00 0. -1.
          1    1    1    2  502    0 -0.78416421238E+01  0.54619535129E+02  0.31798790581E+04  0.31803577801E+04  0.00000000000E+00 0. -1.
         22    1    3    3    0    0 -0.32602370401E+01 -0.67312085351E+02  0.40128001569E+01  0.67510358798E+02  0.00000000000E+00 0.  1.
         22    1    3    3    0    0 -0.68887055383E+02 -0.18860784474E+02  0.12663442114E+03  0.14538718034E+03  0.00000000000E+00 0.  1.
</event>
<event>
 7    1  0.6122298E-006  0.1187896E+03  0.7818608E-02  0.1430620E+00
          2   -1    0    0  502    0  0.00000000000E+00  0.00000000000E+00  0.34473624443E+03  0.34473624443E+03  0.00000000000E+00 0. -1.
          1   -1    0    0  501    0 -0.00000000000E+00 -0.00000000000E+00 -0.48230215744E+03  0.48230215744E+03  0.00000000000E+00 0. -1.
         25    2    1    2    0    0  0.12047598298E+03 -0.24249076790E+02 -0.48892842355E+02  0.18199284873E+03  0.12501362627E+03 0.  0.
          2    1    1    2  501    0 -0.11847802349E+03  0.83366613881E+00 -0.35676571459E+03  0.37592487568E+03  0.00000000000E+00 0. -1.
          1    1    1    2  502    0 -0.19979594957E+01  0.23415410651E+02  0.26809264394E+03  0.26912067746E+03  0.00000000000E+00 0. -1.
         22    1    3    3    0    0  0.13656750242E+03 -0.17393106077E+02 -0.70110572833E+02  0.15449496846E+03  0.00000000000E+00 0. -1.
         22    1    3    3    0    0 -0.16091519442E+02 -0.68559707136E+01  0.21217730478E+02  0.27497880264E+02  0.00000000000E+00 0. -1.
</event>
<event>
 7    1  0.6122298E-006  0.1070039E+03  0.7818608E-02  0.1380721E+00
          2   -1    0    0  502    0  0.00000000000E+00  0.00000000000E+00  0.94520877809E+03  0.94520877809E+03  0.00000000000E+00 0. -1.
          1   -1    0    0  501    0 -0.00000000000E+00 -0.00000000000E+00 -0.10369519873E+03  0.10369519873E+03  0.00000000000E+00 0. -1.
         25    2    1    2    0    0 -0.78198098847E+02 -0.91338838194E+01  0.45101501794E+03  0.47458854063E+03  0.12498546314E+03 0.  0.
          2    1    1    2  501    0  0.10166741801E+03  0.39789739619E+02 -0.58362592486E+02  0.12379692834E+03  0.00000000000E+00 0. -1.
          1    1    1    2  502    0 -0.23469319162E+02 -0.30655855800E+02  0.44886115390E+03  0.45051850785E+03  0.00000000000E+00 0. -1.
         22    1    3    3    0    0 -0.68338944993E+02 -0.59527918872E+02  0.22002124342E+03  0.23795615580E+03  0.00000000000E+00 0. -1.
         22    1    3    3    0    0 -0.98591538537E+01  0.50394035052E+02  0.23099377452E+03  0.23663238483E+03  0.00000000000E+00 0. -1.
</event>
<event>
 7    1  0.6122298E-006  0.5960550E+02  0.7818608E-02  0.1461017E+00
          2   -1    0    0  502    0  0.00000000000E+00  0.00000000000E+00  0.30866357307E+03  0.30866357307E+03  0.00000000000E+00 0. -1.
          1   -1    0    0  501    0 -0.00000000000E+00 -0.00000000000E+00 -0.30881233326E+03  0.30881233326E+03  0.00000000000E+00 0. -1.
         25    2    1    2    0    0  0.74524353021E+01 -0.50490195779E+02 -0.27794054486E+02  0.13785177644E+03  0.12500321652E+03 0.  0.
          2    1    1    2  501    0 -0.43937470285E+02  0.42326888159E+02 -0.22044556939E+03  0.22873197376E+03  0.00000000000E+00 0. -1.
          1    1    1    2  502    0  0.36485034983E+02  0.81633076194E+01  0.24809086369E+03  0.25089215614E+03  0.00000000000E+00 0. -1.
         22    1    3    3    0    0 -0.48638817804E+02 -0.58118594722E+01 -0.42262361976E+02  0.64696364254E+02  0.00000000000E+00 0.  1.
         22    1    3    3    0    0  0.56091253106E+02 -0.44678336306E+02  0.14468307490E+02  0.73155412183E+02  0.00000000000E+00 0.  1.
</event>
<event>
 7    1  0.6122298E-006  0.7047304E+02  0.7818608E-02  0.1374154E+00
          2   -1    0    0  502    0  0.00000000000E+00  0.00000000000E+00  0.19538208957E+04  0.19538208957E+04  0.00000000000E+00 0. -1.
          1   -1    0    0  501    0 -0.00000000000E+00 -0.00000000000E+00 -0.69110713869E+02  0.69110713869E+02  0.00000000000E+00 0. -1.
         25    2    1    2    0    0 -0.25438703067E+02 -0.32051078711E+02  0.84609331981E+03  0.85625412985E+03  0.12499131891E+03 0.  0.
          2    1    1    2  501    0  0.70978981720E+02 -0.98134304295E+01 -0.42819394698E+02  0.83473467791E+02  0.00000000000E+00 0. -1.
          1    1    1    2  502    0 -0.45540278653E+02  0.41864509140E+02  0.10814362567E+04  0.10832040119E+04  0.00000000000E+00 0. -1.
         22    1    3    3    0    0  0.20225080840E+01  0.46093496224E+02  0.22671983377E+03  0.23136677367E+03  0.00000000000E+00 0.  1.
         22    1    3    3    0    0 -0.27461211151E+02 -0.78144574934E+02  0.61937348604E+03  0.62488735619E+03  0.00000000000E+00 0.  1.
</event>
<event>
 7    1  0.6122298E-006  0.7662703E+02  0.7818608E-02  0.1388065E+00
          2   -1    0    0  502    0  0.00000000000E+00  0.00000000000E+00  0.13854050733E+04  0.13854050733E+04  0.00000000000E+00 0. -1.
          1   -1    0    0  501    0 -0.00000000000E+00 -0.00000000000E+00 -0.26901307427E+02  0.26901307427E+02  0.00000000000E+00 0. -1.
         25    2    1    2    0    0  0.39454581338E+02  0.54851042167E+02  0.49373879803E+03  0.51377852974E+03  0.12500030450E+03 0.  0.
          2    1    1    2  501    0 -0.78073971060E+02 -0.21849571336E+02  0.86305938101E+02  0.11841310601E+03  0.00000000000E+00 0. -1.
          1    1    1    2  502    0  0.38619389721E+02 -0.33001470830E+02  0.77845902973E+03  0.78011474496E+03  0.00000000000E+00 0. -1.
         22    1    3    3    0    0  0.31623409753E+02  0.41265995119E+02  0.49529937921E+03  0.49802047893E+03  0.00000000000E+00 0. -1.
         22    1    3    3    0    0  0.78311715857E+01  0.13585047048E+02 -0.15605811705E+01  0.15758050808E+02  0.00000000000E+00 0. -1.
</event>
<event>
 7    1  0.6122298E-006  0.1705796E+03  0.7818608E-02  0.1344583E+00
          2   -1    0    0  502    0  0.00000000000E+00  0.00000000000E+00  0.25496240864E+04  0.25496240864E+04  0.00000000000E+00 0. -1.
          1   -1    0    0  501    0 -0.00000000000E+00 -0.00000000000E+00 -0.14639522083E+04  0.14639522083E+04  0.00000000000E+00 0. -1.
         25    2    1    2    0    0  0.11488963549E+03  0.88615718224E+02  0.60647667406E+03  0.63599833950E+03  0.12501023081E+03 0.  0.
          2    1    1    2  501    0 -0.12066435429E+03 -0.12087723018E+03 -0.14440189488E+04  0.14540845628E+04  0.00000000000E+00 0. -1.
          1    1    1    2  502    0  0.57747187976E+01  0.32261511954E+02  0.19232141529E+04  0.19234933923E+04  0.00000000000E+00 0. -1.
         22    1    3    3    0    0 -0.16934024562E+02 -0.14721895738E+02  0.48827254228E+02  0.53736357872E+02  0.00000000000E+00 0.  1.
         22    1    3    3    0    0  0.13182366005E+03  0.10333761396E+03  0.55764941983E+03  0.58226198163E+03  0.00000000000E+00 0.  1.
</event>
<event>
 7    1  0.6122298E-006  0.6622344E+02  0.7818608E-02  0.1441204E+00
          2   -1    0    0  502    0  0.00000000000E+00  0.00000000000E+00  0.85472453494E+03  0.85472453494E+03  0.00000000000E+00 0. -1.
          1   -1    0    0  501    0 -0.00000000000E+00 -0.00000000000E+00 -0.24898129951E+03  0.24898129951E+03  0.00000000000E+00 0. -1.
         25    2    1    2    0    0 -0.55617486021E+02  0.70178852041E+02  0.40569774794E+03  0.43385598425E+03  0.12498790488E+03 0.  0.
          2    1    1    2  501    0  0.37758829699E+02 -0.94807918958E+01 -0.23096352797E+03  0.23422161704E+03  0.00000000000E+00 0. -1.
          1    1    1    2  502    0  0.17858656321E+02 -0.60698060146E+02  0.43100901547E+03  0.43562823316E+03  0.00000000000E+00 0. -1.
         22    1    3    3    0    0 -0.54172572451E+02  0.94062106647E+02  0.20709985469E+03  0.23382193509E+03  0.00000000000E+00 0. -1.
         22    1    3    3    0    0 -0.14449135699E+01 -0.23883254605E+02  0.19859789324E+03  0.20003404917E+03  0.00000000000E+00 0. -1.
</event>
<event>
 7    1  0.6122298E-006  0.5369138E+02  0.7818608E-02  0.1443385E+00
          2   -1    0    0  502    0  0.00000000000E+00  0.00000000000E+00  0.23650351158E+03  0.23650351158E+03  0.00000000000E+00 0. -1.
          1   -1    0    0  501    0 -0.00000000000E+00 -0.00000000000E+00 -0.71703786229E+03  0.71703786229E+03  0.00000000000E+00 0. -1.
         25    2    1    2    0    0  0.49627048556E+01 -0.25110065507E+02 -0.19126063979E+03  0.22991222351E+03  0.12499541735E+03 0.  0.
          2    1    1    2  501    0  0.39556152292E+02  0.40923328016E+02 -0.50225567732E+03  0.50547024972E+03  0.00000000000E+00 0. -1.
          1    1    1    2  502    0 -0.44518857147E+02 -0.15813262509E+02  0.21298196640E+03  0.21815890063E+03  0.00000000000E+00 0. -1.
         22    1    3    3    0    0 -0.48452571495E+02  0.17769942461E+02 -0.45264772727E+02  0.68646355981E+02  0.00000000000E+00 0. -1.
         22    1    3    3    0    0  0.53415276350E+02 -0.42880007969E+02 -0.14599586706E+03  0.16126586753E+03  0.00000000000E+00 0. -1.
</event>
<event>
 7    1  0.6122298E-006  0.8030893E+02  0.7818608E-02  0.1476030E+00
          2   -1    0    0  502    0  0.00000000000E+00  0.00000000000E+00  0.73046593997E+03  0.73046593997E+03  0.00000000000E+00 0. -1.
          1   -1    0    0  501    0 -0.00000000000E+00 -0.00000000000E+00 -0.79797993300E+03  0.79797993300E+03  0.00000000000E+00 0. -1.
         25    2    1    2    0    0 -0.41640196170E+02  0.72677164322E+02  0.22881514240E+03  0.27385601783E+03  0.12499949183E+03 0.  0.
          2    1    1    2  501    0 -0.17184216112E+02 -0.18039444966E+02 -0.77189392631E+03  0.77229589687E+03  0.00000000000E+00 0. -1.
          1    1    1    2  502    0  0.58824412282E+02 -0.54637719356E+02  0.47556479087E+03  0.48229395826E+03  0.00000000000E+00 0. -1.
         22    1    3    3    0    0 -0.56978268720E+02  0.58818554581E+02  0.23765890099E+03  0.25137203243E+03  0.00000000000E+00 0. -1.
         22    1    3    3    0    0  0.15338072549E+02  0.13858609740E+02 -0.88437585864E+01  0.22483985398E+02  0.00000000000E+00 0. -1.
</event>
<event>
 7    1  0.6562316E-006  0.7674603E+02  0.7818608E-02  0.1374713E+00
          2   -1    0    0  502    0  0.00000000000E+00  0.00000000000E+00  0.24182863585E+04  0.24182863585E+04  0.00000000000E+00 0. -1.
          1   -1    0    0  501    0 -0.00000000000E+00 -0.00000000000E+00 -0.58753064122E+03  0.58753064122E+03  0.00000000000E+00 0. -1.
         25    2    1    2    0    0 -0.28086263895E+02  0.12823092506E+03 -0.51264881909E+02  0.18837827857E+03  0.12500511733E+03 0.  0.
          2    1    1    2  501    0  0.15275634344E+01 -0.56521925287E+02 -0.46537528450E+03  0.46879762895E+03  0.00000000000E+00 0. -1.
          1    1    1    2  502    0  0.26558700460E+02 -0.71708999768E+02  0.23473958837E+04  0.23486410922E+04  0.00000000000E+00 0. -1.
         22    1    3    3    0    0 -0.15231112559E+02  0.39560887475E+01 -0.61061655706E+02  0.63056825369E+02  0.00000000000E+00 0. -1.
         22    1    3    3    0    0 -0.12855151336E+02  0.12427483631E+03  0.97967737975E+01  0.12532145320E+03  0.00000000000E+00 0. -1.
</event>
<event>
 7    1  0.6122298E-006  0.8834367E+02  0.7818608E-02  0.1330621E+00
          2   -1    0    0  502    0  0.00000000000E+00  0.00000000000E+00  0.79158430566E+03  0.79158430566E+03  0.00000000000E+00 0. -1.
          1   -1    0    0  501    0 -0.00000000000E+00 -0.00000000000E+00 -0.61665282760E+03  0.61665282760E+03  0.00000000000E+00 0. -1.
         25    2    1    2    0    0  0.14503725764E+03 -0.46527207635E+02 -0.56156264108E+02  0.20488701544E+03  0.12499830376E+03 0.  0.
          2    1    1    2  501    0 -0.71450838615E+02 -0.14316654820E+00 -0.48083482836E+03  0.48611456982E+03  0.00000000000E+00 0. -1.
          1    1    1    2  502    0 -0.73586419020E+02  0.46670374183E+02  0.71192257052E+03  0.71723554800E+03  0.00000000000E+00 0. -1.
         22    1    3    3    0    0  0.10863469919E+03 -0.34903090240E+02 -0.96412068214E+02  0.14938209556E+03  0.00000000000E+00 0. -1.
         22    1    3    3    0    0  0.36402558450E+02 -0.11624117395E+02  0.40255804105E+02  0.55504919882E+02  0.00000000000E+00 0. -1.
</event>
<event>
 7    1  0.6122298E-006  0.1730882E+03  0.7818608E-02  0.1290014E+00
          2   -1    0    0  502    0  0.00000000000E+00  0.00000000000E+00  0.96557541387E+03  0.96557541387E+03  0.00000000000E+00 0. -1.
          1   -1    0    0  501    0 -0.00000000000E+00 -0.00000000000E+00 -0.38369586534E+03  0.38369586534E+03  0.00000000000E+00 0. -1.
         25    2    1    2    0    0  0.17757677744E+03  0.42413748566E+02  0.15723303393E+03  0.27143995328E+03  0.12499993331E+03 0.  0.
          2    1    1    2  501    0 -0.52871809829E+01 -0.52444988470E+02 -0.31445803938E+03  0.31884524401E+03  0.00000000000E+00 0. -1.
          1    1    1    2  502    0 -0.17228959646E+03  0.10031239903E+02  0.73910455398E+03  0.75898608192E+03  0.00000000000E+00 0. -1.
         22    1    3    3    0    0  0.16459663475E+01 -0.30410114701E+02  0.27532052029E+02  0.41054819087E+02  0.00000000000E+00 0. -1.
         22    1    3    3    0    0  0.17593081109E+03  0.72823863267E+02  0.12970098190E+03  0.23038513420E+03  0.00000000000E+00 0. -1.
</event>
<event>
 7    1  0.6122298E-006  0.4140729E+03  0.7818608E-02  0.1257017E+00
          2   -1    0    0  502    0  0.00000000000E+00  0.00000000000E+00  0.26010617932E+04  0.26010617932E+04  0.00000000000E+00 0. -1.
          1   -1    0    0  501    0 -0.00000000000E+00 -0.00000000000E+00 -0.12596070468E+03  0.12596070468E+03  0.00000000000E+00 0. -1.
         25    2    1    2    0    0  0.27362300078E+03  0.28723262148E+03  0.15943689513E+04  0.16477286202E+04  0.12500050924E+03 0.  0.
          2    1    1    2  501    0 -0.30386267026E+03 -0.28840443994E+03  0.34500762854E+03  0.54271530944E+03  0.00000000000E+00 0. -1.
          1    1    1    2  502    0  0.30239669475E+02  0.11718184595E+01  0.53572450868E+03  0.53657856831E+03  0.00000000000E+00 0. -1.
         22    1    3    3    0    0  0.42824536134E+02  0.99795534837E+02  0.60427907383E+03  0.61395951718E+03  0.00000000000E+00 0.  1.
         22    1    3    3    0    0  0.23079846465E+03  0.18743708664E+03  0.99008987750E+03  0.10337691030E+04  0.00000000000E+00 0.  1.
</event>
<event>
 7    1  0.6122298E-006  0.1336370E+03  0.7818608E-02  0.1280736E+00
          2   -1    0    0  502    0  0.00000000000E+00  0.00000000000E+00  0.77828267664E+03  0.77828267664E+03  0.00000000000E+00 0. -1.
          1   -1    0    0  501    0 -0.00000000000E+00 -0.00000000000E+00 -0.37505272071E+03  0.37505272071E+03  0.00000000000E+00 0. -1.
         25    2    1    2    0    0  0.82457012966E+02 -0.83882695622E+02  0.18324551839E+03  0.25107589519E+03  0.12499887809E+03 0.  0.
          2    1    1    2  501    0  0.55205636147E+02  0.50051609630E+02 -0.32793717798E+03  0.33629692028E+03  0.00000000000E+00 0. -1.
          1    1    1    2  502    0 -0.13766264911E+03  0.33831085993E+02  0.54792161552E+03  0.56596258188E+03  0.00000000000E+00 0. -1.
         22    1    3    3    0    0 -0.15427549217E+02  0.14857421599E+02  0.46363984538E+00  0.21423520096E+02  0.00000000000E+00 0. -1.
         22    1    3    3    0    0  0.97884562183E+02 -0.98740117221E+02  0.18278187855E+03  0.22965237510E+03  0.00000000000E+00 0. -1.
</event>
<event>
 7    1  0.7155120E-006  0.1288516E+03  0.7818608E-02  0.1356835E+00
          2   -1    0    0  502    0  0.00000000000E+00  0.00000000000E+00  0.66138472176E+03  0.66138472176E+03  0.00000000000E+00 0. -1.
          1   -1    0    0  501    0 -0.00000000000E+00 -0.00000000000E+00 -0.15993600940E+04  0.15993600940E+04  0.00000000000E+00 0. -1.
         25    2    1    2    0    0  0.86632813519E+02 -0.12120073427E+03 -0.28454764587E+03  0.34465522611E+03  0.12499999900E+03 0.  0.
          2    1    1    2  501    0  0.10920729953E+02  0.37529709675E+02 -0.12779159980E+04  0.12785136055E+04  0.00000000000E+00 0. -1.
          1    1    1    2  502    0 -0.97553543472E+02  0.83671024599E+02  0.62448827163E+03  0.63757598418E+03  0.00000000000E+00 0. -1.
         22    1    3    3    0    0  0.54704820044E+02 -0.21750499132E+02 -0.23321810568E+02  0.63321468687E+02  0.00000000000E+00 0. -1.
         22    1    3    3    0    0  0.31927993475E+02 -0.99450235142E+02 -0.26122583530E+03  0.28133375742E+03  0.00000000000E+00 0. -1.
</event>
<event>
 7    1  0.6122298E-006  0.1110885E+03  0.7818608E-02  0.1427617E+00
          2   -1    0    0  502    0  0.00000000000E+00  0.00000000000E+00  0.16209253422E+04  0.16209253422E+04  0.00000000000E+00 0. -1.
          1   -1    0    0  501    0 -0.00000000000E+00 -0.00000000000E+00 -0.20715325963E+02  0.20715325963E+02  0.00000000000E+00 0. -1.
         25    2    1    2    0    0 -0.83149996244E+02  0.38285598242E+02  0.42574572791E+03  0.45306081568E+03  0.12499987584E+03 0.  0.
          2    1    1    2  501    0 -0.25708310758E+02 -0.18732008542E+00  0.35719459212E+02  0.44009454635E+02  0.00000000000E+00 0. -1.
          1    1    1    2  502    0  0.10885830700E+03 -0.38098278157E+02  0.11387448291E+04  0.11445703978E+04  0.00000000000E+00 0. -1.
         22    1    3    3    0    0 -0.60592035820E+01 -0.30041471378E+02  0.25795918216E+02  0.40057874971E+02  0.00000000000E+00 0.  1.
         22    1    3    3    0    0 -0.77090792662E+02  0.68327069621E+02  0.39994980970E+03  0.41300294071E+03  0.00000000000E+00 0.  1.
</event>
<event>
 7    1  0.6122298E-006  0.3970320E+02  0.7818608E-02  0.1529722E+00
          2   -1    0    0  502    0  0.00000000000E+00  0.00000000000E+00  0.12398568868E+04  0.12398568868E+04  0.00000000000E+00 0. -1.
          1   -1    0    0  501    0 -0.00000000000E+00 -0.00000000000E+00 -0.29977915073E+03  0.29977915073E+03  0.00000000000E+00 0. -1.
         25    2    1    2    0    0 -0.80001620977E+01  0.68955879478E+01  0.12163101895E+03  0.17472840454E+03  0.12499743539E+03 0.  0.
          2    1    1    2  501    0 -0.33360812446E+01 -0.39895743379E+02 -0.27148323621E+03  0.27441929109E+03  0.00000000000E+00 0. -1.
          1    1    1    2  502    0  0.11336243342E+02  0.33000155431E+02  0.10899299533E+04  0.10904883419E+04  0.00000000000E+00 0. -1.
         22    1    3    3    0    0  0.31486909811E+02  0.14946395718E+02 -0.10649912479E+02  0.36445039034E+02  0.00000000000E+00 0.  1.
         22    1    3    3    0    0 -0.39487071908E+02 -0.80508077707E+01  0.13228093143E+03  0.13828336550E+03  0.00000000000E+00 0.  1.
</event>
<event>
 7    1  0.6122298E-006  0.1323937E+03  0.7818608E-02  0.1307645E+00
          2   -1    0    0  502    0  0.00000000000E+00  0.00000000000E+00  0.15079041772E+04  0.15079041772E+04  0.00000000000E+00 0. -1.
          1   -1    0    0  501    0 -0.00000000000E+00 -0.00000000000E+00 -0.19789217374E+03  0.19789217374E+03  0.00000000000E+00 0. -1.
         25    2    1    2    0    0 -0.98466023135E+02  0.34086991006E+02  0.66205790979E+03  0.68176479988E+03  0.12500034306E+03 0.  0.
          2    1    1    2  501    0  0.96469935647E+02 -0.92611231559E+02 -0.16307278504E+03  0.21089338993E+03  0.00000000000E+00 0. -1.
          1    1    1    2  502    0  0.19960874885E+01  0.58524240552E+02  0.81102687868E+03  0.81313816110E+03  0.00000000000E+00 0. -1.
         22    1    3    3    0    0 -0.55475286320E+01  0.53236547812E+02  0.11901502429E+03  0.13049705401E+03  0.00000000000E+00 0.  1.
         22    1    3    3    0    0 -0.92918494503E+02 -0.19149556806E+02  0.54304288550E+03  0.55126774587E+03  0.00000000000E+00 0.  1.
</event>
<event>
 7    1  0.6122298E-006  0.5379859E+02  0.7818608E-02  0.1488270E+00
          2   -1    0    0  502    0  0.00000000000E+00  0.00000000000E+00  0.65713109369E+03  0.65713109369E+03  0.00000000000E+00 0. -1.
          1   -1    0    0  501    0 -0.00000000000E+00 -0.00000000000E+00 -0.60135439073E+03  0.60135439073E+03  0.00000000000E+00 0. -1.
         25    2    1    2    0    0  0.32405898090E+02  0.60566637853E+02 -0.21961388746E+03  0.26186700166E+03  0.12500242854E+03 0.  0.
          2    1    1    2  501    0  0.12888523564E+02 -0.31591514757E+02 -0.35866644306E+03  0.36028565781E+03  0.00000000000E+00 0. -1.
          1    1    1    2  502    0 -0.45294421654E+02 -0.28975123096E+02  0.63405703349E+03  0.63633282495E+03  0.00000000000E+00 0. -1.
         22    1    3    3    0    0  0.19098919488E+02  0.11127576098E+02  0.11661988331E+02  0.24991871624E+02  0.00000000000E+00 0. -1.
         22    1    3    3    0    0  0.13306978602E+02  0.49439061756E+02 -0.23127587579E+03  0.23687513004E+03  0.00000000000E+00 0. -1.
</event>
<event>
 7    1  0.6122298E-006  0.8872668E+02  0.7818608E-02  0.1394907E+00
          2   -1    0    0  502    0  0.00000000000E+00  0.00000000000E+00  0.13084668934E+04  0.13084668934E+04  0.00000000000E+00 0. -1.
          1   -1    0    0  501    0 -0.00000000000E+00 -0.00000000000E+00 -0.41097492735E+03  0.41097492735E+03  0.00000000000E+00 0. -1.
         25    2    1    2    0    0  0.23593605565E+01 -0.12722140352E+03  0.32686180245E+03  0.37236345943E+03  0.12500022369E+03 0.  0.
          2    1    1    2  501    0  0.10112120982E+02  0.87608502722E+02 -0.38275782782E+03  0.39278627713E+03  0.00000000000E+00 0. -1.
          1    1    1    2  502    0 -0.12471481538E+02  0.39612900799E+02  0.95338799145E+03  0.95429208422E+03  0.00000000000E+00 0. -1.
         22    1    3    3    0    0  0.50873466499E+02 -0.11630689883E+03  0.21041456829E+03  0.24574314814E+03  0.00000000000E+00 0. -1.
         22    1    3    3    0    0 -0.48514105943E+02 -0.10914504691E+02  0.11644723416E+03  0.12662031129E+03  0.00000000000E+00 0. -1.
</event>
<event>
 7    1  0.6122298E-006  0.1544184E+03  0.7818608E-02  0.1370585E+00
          2   -1    0    0  502    0  0.00000000000E+00  0.00000000000E+00  0.32043310261E+03  0.32043310261E+03  0.00000000000E+00 0. -1.
          1   -1    0    0  501    0 -0.00000000000E+00 -0.00000000000E+00 -0.13489472374E+04  0.13489472374E+04  0.00000000000E+00 0. -1.
         25    2    1    2    0    0  0.76098730947E+01  0.15209728644E+03  0.84984879216E+02  0.21456317379E+03  0.12499372441E+03 0.  0.
          2    1    1    2  501    0  0.21448297866E+02 -0.15307121687E+03 -0.12782293516E+04  0.12875407186E+04  0.00000000000E+00 0. -1.
          1    1    1    2  502    0 -0.29058170961E+02  0.97393043151E+00  0.16473033750E+03  0.16727644764E+03  0.00000000000E+00 0. -1.
         22    1    3    3    0    0  0.40609227308E+02  0.14670979831E+03  0.38003774945E+02  0.15689856970E+03  0.00000000000E+00 0.  1.
         22    1    3    3    0    0 -0.32999354213E+02  0.53874881296E+01  0.46981104271E+02  0.57664604094E+02  0.00000000000E+00 0.  1.
</event>
<event>
 7    1  0.6122298E-006  0.1073685E+03  0.7818608E-02  0.1367664E+00
          2   -1    0    0  502    0  0.00000000000E+00  0.00000000000E+00  0.10815630791E+04  0.10815630791E+04  0.00000000000E+00 0. -1.
          1   -1    0    0  501    0 -0.00000000000E+00 -0.00000000000E+00 -0.21504177465E+03  0.21504177465E+03  0.00000000000E+00 0. -1.
         25    2    1    2    0    0 -0.10742647534E+03  0.89497394776E+02  0.58030437650E+02  0.19632394908E+03  0.12500132004E+03 0.  0.
          2    1    1    2  501    0  0.13164413924E+02 -0.40767303986E+02 -0.13972556582E+03  0.14614550493E+03  0.00000000000E+00 0. -1.
          1    1    1    2  502    0  0.94262061417E+02 -0.48730090790E+02  0.94821643262E+03  0.95413539975E+03  0.00000000000E+00 0. -1.
         22    1    3    3    0    0 -0.13545220168E+03  0.79846223192E+02  0.54786117940E+02  0.16650596691E+03  0.00000000000E+00 0. -1.
         22    1    3    3    0    0  0.28025726343E+02  0.96511715840E+01  0.32443197105E+01  0.29817982165E+02  0.00000000000E+00 0. -1.
</event>
<event>
 7    1  0.6122298E-006  0.8905534E+02  0.7818608E-02  0.1330094E+00
          2   -1    0    0  502    0  0.00000000000E+00  0.00000000000E+00  0.72507454255E+02  0.72507454255E+02  0.00000000000E+00 0. -1.
          1   -1    0    0  501    0 -0.00000000000E+00 -0.00000000000E+00 -0.67885331475E+03  0.67885331475E+03  0.00000000000E+00 0. -1.
         25    2    1    2    0    0 -0.15992247341E+02  0.25831601576E+02 -0.11555450195E+03  0.17291960679E+03  0.12500129549E+03 0.  0.
          2    1    1    2  501    0 -0.76158544474E+02 -0.46159823229E+02 -0.47436964974E+03  0.48265662512E+03  0.00000000000E+00 0. -1.
          1    1    1    2  502    0  0.92150791816E+02  0.20328221652E+02 -0.16421708807E+02  0.95784537103E+02  0.00000000000E+00 0. -1.
         22    1    3    3    0    0 -0.68878014764E+02  0.97678329922E+01 -0.84742697078E+02  0.10963993883E+03  0.00000000000E+00 0. -1.
         22    1    3    3    0    0  0.52885767423E+02  0.16063768584E+02 -0.30811804877E+02  0.63279667957E+02  0.00000000000E+00 0. -1.
</event>
<event>
 7    1  0.6122298E-006  0.3391647E+03  0.7818608E-02  0.1303343E+00
          2   -1    0    0  502    0  0.00000000000E+00  0.00000000000E+00  0.24270342836E+04  0.24270342836E+04  0.00000000000E+00 0. -1.
          1   -1    0    0  501    0 -0.00000000000E+00 -0.00000000000E+00 -0.12790901491E+03  0.12790901491E+03  0.00000000000E+00 0. -1.
         25    2    1    2    0    0  0.22019561946E+03  0.24130062086E+03  0.18119175725E+04  0.18453682169E+04  0.12500586361E+03 0.  0.
          2    1    1    2  501    0 -0.21520572721E+03 -0.26454593092E+03  0.15173002216E+03  0.37325601698E+03  0.00000000000E+00 0. -1.
          1    1    1    2  502    0 -0.49898922482E+01  0.23245310058E+02  0.33547767403E+03  0.33631906463E+03  0.00000000000E+00 0. -1.
         22    1    3    3    0    0  0.73648924763E+02  0.10440492040E+03  0.10402979094E+04  0.10481146368E+04  0.00000000000E+00 0.  1.
         22    1    3    3    0    0  0.14654669469E+03  0.13689570046E+03  0.77161966309E+03  0.79725358011E+03  0.00000000000E+00 0.  1.
</event>
<event>
 7    1  0.6122298E-006  0.1204556E+03  0.7818608E-02  0.1405657E+00
          2   -1    0    0  502    0  0.00000000000E+00  0.00000000000E+00  0.89242331186E+03  0.89242331186E+03  0.00000000000E+00 0. -1.
          1   -1    0    0  501    0 -0.00000000000E+00 -0.00000000000E+00 -0.61442201485E+02  0.61442201485E+02  0.00000000000E+00 0. -1.
         25    2    1    2    0    0  0.88242888146E+02 -0.11400511597E+03  0.24806794531E+03  0.31296453872E+03  0.12500049290E+03 0.  0.
          2    1    1    2  501    0 -0.19937353736E+02  0.19795171457E+02 -0.14945282481E+02  0.31823078975E+02  0.00000000000E+00 0. -1.
          1    1    1    2  502    0 -0.68305534409E+02  0.94209944517E+02  0.59785844754E+03  0.60907789565E+03  0.00000000000E+00 0. -1.
         22    1    3    3    0    0  0.11094733609E+03 -0.90256870457E+02  0.14049306345E+03  0.20048420119E+03  0.00000000000E+00 0. -1.
         22    1    3    3    0    0 -0.22704447942E+02 -0.23748245517E+02  0.10757488187E+03  0.11248033753E+03  0.00000000000E+00 0. -1.
</event>
<event>
 7    1  0.6122298E-006  0.4893698E+02  0.7818608E-02  0.1546772E+00
          2   -1    0    0  502    0  0.00000000000E+00  0.00000000000E+00  0.10656729918E+03  0.10656729918E+03  0.00000000000E+00 0. -1.
          1   -1    0    0  501    0 -0.00000000000E+00 -0.00000000000E+00 -0.10131004870E+04  0.10131004870E+04  0.00000000000E+00 0. -1.
         25    2    1    2    0    0  0.15956360309E+02 -0.54153166775E+02 -0.23607314664E+03  0.27302558277E+03  0.12500106950E+03 0.  0.
          2    1    1    2  501    0 -0.33332362867E+02  0.35724275264E+02 -0.75592527819E+03  0.75750267093E+03  0.00000000000E+00 0. -1.
          1    1    1    2  502    0  0.17376002558E+02  0.18428891512E+02  0.85465237027E+02  0.89139532461E+02  0.00000000000E+00 0. -1.
         22    1    3    3    0    0  0.25395916850E+02 -0.84363645079E+02 -0.99798801948E+02  0.13312391999E+03  0.00000000000E+00 0.  1.
         22    1    3    3    0    0 -0.94395565405E+01  0.30210478304E+02 -0.13627434469E+03  0.13990166278E+03  0.00000000000E+00 0.  1.
</event>
<event>
 7    1  0.6122298E-006  0.1476592E+03  0.7818608E-02  0.1292530E+00
          2   -1    0    0  502    0  0.00000000000E+00  0.00000000000E+00  0.35296006415E+03  0.35296006415E+03  0.00000000000E+00 0. -1.
          1   -1    0    0  501    0 -0.00000000000E+00 -0.00000000000E+00 -0.89901178296E+03  0.89901178296E+03  0.00000000000E+00 0. -1.
         25    2    1    2    0    0 -0.74686040144E+02  0.72155203809E+02 -0.11209160003E+03  0.19742060976E+03  0.12500396927E+03 0.  0.
          2    1    1    2  501    0 -0.60347154724E+02  0.82214023344E+00 -0.72394124928E+03  0.72645260507E+03  0.00000000000E+00 0. -1.
          1    1    1    2  502    0  0.13503319487E+03 -0.72977344042E+02  0.28998113050E+03  0.32809863228E+03  0.00000000000E+00 0. -1.
         22    1    3    3    0    0  0.79376018089E+01  0.69734045591E+02 -0.18557896987E+02  0.72596406092E+02  0.00000000000E+00 0.  1.
         22    1    3    3    0    0 -0.82623641953E+02  0.24211582180E+01 -0.93533703043E+02  0.12482420367E+03  0.00000000000E+00 0.  1.
</event>
<event>
 7    1  0.6122298E-006  0.9158876E+02  0.7818608E-02  0.1477933E+00
          2   -1    0    0  502    0  0.00000000000E+00  0.00000000000E+00  0.14740556188E+04  0.14740556188E+04  0.00000000000E+00 0. -1.
          1   -1    0    0  501    0 -0.00000000000E+00 -0.00000000000E+00 -0.13111160650E+03  0.13111160650E+03  0.00000000000E+00 0. -1.
         25    2    1    2    0    0 -0.69227980871E+02 -0.38328628206E+02  0.15713504314E+02  0.14877316388E+03  0.12499977199E+03 0.  0.
          2    1    1    2  501    0 -0.50254776007E+00 -0.21547064813E+02 -0.61220877354E+02  0.64903962748E+02  0.00000000000E+00 0. -1.
          1    1    1    2  502    0  0.69730528631E+02  0.59875693019E+02  0.13884513853E+04  0.13914900986E+04  0.00000000000E+00 0. -1.
         22    1    3    3    0    0  0.11925022640E+02 -0.42236883941E+02 -0.32215391290E+02  0.54442556571E+02  0.00000000000E+00 0. -1.
         22    1    3    3    0    0 -0.81153003511E+02  0.39082557348E+01  0.47928895604E+02  0.94330607311E+02  0.00000000000E+00 0. -1.
</event>
<event>
 7    1  0.6122298E-006  0.1015910E+03  0.7818608E-02  0.1349438E+00
          2   -1    0    0  502    0  0.00000000000E+00  0.00000000000E+00  0.59932977360E+03  0.59932977360E+03  0.00000000000E+00 0. -1.
          1   -1    0    0  501    0 -0.00000000000E+00 -0.00000000000E+00 -0.11089973289E+04  0.11089973289E+04  0.00000000000E+00 0. -1.
         25    2    1    2    0    0  0.52192175949E+02 -0.33922109517E+02 -0.14062603285E+03  0.19817920847E+03  0.12499833923E+03 0.  0.
          2    1    1    2  501    0 -0.10370360503E+03  0.22382414902E+02 -0.93536858392E+03  0.94136592140E+03  0.00000000000E+00 0. -1.
          1    1    1    2  502    0  0.51511429081E+02  0.11539694616E+02  0.56632706145E+03  0.56878197265E+03  0.00000000000E+00 0. -1.
         22    1    3    3    0    0 -0.63179034882E+01 -0.24566112224E+02  0.16494671224E+02  0.30256965364E+02  0.00000000000E+00 0.  1.
         22    1    3    3    0    0  0.58510079438E+02 -0.93559972937E+01 -0.15712070408E+03  0.16792224311E+03  0.00000000000E+00 0.  1.
</event>
<event>
 7    1  0.6122298E-006  0.7946929E+02  0.7818608E-02  0.1352803E+00
          2   -1    0    0  502    0  0.00000000000E+00  0.00000000000E+00  0.53453493885E+03  0.53453493885E+03  0.00000000000E+00 0. -1.
          1   -1    0    0  501    0 -0.00000000000E+00 -0.00000000000E+00 -0.12973550288E+04  0.12973550288E+04  0.00000000000E+00 0. -1.
         25    2    1    2    0    0 -0.80248536354E+02  0.40692285054E+02 -0.13675832514E+03  0.20596846731E+03  0.12499792150E+03 0.  0.
          2    1    1    2  501    0  0.76153662977E+02  0.24755581144E+02 -0.11224086676E+04  0.11252614969E+04  0.00000000000E+00 0. -1.
          1    1    1    2  502    0  0.40948733774E+01 -0.65447866198E+02  0.49634690279E+03  0.50066000349E+03  0.00000000000E+00 0. -1.
         22    1    3    3    0    0 -0.44103309240E+02  0.78431928405E+02 -0.12213849125E+03  0.15170524158E+03  0.00000000000E+00 0. -1.
         22    1    3    3    0    0 -0.36145227114E+02 -0.37739643351E+02 -0.14619833897E+02  0.54263225729E+02  0.00000000000E+00 0. -1.
</event>
<event>
 7    1  0.6122298E-006  0.3401680E+02  0.7818608E-02  0.1564286E+00
          2   -1    0    0  502    0  0.00000000000E+00  0.00000000000E+00  0.20964005056E+04  0.20964005056E+04  0.00000000000E+00 0. -1.
          1   -1    0    0  501    0 -0.00000000000E+00 -0.00000000000E+00 -0.45660581194E+02  0.45660581194E+02  0.00000000000E+00 0. -1.
         25    2    1    2    0    0 -0.32318761256E+02  0.35321939903E+02  0.65564145026E+03  0.66916572546E+03  0.12499966025E+03 0.  0.
          2    1    1    2  501    0  0.32560196052E+02 -0.13516517312E+01 -0.31835202766E+02  0.45557364547E+02  0.00000000000E+00 0. -1.
          1    1    1    2  502    0 -0.24143479648E+00 -0.33970288172E+02  0.14269336769E+04  0.14273379968E+04  0.00000000000E+00 0. -1.
         22    1    3    3    0    0 -0.58880054455E+02  0.59381606355E+02  0.57325066348E+03  0.57931801212E+03  0.00000000000E+00 0.  1.
         22    1    3    3    0    0  0.26561293199E+02 -0.24059666453E+02  0.82390786785E+02  0.89847713345E+02  0.00000000000E+00 0.  1.
</event>
<event>
 7    1  0.6122298E-006  0.9244717E+02  0.7818608E-02  0.1358305E+00
          2   -1    0    0  502    0  0.00000000000E+00  0.00000000000E+00  0.13661149518E+04  0.13661149518E+04  0.00000000000E+00 0. -1.
          1   -1    0    0  501    0 -0.00000000000E+00 -0.00000000000E+00 -0.21960869399E+03  0.21960869399E+03  0.00000000000E+00 0. -1.
         25    2    1    2    0    0 -0.69367031732E+02 -0.62435953764E+02  0.16070171254E+03  0.22396601694E+03  0.12500281162E+03 0.  0.
          2    1    1    2  501    0  0.46033343556E+02 -0.27858445727E+02 -0.18222904104E+03  0.19000680282E+03  0.00000000000E+00 0. -1.
          1    1    1    2  502    0  0.23333688177E+02  0.90294399491E+02  0.11680335863E+04  0.11717508260E+04  0.00000000000E+00 0. -1.
         22    1    3    3    0    0 -0.70722963435E+02 -0.64401912035E+02  0.18036461608E+03  0.20415861129E+03  0.00000000000E+00 0.  1.
         22    1    3    3    0    0  0.13559317024E+01  0.19659582714E+01 -0.19662903539E+02  0.19807405643E+02  0.00000000000E+00 0.  1.
</event>
<event>
 7    1  0.6122298E-006  0.7604591E+02  0.7818608E-02  0.1348351E+00
          2   -1    0    0  502    0  0.00000000000E+00  0.00000000000E+00  0.12569333114E+03  0.12569333114E+03  0.00000000000E+00 0. -1.
          1   -1    0    0  501    0 -0.00000000000E+00 -0.00000000000E+00 -0.54153392850E+03  0.54153392850E+03  0.00000000000E+00 0. -1.
         25    2    1    2    0    0 -0.84259746475E+02  0.56236266832E+01 -0.76482127565E+02  0.16913293704E+03  0.12500041800E+03 0.  0.
          2    1    1    2  501    0  0.39057636951E+02  0.59505525234E+02 -0.39492089884E+03  0.40128409248E+03  0.00000000000E+00 0. -1.
          1    1    1    2  502    0  0.45202109524E+02 -0.65129151917E+02  0.55562429045E+02  0.96810230122E+02  0.00000000000E+00 0. -1.
         22    1    3    3    0    0 -0.59998746210E+02 -0.47382508062E+02 -0.46089907952E+01  0.76591085729E+02  0.00000000000E+00 0. -1.
         22    1    3    3    0    0 -0.24261000264E+02  0.53006134745E+02 -0.71873136770E+02  0.92541851308E+02  0.00000000000E+00 0. -1.
</event>
<event>
 7    1  0.6122298E-006  0.5804048E+02  0.7818608E-02  0.1407104E+00
          2   -1    0    0  502    0  0.00000000000E+00  0.00000000000E+00  0.31322621136E+04  0.31322621136E+04  0.00000000000E+00 0. -1.
          1   -1    0    0  501    0 -0.00000000000E+00 -0.00000000000E+00 -0.23590212690E+04  0.23590212690E+04  0.00000000000E+00 0. -1.
         25    2    1    2    0    0 -0.23431879015E+02 -0.70998712252E+02  0.43971785715E+03  0.46321062331E+03  0.12498966981E+03 0.  0.
          2    1    1    2  501    0  0.53735685353E+02  0.21955576014E+02 -0.23466059755E+04  0.23473238326E+04  0.00000000000E+00 0. -1.
          1    1    1    2  502    0 -0.30303806338E+02  0.49043136238E+02  0.26801289629E+04  0.26807489267E+04  0.00000000000E+00 0. -1.
         22    1    3    3    0    0 -0.52102942582E+02 -0.73969927171E+02  0.17573698886E+03  0.19766070931E+03  0.00000000000E+00 0. -1.
         22    1    3    3    0    0  0.28671063567E+02  0.29712149193E+01  0.26398086829E+03  0.26554991401E+03  0.00000000000E+00 0. -1.
</event>
<event>
 7    1  0.6122298E-006  0.1348328E+03  0.7818608E-02  0.1263707E+00
          2   -1    0    0  502    0  0.00000000000E+00  0.00000000000E+00  0.16868800877E+04  0.16868800877E+04  0.00000000000E+00 0. -1.
          1   -1    0    0  501    0 -0.00000000000E+00 -0.00000000000E+00 -0.71140697694E+03  0.71140697694E+03  0.00000000000E+00 0. -1.
         25    2    1    2    0    0  0.19134734958E+02 -0.14573806045E+03 -0.30660974182E+03  0.36227090830E+03  0.12499982752E+03 0.  0.
          2    1    1    2  501    0  0.73101481276E+02  0.47219094091E+02 -0.36915409801E+03  0.37927327547E+03  0.00000000000E+00 0. -1.
          1    1    1    2  502    0 -0.92236216234E+02  0.98518966359E+02  0.16512369506E+04  0.16567428809E+04  0.00000000000E+00 0. -1.
         22    1    3    3    0    0  0.68321264353E+02 -0.11587762431E+03 -0.19822707258E+03  0.23956083003E+03  0.00000000000E+00 0. -1.
         22    1    3    3    0    0 -0.49186529395E+02 -0.29860436142E+02 -0.10838266923E+03  0.12271007828E+03  0.00000000000E+00 0. -1.
</event>
<event>
 7    1  0.6122298E-006  0.5126865E+02  0.7818608E-02  0.1541458E+00
          2   -1    0    0  502    0  0.00000000000E+00  0.00000000000E+00  0.12181979653E+04  0.12181979653E+04  0.00000000000E+00 0. -1.
          1   -1    0    0  501    0 -0.00000000000E+00 -0.00000000000E+00 -0.90330465584E+03  0.90330465584E+03  0.00000000000E+00 0. -1.
         25    2    1    2    0    0 -0.69011461264E+02 -0.20420577148E+02  0.53142740470E+03  0.55065410557E+03  0.12500110304E+03 0.  0.
          2    1    1    2  501    0  0.51161938714E+02  0.28835455369E+01 -0.89272514014E+03  0.89419462906E+03  0.00000000000E+00 0. -1.
          1    1    1    2  502    0  0.17849522551E+02  0.17537031611E+02  0.67619104494E+03  0.67665388656E+03  0.00000000000E+00 0. -1.
         22    1    3    3    0    0  0.30031179494E+02  0.35421673265E+01  0.24057075573E+03  0.24246382658E+03  0.00000000000E+00 0. -1.
         22    1    3    3    0    0 -0.99042640758E+02 -0.23962744474E+02  0.29085664898E+03  0.30819027899E+03  0.00000000000E+00 0. -1.
</event>
<event>
 7    1  0.6122298E-006  0.7788659E+02  0.7818608E-02  0.1420456E+00
          2   -1    0    0  502    0  0.00000000000E+00  0.00000000000E+00  0.19789615830E+04  0.19789615830E+04  0.00000000000E+00 0. -1.
          1   -1    0    0  501    0 -0.00000000000E+00 -0.00000000000E+00 -0.89805906848E+02  0.89805906848E+02  0.00000000000E+00 0. -1.
         25    2    1    2    0    0 -0.23381407326E+02  0.10169301204E+03  0.41084877465E+03  0.44194010855E+03  0.12500473995E+03 0.  0.
          2    1    1    2  501    0  0.38983373250E+02 -0.66242221115E+02 -0.54061153136E+02  0.93969907558E+02  0.00000000000E+00 0. -1.
          1    1    1    2  502    0 -0.15601965924E+02 -0.35450790923E+02  0.15323680547E+04  0.15328574738E+04  0.00000000000E+00 0. -1.
         22    1    3    3    0    0 -0.45835772563E+02  0.10531585244E+03  0.40105221374E+03  0.41717529286E+03  0.00000000000E+00 0.  1.
         22    1    3    3    0    0  0.22454365237E+02 -0.36228404065E+01  0.97965609056E+01  0.24764815694E+02  0.00000000000E+00 0.  1.
</event>
<event>
 7    1  0.6122298E-006  0.8144756E+02  0.7818608E-02  0.1420301E+00
          2   -1    0    0  502    0  0.00000000000E+00  0.00000000000E+00  0.23100614500E+04  0.23100614500E+04  0.00000000000E+00 0. -1.
          1   -1    0    0  501    0 -0.00000000000E+00 -0.00000000000E+00 -0.17216269983E+02  0.17216269983E+02  0.00000000000E+00 0. -1.
         25    2    1    2    0    0  0.82692176663E+02  0.48645354487E+02  0.14334012880E+04  0.14420366934E+04  0.12500482469E+03 0.  0.
          2    1    1    2  501    0 -0.35013425095E+02  0.12214178595E+02  0.19785448779E+02  0.42030822964E+02  0.00000000000E+00 0. -1.
          1    1    1    2  502    0 -0.47678751568E+02 -0.60859533082E+02  0.83965844327E+03  0.84321020361E+03  0.00000000000E+00 0. -1.
         22    1    3    3    0    0 -0.42165416567E+01  0.62464462266E+02  0.81560823852E+03  0.81800757149E+03  0.00000000000E+00 0.  1.
         22    1    3    3    0    0  0.86908718320E+02 -0.13819107779E+02  0.61779304944E+03  0.62402912192E+03  0.00000000000E+00 0.  1.
</event>
<event>
 7    1  0.6122298E-006  0.1420333E+03  0.7818608E-02  0.1291189E+00
          2   -1    0    0  502    0  0.00000000000E+00  0.00000000000E+00  0.13648090711E+03  0.13648090711E+03  0.00000000000E+00 0. -1.
          1   -1    0    0  501    0 -0.00000000000E+00 -0.00000000000E+00 -0.12475081083E+04  0.12475081083E+04  0.00000000000E+00 0. -1.
         25    2    1    2    0    0 -0.11203557034E+03  0.92554479633E+02 -0.45945796113E+03  0.49784031036E+03  0.12500022341E+03 0.  0.
          2    1    1    2  501    0  0.51656975340E+02  0.36987701016E+02 -0.72340454443E+03  0.72618914068E+03  0.00000000000E+00 0. -1.
          1    1    1    2  502    0  0.60378595002E+02 -0.12954218065E+03  0.71835304332E+02  0.15995956442E+03  0.00000000000E+00 0. -1.
         22    1    3    3    0    0 -0.32518429971E+02 -0.24641039842E+02 -0.49724764217E+02  0.64320924346E+02  0.00000000000E+00 0.  1.
         22    1    3    3    0    0 -0.79517140371E+02  0.11719551947E+03 -0.40973319691E+03  0.43351938601E+03  0.00000000000E+00 0.  1.
</event>
<event>
 7    1  0.6122298E-006  0.9195618E+02  0.7818608E-02  0.1327568E+00
          2   -1    0    0  502    0  0.00000000000E+00  0.00000000000E+00  0.27053737995E+04  0.27053737995E+04  0.00000000000E+00 0. -1.
          1   -1    0    0  501    0 -0.00000000000E+00 -0.00000000000E+00 -0.45540597633E+03  0.45540597633E+03  0.00000000000E+00 0. -1.
         25    2    1    2    0    0 -0.12799998876E+03  0.92403672234E+02 -0.12357797720E+03  0.23625840786E+03  0.12499633223E+03 0.  0.
          2    1    1    2  501    0  0.65975724920E+02 -0.24890182609E+02 -0.27016786786E+03  0.27921854217E+03  0.00000000000E+00 0. -1.
          1    1    1    2  502    0  0.62024263844E+02 -0.67513489625E+02  0.26437136682E+04  0.26453028258E+04  0.00000000000E+00 0. -1.
         22    1    3    3    0    0 -0.98100962639E+02  0.10675153120E+03 -0.13794080687E+03  0.20011835119E+03  0.00000000000E+00 0. -1.
         22    1    3    3    0    0 -0.29899026125E+02 -0.14347858965E+02  0.14362829669E+02  0.36140056671E+02  0.00000000000E+00 0. -1.
</event>
<event>
 7    1  0.6122298E-006  0.1852682E+03  0.7818608E-02  0.1322243E+00
          2   -1    0    0  502    0  0.00000000000E+00  0.00000000000E+00  0.86031068464E+03  0.86031068464E+03  0.00000000000E+00 0. -1.
          1   -1    0    0  501    0 -0.00000000000E+00 -0.00000000000E+00 -0.61565907936E+03  0.61565907936E+03  0.00000000000E+00 0. -1.
         25    2    1    2    0    0  0.16929515715E+03  0.11418307310E+03 -0.36876268352E+03  0.43967019144E+03  0.12500134427E+03 0.  0.
          2    1    1    2  501    0 -0.13912183080E+03 -0.93306143005E+02 -0.17777269016E+03  0.24426225557E+03  0.00000000000E+00 0. -1.
          1    1    1    2  502    0 -0.30173326348E+02 -0.20876930094E+02  0.79118697896E+03  0.79203731700E+03  0.00000000000E+00 0. -1.
         22    1    3    3    0    0  0.12190851585E+03  0.13137839195E+03 -0.22708467168E+03  0.28929123080E+03  0.00000000000E+00 0.  1.
         22    1    3    3    0    0  0.47386641300E+02 -0.17195318851E+02 -0.14167801184E+03  0.15037896064E+03  0.00000000000E+00 0.  1.
</event>
<event>
 7    1  0.6122298E-006  0.1414466E+03  0.7818608E-02  0.1265081E+00
          2   -1    0    0  502    0  0.00000000000E+00  0.00000000000E+00  0.38056815201E+03  0.38056815201E+03  0.00000000000E+00 0. -1.
          1   -1    0    0  501    0 -0.00000000000E+00 -0.00000000000E+00 -0.12768287441E+04  0.12768287441E+04  0.00000000000E+00 0. -1.
         25    2    1    2    0    0  0.10892305500E+03 -0.15545693309E+03 -0.35676249633E+03  0.42300656966E+03  0.12499595686E+03 0.  0.
          2    1    1    2  501    0 -0.79777042198E+02  0.18311468299E+02 -0.87080154473E+03  0.87463993543E+03  0.00000000000E+00 0. -1.
          1    1    1    2  502    0 -0.29146012806E+02  0.13714546479E+03  0.33130344895E+03  0.35975039105E+03  0.00000000000E+00 0. -1.
         22    1    3    3    0    0  0.71101252977E+02 -0.42662601638E+01 -0.10381607808E+03  0.12590221293E+03  0.00000000000E+00 0.  1.
         22    1    3    3    0    0  0.37821802027E+02 -0.15119067292E+03 -0.25294641825E+03  0.29710435674E+03  0.00000000000E+00 0.  1.
</event>
<event>
 7    1  0.6122298E-006  0.3413927E+02  0.7818608E-02  0.1628877E+00
          2   -1    0    0  502    0  0.00000000000E+00  0.00000000000E+00  0.15321971097E+04  0.15321971097E+04  0.00000000000E+00 0. -1.
          1   -1    0    0  501    0 -0.00000000000E+00 -0.00000000000E+00 -0.25923125186E+02  0.25923125186E+02  0.00000000000E+00 0. -1.
         25    2    1    2    0    0 -0.13668105577E+02  0.49679932453E+02  0.42465004737E+03  0.44565412003E+03  0.12500007668E+03 0.  0.
          2    1    1    2  501    0  0.18138278283E+02 -0.28165202996E+02  0.30176604653E+01  0.33636023451E+02  0.00000000000E+00 0. -1.
          1    1    1    2  502    0 -0.44701727062E+01 -0.21514729456E+02  0.10786062766E+04  0.10788300914E+04  0.00000000000E+00 0. -1.
         22    1    3    3    0    0 -0.56987924257E+02  0.45412041114E+02  0.36265353153E+03  0.36990196123E+03  0.00000000000E+00 0. -1.
         22    1    3    3    0    0  0.43319818681E+02  0.42678913391E+01  0.61996515841E+02  0.75752158804E+02  0.00000000000E+00 0. -1.
</event>
<event>
 7    1  0.6122298E-006  0.8587588E+02  0.7818608E-02  0.1383769E+00
          2   -1    0    0  502    0  0.00000000000E+00  0.00000000000E+00  0.17272088254E+04  0.17272088254E+04  0.00000000000E+00 0. -1.
          1   -1    0    0  501    0 -0.00000000000E+00 -0.00000000000E+00 -0.35663237554E+03  0.35663237554E+03  0.00000000000E+00 0. -1.
         25    2    1    2    0    0 -0.10004561533E+03  0.63162308976E+02 -0.90452688771E+02  0.19443033688E+03  0.12499145799E+03 0.  0.
          2    1    1    2  501    0  0.78835033274E+02 -0.21299153008E+02 -0.20606513510E+03  0.22165616683E+03  0.00000000000E+00 0. -1.
          1    1    1    2  502    0  0.21210582056E+02 -0.41863155968E+02  0.16670942737E+04  0.16677546972E+04  0.00000000000E+00 0. -1.
         22    1    3    3    0    0 -0.10730631379E+03  0.22494499557E+02 -0.18111399246E+02  0.11112457096E+03  0.00000000000E+00 0. -1.
         22    1    3    3    0    0  0.72606984568E+01  0.40667809419E+02 -0.72341289525E+02  0.83305765918E+02  0.00000000000E+00 0. -1.
</event>
<event>
 7    1  0.6122298E-006  0.6836453E+02  0.7818608E-02  0.1407992E+00
          2   -1    0    0  502    0  0.00000000000E+00  0.00000000000E+00  0.72370475112E+03  0.72370475112E+03  0.00000000000E+00 0. -1.
          1   -1    0    0  501    0 -0.00000000000E+00 -0.00000000000E+00 -0.25011187444E+03  0.25011187444E+03  0.00000000000E+00 0. -1.
         25    2    1    2    0    0  0.31253110595E+02 -0.83327916260E+02  0.15455666450E+03  0.21779078101E+03  0.12499905281E+03 0.  0.
          2    1    1    2  501    0  0.23124243927E+02  0.42752151316E+02 -0.21361293201E+03  0.21907296004E+03  0.00000000000E+00 0. -1.
          1    1    1    2  502    0 -0.54377354522E+02  0.40575764943E+02  0.53264914419E+03  0.53695288452E+03  0.00000000000E+00 0. -1.
         22    1    3    3    0    0  0.75588240966E+01 -0.11333431927E+03  0.10105987519E+03  0.15203585800E+03  0.00000000000E+00 0. -1.
         22    1    3    3    0    0  0.23694286498E+02  0.30006403006E+02  0.53496789304E+02  0.65754923009E+02  0.00000000000E+00 0. -1.
</event>
<event>
 7    1  0.6122298E-006  0.7511023E+02  0.7818608E-02  0.1429718E+00
          2   -1    0    0  502    0  0.00000000000E+00  0.00000000000E+00  0.87371464809E+03  0.87371464809E+03  0.00000000000E+00 0. -1.
          1   -1    0    0  501    0 -0.00000000000E+00 -0.00000000000E+00 -0.39266045031E+03  0.39266045031E+03  0.00000000000E+00 0. -1.
         25    2    1    2    0    0  0.12961314684E+02  0.68723178297E+02 -0.48313008853E+02  0.15116140887E+03  0.12499901517E+03 0.  0.
          2    1    1    2  501    0 -0.37332693465E+02  0.25821999270E+01 -0.28999202180E+03  0.29239659791E+03  0.00000000000E+00 0. -1.
          1    1    1    2  502    0  0.24371378782E+02 -0.71305378224E+02  0.81935922843E+03  0.82281709163E+03  0.00000000000E+00 0. -1.
         22    1    3    3    0    0  0.14069852507E+02  0.10492947473E+03 -0.44128165081E+02  0.11469721170E+03  0.00000000000E+00 0. -1.
         22    1    3    3    0    0 -0.11085378233E+01 -0.36206296437E+02 -0.41848437717E+01  0.36464197169E+02  0.00000000000E+00 0. -1.
</event>
<event>
 7    1  0.6122298E-006  0.3286510E+03  0.7818608E-02  0.1270202E+00
          2   -1    0    0  502    0  0.00000000000E+00  0.00000000000E+00  0.13514612301E+04  0.13514612301E+04  0.00000000000E+00 0. -1.
          1   -1    0    0  501    0 -0.00000000000E+00 -0.00000000000E+00 -0.17718332868E+04  0.17718332868E+04  0.00000000000E+00 0. -1.
         25    2    1    2    0    0  0.33484136958E+03  0.11816023547E+03 -0.12482269134E+03  0.39659287500E+03  0.12499848077E+03 0.  0.
          2    1    1    2  501    0 -0.30154231269E+03 -0.12199946599E+03 -0.14933828985E+04  0.15283992009E+04  0.00000000000E+00 0. -1.
          1    1    1    2  502    0 -0.33299056886E+02  0.38392305221E+01  0.11978335331E+04  0.11983024409E+04  0.00000000000E+00 0. -1.
         22    1    3    3    0    0  0.19872953323E+03  0.12674883297E+03 -0.49708621916E+02  0.24089342276E+03  0.00000000000E+00 0. -1.
         22    1    3    3    0    0  0.13611183635E+03 -0.85885974961E+01 -0.75114069422E+02  0.15569945224E+03  0.00000000000E+00 0. -1.
</event>
<event>
 7    1  0.6122298E-006  0.4237053E+02  0.7818608E-02  0.1541198E+00
          2   -1    0    0  502    0  0.00000000000E+00  0.00000000000E+00  0.13530195191E+04  0.13530195191E+04  0.00000000000E+00 0. -1.
          1   -1    0    0  501    0 -0.00000000000E+00 -0.00000000000E+00 -0.53775345964E+02  0.53775345964E+02  0.00000000000E+00 0. -1.
         25    2    1    2    0    0  0.33449435446E+02 -0.43311895429E+02  0.76364066087E+03  0.77573623385E+03  0.12499944223E+03 0.  0.
          2    1    1    2  501    0 -0.40046871009E+02  0.13708877895E+02 -0.37862401599E+02  0.56791255186E+02  0.00000000000E+00 0. -1.
          1    1    1    2  502    0  0.65974355628E+01  0.29603017535E+02  0.57346591388E+03  0.57426737604E+03  0.00000000000E+00 0. -1.
         22    1    3    3    0    0  0.54561682972E+02  0.13588776560E+02  0.57098947834E+03  0.57375135423E+03  0.00000000000E+00 0. -1.
         22    1    3    3    0    0 -0.21112247527E+02 -0.56900671989E+02  0.19265118253E+03  0.20198487963E+03  0.00000000000E+00 0. -1.
</event>
<event>
 7    1  0.6122298E-006  0.5509305E+02  0.7818608E-02  0.1483703E+00
          2   -1    0    0  502    0  0.00000000000E+00  0.00000000000E+00  0.10031083691E+04  0.10031083691E+04  0.00000000000E+00 0. -1.
          1   -1    0    0  501    0 -0.00000000000E+00 -0.00000000000E+00 -0.46079347711E+02  0.46079347711E+02  0.00000000000E+00 0. -1.
         25    2    1    2    0    0 -0.12118854800E+02 -0.81193070916E+02  0.13279478184E+03  0.19999699481E+03  0.12500064976E+03 0.  0.
          2    1    1    2  501    0  0.20768055819E+02  0.27424918281E+02  0.14020095516E+02  0.37148369594E+02  0.00000000000E+00 0. -1.
          1    1    1    2  502    0 -0.86492010185E+01  0.53768152635E+02  0.81021414401E+03  0.81204235238E+03  0.00000000000E+00 0. -1.
         22    1    3    3    0    0 -0.13572058804E+02 -0.11469437518E+03  0.10962838915E+03  0.15924002068E+03  0.00000000000E+00 0.  1.
         22    1    3    3    0    0  0.14532040035E+01  0.33501304268E+02  0.23166392686E+02  0.40756974122E+02  0.00000000000E+00 0.  1.
</event>
<event>
 7    1  0.6122298E-006  0.8349223E+02  0.7818608E-02  0.1327071E+00
          2   -1    0    0  502    0  0.00000000000E+00  0.00000000000E+00  0.55144711132E+03  0.55144711132E+03  0.00000000000E+00 0. -1.
          1   -1    0    0  501    0 -0.00000000000E+00 -0.00000000000E+00 -0.19574497580E+03  0.19574497580E+03  0.00000000000E+00 0. -1.
         25    2    1    2    0    0 -0.81965129938E+02 -0.80367400345E+02  0.45176546458E+02  0.17562131466E+03  0.12499889699E+03 0.  0.
          2    1    1    2  501    0 -0.13160245092E+01  0.77993967003E+02 -0.11445029288E+03  0.13850509142E+03  0.00000000000E+00 0. -1.
          1    1    1    2  502    0  0.83281154447E+02  0.23734333422E+01  0.42497588193E+03  0.43306568104E+03  0.00000000000E+00 0. -1.
         22    1    3    3    0    0 -0.26086384898E+02 -0.10053437358E+03  0.51406223083E+02  0.11588899655E+03  0.00000000000E+00 0. -1.
         22    1    3    3    0    0 -0.55878745039E+02  0.20166973237E+02 -0.62296766247E+01  0.59732318117E+02  0.00000000000E+00 0. -1.
</event>
<event>
 7    1  0.6122298E-006  0.6991338E+02  0.7818608E-02  0.1459995E+00
          2   -1    0    0  502    0  0.00000000000E+00  0.00000000000E+00  0.16925277675E+03  0.16925277675E+03  0.00000000000E+00 0. -1.
          1   -1    0    0  501    0 -0.00000000000E+00 -0.00000000000E+00 -0.13569420617E+03  0.13569420617E+03  0.00000000000E+00 0. -1.
         25    2    1    2    0    0 -0.31949120925E+02  0.80271261956E+02  0.74020947518E+02  0.16902210434E+03  0.12500059704E+03 0.  0.
          2    1    1    2  501    0  0.27043127168E+02 -0.17316885225E+02 -0.61490258184E+02  0.69370433849E+02  0.00000000000E+00 0. -1.
          1    1    1    2  502    0  0.49059937567E+01 -0.62954376731E+02  0.21027881243E+02  0.66554444734E+02  0.00000000000E+00 0. -1.
         22    1    3    3    0    0  0.24375191602E+02  0.31178595768E+02  0.84754140771E+02  0.93538864530E+02  0.00000000000E+00 0. -1.
         22    1    3    3    0    0 -0.56324312527E+02  0.49092666188E+02 -0.10733193253E+02  0.75483239812E+02  0.00000000000E+00 0. -1.
</event>
<event>
 7    1  0.7571099E-006  0.4829174E+02  0.7818608E-02  0.1464836E+00
          2   -1    0    0  502    0  0.00000000000E+00  0.00000000000E+00  0.23046766638E+04  0.23046766638E+04  0.00000000000E+00 0. -1.
          1   -1    0    0  501    0 -0.00000000000E+00 -0.00000000000E+00 -0.15179075451E+04  0.15179075451E+04  0.00000000000E+00 0. -1.
         25    2    1    2    0    0  0.37860309659E+02 -0.79726985411E+02 -0.42967740310E+02  0.15893558447E+03  0.12499799219E+03 0.  0.
          2    1    1    2  501    0 -0.32769939299E+02  0.35127554243E+02 -0.14163243786E+04  0.14171388638E+04  0.00000000000E+00 0. -1.
          1    1    1    2  502    0 -0.50903703597E+01  0.44599431169E+02  0.22460612377E+04  0.22465097606E+04  0.00000000000E+00 0. -1.
         22    1    3    3    0    0  0.75676204067E+02 -0.45509437054E+02 -0.58140499932E+02  0.10572754823E+03  0.00000000000E+00 0. -1.
         22    1    3    3    0    0 -0.37815894408E+02 -0.34217548358E+02  0.15172759622E+02  0.53208036235E+02  0.00000000000E+00 0. -1.
</event>
<event>
 7    1  0.6122298E-006  0.5828234E+02  0.7818608E-02  0.1421435E+00
          2   -1    0    0  502    0  0.00000000000E+00  0.00000000000E+00  0.43022072464E+03  0.43022072464E+03  0.00000000000E+00 0. -1.
          1   -1    0    0  501    0 -0.00000000000E+00 -0.00000000000E+00 -0.25834805139E+04  0.25834805139E+04  0.00000000000E+00 0. -1.
         25    2    1    2    0    0  0.10768232660E+02  0.96827379296E+02 -0.35338392721E+03  0.38729399466E+03  0.12499976827E+03 0.  0.
          2    1    1    2  501    0  0.19805399276E+02 -0.47401421660E+02 -0.22107983971E+04  0.22113951933E+04  0.00000000000E+00 0. -1.
          1    1    1    2  502    0 -0.30573631936E+02 -0.49425957636E+02  0.41092253506E+03  0.41501205052E+03  0.00000000000E+00 0. -1.
         22    1    3    3    0    0  0.43548886416E+02  0.66341173625E+02 -0.89398053486E+02  0.11953940268E+03  0.00000000000E+00 0. -1.
         22    1    3    3    0    0 -0.32780653756E+02  0.30486205671E+02 -0.26398587373E+03  0.26775459198E+03  0.00000000000E+00 0. -1.
</event>
<event>
 7    1  0.6122298E-006  0.1145081E+03  0.7818608E-02  0.1352152E+00
          2   -1    0    0  502    0  0.00000000000E+00  0.00000000000E+00  0.30584856676E+03  0.30584856676E+03  0.00000000000E+00 0. -1.
          1   -1    0    0  501    0 -0.00000000000E+00 -0.00000000000E+00 -0.15597213092E+04  0.15597213092E+04  0.00000000000E+00 0. -1.
         25    2    1    2    0    0 -0.13013992083E+03  0.87207865855E+01 -0.45020572865E+03  0.48509970967E+03  0.12499631633E+03 0.  0.
          2    1    1    2  501    0  0.20461305483E+02 -0.40933738482E+02 -0.10802379269E+04  0.10812068326E+04  0.00000000000E+00 0. -1.
          1    1    1    2  502    0  0.10967861535E+03  0.32212951896E+02  0.27657091314E+03  0.29926333375E+03  0.00000000000E+00 0. -1.
         22    1    3    3    0    0 -0.12789501506E+03  0.16590674721E+02 -0.22195975442E+03  0.25670706641E+03  0.00000000000E+00 0. -1.
         22    1    3    3    0    0 -0.22449057787E+01 -0.78698881359E+01 -0.22824597423E+03  0.22839264325E+03  0.00000000000E+00 0. -1.
</event>
<event>
 7    1  0.6122298E-006  0.4960994E+02  0.7818608E-02  0.1464036E+00
          2   -1    0    0  502    0  0.00000000000E+00  0.00000000000E+00  0.18967021281E+04  0.18967021281E+04  0.00000000000E+00 0. -1.
          1   -1    0    0  501    0 -0.00000000000E+00 -0.00000000000E+00 -0.22415486719E+02  0.22415486719E+02  0.00000000000E+00 0. -1.
         25    2    1    2    0    0  0.16511822483E+02 -0.24837228868E+02  0.56623624541E+03  0.58063888439E+03  0.12501400016E+03 0.  0.
          2    1    1    2  501    0  0.20904000474E+02  0.47893242120E+02  0.31179006265E+02  0.60851214518E+02  0.00000000000E+00 0. -1.
          1    1    1    2  502    0 -0.37415822957E+02 -0.23056013252E+02  0.12768713897E+04  0.12776275159E+04  0.00000000000E+00 0. -1.
         22    1    3    3    0    0  0.60295791764E+02  0.22193664349E+02  0.28754489069E+03  0.29463571644E+03  0.00000000000E+00 0.  1.
         22    1    3    3    0    0 -0.43783969281E+02 -0.47030893218E+02  0.27869135472E+03  0.28600316795E+03  0.00000000000E+00 0.  1.
</event>
<event>
 7    1  0.6122298E-006  0.1037039E+03  0.7818608E-02  0.1321984E+00
          2   -1    0    0  502    0  0.00000000000E+00  0.00000000000E+00  0.61724798771E+03  0.61724798771E+03  0.00000000000E+00 0. -1.
          1   -1    0    0  501    0 -0.00000000000E+00 -0.00000000000E+00 -0.76819301056E+03  0.76819301056E+03  0.00000000000E+00 0. -1.
         25    2    1    2    0    0 -0.50522935784E+02 -0.70658443450E+01 -0.88906027563E+02  0.16165579528E+03  0.12500328482E+03 0.  0.
          2    1    1    2  501    0  0.10847119125E+03 -0.23896366520E+02 -0.63622740465E+03  0.64585009568E+03  0.00000000000E+00 0. -1.
          1    1    1    2  502    0 -0.57948255467E+02  0.30962210865E+02  0.57418840936E+03  0.57793510731E+03  0.00000000000E+00 0. -1.
         22    1    3    3    0    0 -0.36663228877E+01  0.39672793758E+02  0.11438685990E+02  0.41451369401E+02  0.00000000000E+00 0.  1.
         22    1    3    3    0    0 -0.46856612896E+02 -0.46738638102E+02 -0.10034471355E+03  0.12020442588E+03  0.00000000000E+00 0.  1.
</event>
<event>
 7    1  0.6122298E-006  0.1323617E+03  0.7818608E-02  0.1411288E+00
          2   -1    0    0  502    0  0.00000000000E+00  0.00000000000E+00  0.13782364516E+04  0.13782364516E+04  0.00000000000E+00 0. -1.
          1   -1    0    0  501    0 -0.00000000000E+00 -0.00000000000E+00 -0.45329910759E+02  0.45329910759E+02  0.00000000000E+00 0. -1.
         25    2    1    2    0    0  0.25936928439E+02  0.13003297929E+03  0.32171850808E+03  0.36974178051E+03  0.12499954340E+03 0.  0.
          2    1    1    2  501    0 -0.49519482284E+02 -0.12351475964E+03  0.18831309751E+03  0.23058598758E+03  0.00000000000E+00 0. -1.
          1    1    1    2  502    0  0.23582553845E+02 -0.65182196526E+01  0.82287493530E+03  0.82323859432E+03  0.00000000000E+00 0. -1.
         22    1    3    3    0    0  0.48846555992E+02  0.88654701567E+02  0.30197744691E+03  0.31849022054E+03  0.00000000000E+00 0. -1.
         22    1    3    3    0    0 -0.22909627553E+02  0.41378277727E+02  0.19741061173E+02  0.51251559962E+02  0.00000000000E+00 0. -1.
</event>
<event>
 7    1  0.6122298E-006  0.2656230E+02  0.7818608E-02  0.1667965E+00
          2   -1    0    0  502    0  0.00000000000E+00  0.00000000000E+00  0.36184305533E+03  0.36184305533E+03  0.00000000000E+00 0. -1.
          1   -1    0    0  501    0 -0.00000000000E+00 -0.00000000000E+00 -0.17878421721E+04  0.17878421721E+04  0.00000000000E+00 0. -1.
         25    2    1    2    0    0  0.44642808871E+02  0.11575867831E+02 -0.95509141665E+03  0.96434011964E+03  0.12500108434E+03 0.  0.
          2    1    1    2  501    0 -0.25773551795E+02  0.93181237415E+00 -0.82756664970E+03  0.82796841966E+03  0.00000000000E+00 0. -1.
          1    1    1    2  502    0 -0.18869257076E+02 -0.12507680205E+02  0.35665894957E+03  0.35737668815E+03  0.00000000000E+00 0. -1.
         22    1    3    3    0    0  0.42395426264E+01 -0.37184634891E+02 -0.71685512651E+03  0.71783141698E+03  0.00000000000E+00 0. -1.
         22    1    3    3    0    0  0.40403266244E+02  0.48760502722E+02 -0.23823629014E+03  0.24650870266E+03  0.00000000000E+00 0. -1.
</event>
<event>
 7    1  0.6122298E-006  0.6127527E+02  0.7818608E-02  0.1445344E+00
          2   -1    0    0  502    0  0.00000000000E+00  0.00000000000E+00  0.79034303829E+03  0.79034303829E+03  0.00000000000E+00 0. -1.
          1   -1    0    0  501    0 -0.00000000000E+00 -0.00000000000E+00 -0.86002267142E+03  0.86002267142E+03  0.00000000000E+00 0. -1.
         25    2    1    2    0    0 -0.20880462673E+01  0.28490138328E+02 -0.33925175984E+03  0.36267246168E+03  0.12499403980E+03 0.  0.
          2    1    1    2  501    0  0.22106720814E+02 -0.64039836189E+02 -0.50626813423E+03  0.51078100147E+03  0.00000000000E+00 0. -1.
          1    1    1    2  502    0 -0.20018674547E+02  0.35549697862E+02  0.77584026094E+03  0.77691224655E+03  0.00000000000E+00 0. -1.
         22    1    3    3    0    0 -0.88495090173E+00  0.72765049343E+02 -0.27615552274E+03  0.28558257700E+03  0.00000000000E+00 0. -1.
         22    1    3    3    0    0 -0.12030953656E+01 -0.44274911015E+02 -0.63096237101E+02  0.77089884681E+02  0.00000000000E+00 0. -1.
</event>
<event>
 7    1  0.6122298E-006  0.1123116E+03  0.7818608E-02  0.1379032E+00
          2   -1    0    0  502    0  0.00000000000E+00  0.00000000000E+00  0.99828493734E+03  0.99828493734E+03  0.00000000000E+00 0. -1.
          1   -1    0    0  501    0 -0.00000000000E+00 -0.00000000000E+00 -0.11401547334E+04  0.11401547334E+04  0.00000000000E+00 0. -1.
         25    2    1    2    0    0 -0.38749701406E+02 -0.11307005072E+03  0.49147439126E+03  0.52101676362E+03  0.12500005991E+03 0.  0.
          2    1    1    2  501    0 -0.28126198384E+02  0.24489655132E+02 -0.11188098073E+04  0.11194311998E+04  0.00000000000E+00 0. -1.
          1    1    1    2  502    0  0.66875899790E+02  0.88580395585E+02  0.48546561993E+03  0.49799170735E+03  0.00000000000E+00 0. -1.
         22    1    3    3    0    0  0.20736534272E+02  0.18605451043E+02  0.64583614316E+02  0.70336405227E+02  0.00000000000E+00 0.  1.
         22    1    3    3    0    0 -0.59486235678E+02 -0.13167550176E+03  0.42689077694E+03  0.45068035839E+03  0.00000000000E+00 0.  1.
</event>
<event>
 7    1  0.6122298E-006  0.2010046E+03  0.7818608E-02  0.1267275E+00
          2   -1    0    0  502    0  0.00000000000E+00  0.00000000000E+00  0.10907527360E+04  0.10907527360E+04  0.00000000000E+00 0. -1.
          1   -1    0    0  501    0 -0.00000000000E+00 -0.00000000000E+00 -0.10540085421E+03  0.10540085421E+03  0.00000000000E+00 0. -1.
         25    2    1    2    0    0  0.55145787203E+02  0.15140502283E+03  0.22467592246E+03  0.30342920221E+03  0.12500188731E+03 0.  0.
          2    1    1    2  501    0  0.28116798905E+01  0.56312117788E+02 -0.36320243786E+02  0.67068027123E+02  0.00000000000E+00 0. -1.
          1    1    1    2  502    0 -0.57957467093E+02 -0.20771714062E+03  0.79699620311E+03  0.82565636088E+03  0.00000000000E+00 0. -1.
         22    1    3    3    0    0  0.93810049415E+02  0.12018630114E+03  0.15118548082E+03  0.21471404697E+03  0.00000000000E+00 0.  1.
         22    1    3    3    0    0 -0.38664262212E+02  0.31218721686E+02  0.73490441648E+02  0.88715155242E+02  0.00000000000E+00 0.  1.
</event>
<event>
 7    1  0.6122298E-006  0.7234528E+02  0.7818608E-02  0.1403563E+00
          2   -1    0    0  502    0  0.00000000000E+00  0.00000000000E+00  0.10632312024E+03  0.10632312024E+03  0.00000000000E+00 0. -1.
          1   -1    0    0  501    0 -0.00000000000E+00 -0.00000000000E+00 -0.19985732075E+04  0.19985732075E+04  0.00000000000E+00 0. -1.
         25    2    1    2    0    0 -0.23698829290E+02 -0.74458175073E+02 -0.10285365187E+04  0.10390466736E+04  0.12499986149E+03 0.  0.
          2    1    1    2  501    0  0.59852993666E+02  0.43564177158E+02 -0.95767878416E+03  0.96053572136E+03  0.00000000000E+00 0. -1.
          1    1    1    2  502    0 -0.36154164377E+02  0.30893997915E+02  0.93965215540E+02  0.10531393279E+03  0.00000000000E+00 0. -1.
         22    1    3    3    0    0 -0.48896445204E+02  0.16369927542E+02 -0.29407771622E+03  0.29856413056E+03  0.00000000000E+00 0.  1.
         22    1    3    3    0    0  0.25197615914E+02 -0.90828102615E+02 -0.73445880244E+03  0.74048254304E+03  0.00000000000E+00 0.  1.
</event>
<event>
 7    1  0.6122298E-006  0.1477897E+03  0.7818608E-02  0.1228063E+00
          2   -1    0    0  502    0  0.00000000000E+00  0.00000000000E+00  0.50976728471E+03  0.50976728471E+03  0.00000000000E+00 0. -1.
          1   -1    0    0  501    0 -0.00000000000E+00 -0.00000000000E+00 -0.24884536069E+03  0.24884536069E+03  0.00000000000E+00 0. -1.
         25    2    1    2    0    0  0.95808026400E+02 -0.96010215786E+02  0.17981994930E+03  0.25760026095E+03  0.12500216325E+03 0.  0.
          2    1    1    2  501    0  0.15920466316E+01  0.15454116447E+03 -0.16735617794E+03  0.22780166028E+03  0.00000000000E+00 0. -1.
          1    1    1    2  502    0 -0.97400073031E+02 -0.58530948686E+02  0.24845815266E+03  0.27321072417E+03  0.00000000000E+00 0. -1.
         22    1    3    3    0    0  0.81682627669E+02 -0.11520281915E+03  0.18546392792E+03  0.23311072426E+03  0.00000000000E+00 0.  1.
         22    1    3    3    0    0  0.14125398731E+02  0.19192603361E+02 -0.56439786190E+01  0.24489536699E+02  0.00000000000E+00 0.  1.
</event>
<event>
 7    1  0.6122298E-006  0.1068113E+03  0.7818608E-02  0.1400374E+00
          2   -1    0    0  502    0  0.00000000000E+00  0.00000000000E+00  0.16134988401E+04  0.16134988401E+04  0.00000000000E+00 0. -1.
          1   -1    0    0  501    0 -0.00000000000E+00 -0.00000000000E+00 -0.27390836161E+03  0.27390836161E+03  0.00000000000E+00 0. -1.
         25    2    1    2    0    0  0.73230871029E+02  0.48410840255E+02  0.70553681310E+02  0.16824943828E+03  0.12499472632E+03 0.  0.
          2    1    1    2  501    0 -0.10344162905E+03 -0.35053834701E+02 -0.21161460768E+03  0.23813795189E+03  0.00000000000E+00 0. -1.
          1    1    1    2  502    0  0.30210758018E+02 -0.13357005554E+02  0.14806514048E+04  0.14810198115E+04  0.00000000000E+00 0. -1.
         22    1    3    3    0    0  0.58142965127E+02 -0.17017488756E+02 -0.12080060453E+02  0.61774810221E+02  0.00000000000E+00 0.  1.
         22    1    3    3    0    0  0.15087905902E+02  0.65428329011E+02  0.82633741763E+02  0.10647462806E+03  0.00000000000E+00 0.  1.
</event>
<event>
 7    1  0.6122298E-006  0.1045295E+03  0.7818608E-02  0.1346898E+00
          2   -1    0    0  502    0  0.00000000000E+00  0.00000000000E+00  0.23894458692E+03  0.23894458692E+03  0.00000000000E+00 0. -1.
          1   -1    0    0  501    0 -0.00000000000E+00 -0.00000000000E+00 -0.18751237925E+03  0.18751237925E+03  0.00000000000E+00 0. -1.
         25    2    1    2    0    0 -0.64369701805E+02  0.12445135315E+02  0.47101114566E+02  0.14879964516E+03  0.12499791800E+03 0.  0.
          2    1    1    2  501    0  0.11486828645E+03  0.16589617341E+01 -0.10548713482E+03  0.15596477486E+03  0.00000000000E+00 0. -1.
          1    1    1    2  502    0 -0.50498584646E+02 -0.14104097049E+02  0.10981822791E+03  0.12169254614E+03  0.00000000000E+00 0. -1.
         22    1    3    3    0    0 -0.16098876656E+01 -0.21654351418E+02 -0.34243376690E+02  0.40547645070E+02  0.00000000000E+00 0.  1.
         22    1    3    3    0    0 -0.62759814139E+02  0.34099486733E+02  0.81344491256E+02  0.10825200009E+03  0.00000000000E+00 0.  1.
</event>
<event>
 7    1  0.6122298E-006  0.1282957E+03  0.7818608E-02  0.1243531E+00
          2   -1    0    0  502    0  0.00000000000E+00  0.00000000000E+00  0.17089018803E+04  0.17089018803E+04  0.00000000000E+00 0. -1.
          1   -1    0    0  501    0 -0.00000000000E+00 -0.00000000000E+00 -0.10123627809E+04  0.10123627809E+04  0.00000000000E+00 0. -1.
         25    2    1    2    0    0 -0.47175581784E+02 -0.62849996475E+02  0.44636065372E+03  0.47014646890E+03  0.12499684578E+03 0.  0.
          2    1    1    2  501    0 -0.49248113600E+02  0.11933508738E+03 -0.99379013232E+03  0.10021402431E+04  0.00000000000E+00 0. -1.
          1    1    1    2  502    0  0.96423695384E+02 -0.56485090909E+02  0.12439685780E+04  0.12489779492E+04  0.00000000000E+00 0. -1.
         22    1    3    3    0    0  0.32281121319E+02  0.15476635735E+02  0.96530441224E+02  0.10295495680E+03  0.00000000000E+00 0.  1.
         22    1    3    3    0    0 -0.79456703103E+02 -0.78326632210E+02  0.34983021250E+03  0.36719151210E+03  0.00000000000E+00 0.  1.
</event>
<event>
 7    1  0.6122298E-006  0.6091654E+02  0.7818608E-02  0.1505665E+00
          2   -1    0    0  502    0  0.00000000000E+00  0.00000000000E+00  0.44632815856E+03  0.44632815856E+03  0.00000000000E+00 0. -1.
          1   -1    0    0  501    0 -0.00000000000E+00 -0.00000000000E+00 -0.38574242866E+03  0.38574242866E+03  0.00000000000E+00 0. -1.
         25    2    1    2    0    0 -0.77501921773E+02 -0.19807079774E+02  0.18054104777E+03  0.23370866109E+03  0.12500320018E+03 0.  0.
          2    1    1    2  501    0  0.25656989449E+02 -0.74785418017E+01 -0.35506158077E+03  0.35606591501E+03  0.00000000000E+00 0. -1.
          1    1    1    2  502    0  0.51844932323E+02  0.27285621576E+02  0.23510626290E+03  0.24229601112E+03  0.00000000000E+00 0. -1.
         22    1    3    3    0    0 -0.17548836895E+02 -0.16402224245E+02  0.17127149397E+03  0.17294773570E+03  0.00000000000E+00 0. -1.
         22    1    3    3    0    0 -0.59953084877E+02 -0.34048555287E+01  0.92695537971E+01  0.60760925397E+02  0.00000000000E+00 0. -1.
</event>
<event>
 7    1  0.6122298E-006  0.8686272E+02  0.7818608E-02  0.1429923E+00
          2   -1    0    0  502    0  0.00000000000E+00  0.00000000000E+00  0.94152109783E+03  0.94152109783E+03  0.00000000000E+00 0. -1.
          1   -1    0    0  501    0 -0.00000000000E+00 -0.00000000000E+00 -0.26285565956E+03  0.26285565956E+03  0.00000000000E+00 0. -1.
         25    2    1    2    0    0 -0.10161741544E+03  0.55481214560E+02 -0.19061929941E+01  0.17036573610E+03  0.12496634017E+03 0.  0.
          2    1    1    2  501    0  0.73030717453E+02 -0.40426551750E+02 -0.16653741601E+03  0.18628607760E+03  0.00000000000E+00 0. -1.
          1    1    1    2  502    0  0.28586697984E+02 -0.15054662810E+02  0.84710904728E+03  0.84772494369E+03  0.00000000000E+00 0. -1.
         22    1    3    3    0    0 -0.66460998819E+02 -0.19457965366E+02 -0.39200731900E+02  0.79576216055E+02  0.00000000000E+00 0.  1.
         22    1    3    3    0    0 -0.35156416618E+02  0.74939179926E+02  0.37294538906E+02  0.90789520043E+02  0.00000000000E+00 0.  1.
</event>
<event>
 7    1  0.6122298E-006  0.1028692E+03  0.7818608E-02  0.1417423E+00
          2   -1    0    0  502    0  0.00000000000E+00  0.00000000000E+00  0.41960958669E+03  0.41960958669E+03  0.00000000000E+00 0. -1.
          1   -1    0    0  501    0 -0.00000000000E+00 -0.00000000000E+00 -0.71416588205E+03  0.71416588205E+03  0.00000000000E+00 0. -1.
         25    2    1    2    0    0 -0.36274260922E+02  0.80257883357E+02  0.34253019746E+02  0.15670456391E+03  0.12500360451E+03 0.  0.
          2    1    1    2  501    0  0.66287387850E+02 -0.79668746018E+02 -0.64811908940E+03  0.65635316783E+03  0.00000000000E+00 0. -1.
          1    1    1    2  502    0 -0.30013126928E+02 -0.58913733896E+00  0.31930977429E+03  0.32071773701E+03  0.00000000000E+00 0. -1.
         22    1    3    3    0    0 -0.66153338015E+02  0.93260440823E+02  0.75752360105E+01  0.11459126561E+03  0.00000000000E+00 0. -1.
         22    1    3    3    0    0  0.29879077093E+02 -0.13002557466E+02  0.26677783736E+02  0.42113298299E+02  0.00000000000E+00 0. -1.
</event>
<event>
 7    1  0.6122298E-006  0.1157708E+03  0.7818608E-02  0.1343985E+00
          2   -1    0    0  502    0  0.00000000000E+00  0.00000000000E+00  0.10481140035E+03  0.10481140035E+03  0.00000000000E+00 0. -1.
          1   -1    0    0  501    0 -0.00000000000E+00 -0.00000000000E+00 -0.24846347216E+04  0.24846347216E+04  0.00000000000E+00 0. -1.
         25    2    1    2    0    0 -0.60852257630E+02  0.99978507880E+02 -0.47654822337E+02  0.17774671584E+03  0.12499685437E+03 0.  0.
          2    1    1    2  501    0  0.14703714271E+02 -0.11502502233E+03 -0.23551438750E+04  0.23579969522E+04  0.00000000000E+00 0. -1.
          1    1    1    2  502    0  0.46148543359E+02  0.15046514448E+02  0.22975376023E+02  0.53702453897E+02  0.00000000000E+00 0. -1.
         22    1    3    3    0    0 -0.21053682905E+02 -0.14982513654E+02  0.25076798253E+02  0.36008042017E+02  0.00000000000E+00 0. -1.
         22    1    3    3    0    0 -0.39798574725E+02  0.11496102153E+03 -0.72731620590E+02  0.14173867382E+03  0.00000000000E+00 0. -1.
</event>
<event>
 7    1  0.6122298E-006  0.5687512E+02  0.7818608E-02  0.1482328E+00
          2   -1    0    0  502    0  0.00000000000E+00  0.00000000000E+00  0.36429742151E+03  0.36429742151E+03  0.00000000000E+00 0. -1.
          1   -1    0    0  501    0 -0.00000000000E+00 -0.00000000000E+00 -0.63312025814E+03  0.63312025814E+03  0.00000000000E+00 0. -1.
         25    2    1    2    0    0 -0.43917830844E+02 -0.18703469814E+02  0.19325196519E+02  0.13519194430E+03  0.12499921174E+03 0.  0.
          2    1    1    2  501    0  0.55761373613E+02 -0.12790151142E+02 -0.57277093210E+03  0.57562093379E+03  0.00000000000E+00 0. -1.
          1    1    1    2  502    0 -0.11843542769E+02  0.31493620955E+02  0.28462289895E+03  0.28660480156E+03  0.00000000000E+00 0. -1.
         22    1    3    3    0    0 -0.23747148064E+02  0.28860339861E+02 -0.41192542883E+02  0.55620786107E+02  0.00000000000E+00 0.  1.
         22    1    3    3    0    0 -0.20170682780E+02 -0.47563809674E+02  0.60517739402E+02  0.79571158198E+02  0.00000000000E+00 0.  1.
</event>
<event>
 7    1  0.7519489E-006  0.5396320E+02  0.7818608E-02  0.1486124E+00
          2   -1    0    0  502    0  0.00000000000E+00  0.00000000000E+00  0.13870746576E+04  0.13870746576E+04  0.00000000000E+00 0. -1.
          1   -1    0    0  501    0 -0.00000000000E+00 -0.00000000000E+00 -0.11767866458E+04  0.11767866458E+04  0.00000000000E+00 0. -1.
         25    2    1    2    0    0  0.22351909549E+02  0.51612408377E+01 -0.11430339700E+03  0.17092815568E+03  0.12499968628E+03 0.  0.
          2    1    1    2  501    0 -0.45082854693E+02 -0.31153863415E+02 -0.10332252730E+04  0.10346774820E+04  0.00000000000E+00 0. -1.
          1    1    1    2  502    0  0.22730945144E+02  0.25992622577E+02  0.13578166818E+04  0.13582556658E+04  0.00000000000E+00 0. -1.
         22    1    3    3    0    0 -0.51685992916E+02 -0.63126185533E+01 -0.43624495595E+02  0.67929284058E+02  0.00000000000E+00 0. -1.
         22    1    3    3    0    0  0.74037902465E+02  0.11473859391E+02 -0.70678901403E+02  0.10299887162E+03  0.00000000000E+00 0. -1.
</event>
<event>
 7    1  0.6122298E-006  0.1522227E+03  0.7818608E-02  0.1277571E+00
          2   -1    0    0  502    0  0.00000000000E+00  0.00000000000E+00  0.61432393384E+03  0.61432393384E+03  0.00000000000E+00 0. -1.
          1   -1    0    0  501    0 -0.00000000000E+00 -0.00000000000E+00 -0.24011409400E+04  0.24011409400E+04  0.00000000000E+00 0. -1.
         25    2    1    2    0    0  0.11314204373E+01  0.19945024742E+03  0.15074326667E+02  0.23586863378E+03  0.12500038308E+03 0.  0.
          2    1    1    2  501    0 -0.37545440156E+02 -0.56000500585E+02 -0.22790321678E+04  0.22800292406E+04  0.00000000000E+00 0. -1.
          1    1    1    2  502    0  0.36414019718E+02 -0.14344974683E+03  0.47714083490E+03  0.49956699953E+03  0.00000000000E+00 0. -1.
         22    1    3    3    0    0 -0.14385019691E+02  0.31180138844E+01 -0.30370214244E+02  0.33749084659E+02  0.00000000000E+00 0. -1.
         22    1    3    3    0    0  0.15516440128E+02  0.19633223353E+03  0.45444540910E+02  0.20211954912E+03  0.00000000000E+00 0. -1.
</event>
<event>
 7    1  0.6122298E-006  0.1089098E+03  0.7818608E-02  0.1298847E+00
          2   -1    0    0  502    0  0.00000000000E+00  0.00000000000E+00  0.28210726693E+03  0.28210726693E+03  0.00000000000E+00 0. -1.
          1   -1    0    0  501    0 -0.00000000000E+00 -0.00000000000E+00 -0.20217094014E+04  0.20217094014E+04  0.00000000000E+00 0. -1.
         25    2    1    2    0    0 -0.97492540673E+02 -0.38146838389E+02 -0.31130890985E+01  0.16307769269E+03  0.12499866305E+03 0.  0.
          2    1    1    2  501    0 -0.98954980864E+01  0.76529000736E+02 -0.19216919859E+04  0.19232406759E+04  0.00000000000E+00 0. -1.
          1    1    1    2  502    0  0.10738803876E+03 -0.38382162346E+02  0.18520294046E+03  0.21749829978E+03  0.00000000000E+00 0. -1.
         22    1    3    3    0    0 -0.33881252583E+02 -0.63518678563E+02  0.39799658191E+02  0.82259191554E+02  0.00000000000E+00 0. -1.
         22    1    3    3    0    0 -0.63611288090E+02  0.25371840174E+02 -0.42912747290E+02  0.80818501138E+02  0.00000000000E+00 0. -1.
</event>
<event>
 7    1  0.6122298E-006  0.8259340E+02  0.7818608E-02  0.1446876E+00
          2   -1    0    0  502    0  0.00000000000E+00  0.00000000000E+00  0.15759286498E+03  0.15759286498E+03  0.00000000000E+00 0. -1.
          1   -1    0    0  501    0 -0.00000000000E+00 -0.00000000000E+00 -0.21019254410E+04  0.21019254410E+04  0.00000000000E+00 0. -1.
         25    2    1    2    0    0  0.79276479354E+01  0.54927707522E+02 -0.27664232800E+03  0.30860257264E+03  0.12499867816E+03 0.  0.
          2    1    1    2  501    0 -0.80007843032E+01  0.28837432128E+02 -0.17967805201E+04  0.17970297291E+04  0.00000000000E+00 0. -1.
          1    1    1    2  502    0  0.73136367824E-01 -0.83765139650E+02  0.12909027203E+03  0.15388600424E+03  0.00000000000E+00 0. -1.
         22    1    3    3    0    0  0.18104768399E+01 -0.34909632131E+02 -0.14469868654E+03  0.14886124454E+03  0.00000000000E+00 0.  1.
         22    1    3    3    0    0  0.61171710955E+01  0.89837339653E+02 -0.13194364146E+03  0.15974132809E+03  0.00000000000E+00 0.  1.
</event>
<event>
 7    1  0.6122298E-006  0.1077740E+03  0.7818608E-02  0.1308331E+00
          2   -1    0    0  502    0  0.00000000000E+00  0.00000000000E+00  0.61722108474E+03  0.61722108474E+03  0.00000000000E+00 0. -1.
          1   -1    0    0  501    0 -0.00000000000E+00 -0.00000000000E+00 -0.82918835187E+03  0.82918835187E+03  0.00000000000E+00 0. -1.
         25    2    1    2    0    0  0.41076689333E+02  0.22733060444E+02  0.11710762702E+03  0.17760590824E+03  0.12500230354E+03 0.  0.
          2    1    1    2  501    0 -0.10944998845E+03 -0.18643518779E+01 -0.79243567546E+03  0.79996067123E+03  0.00000000000E+00 0. -1.
          1    1    1    2  502    0  0.68373299119E+02 -0.20868708566E+02  0.46336078131E+03  0.46884285713E+03  0.00000000000E+00 0. -1.
         22    1    3    3    0    0  0.77480984351E+02 -0.46097699081E+01  0.38208468869E+02  0.86512658079E+02  0.00000000000E+00 0.  1.
         22    1    3    3    0    0 -0.36404295018E+02  0.27342830352E+02  0.78899158152E+02  0.91093250158E+02  0.00000000000E+00 0.  1.
</event>
<event>
 7    1  0.6122298E-006  0.3152707E+03  0.7818608E-02  0.1250395E+00
          2   -1    0    0  502    0  0.00000000000E+00  0.00000000000E+00  0.57743134098E+02  0.57743134098E+02  0.00000000000E+00 0. -1.
          1   -1    0    0  501    0 -0.00000000000E+00 -0.00000000000E+00 -0.22098108413E+04  0.22098108413E+04  0.00000000000E+00 0. -1.
         25    2    1    2    0    0 -0.24045747410E+03  0.17543969692E+03 -0.82646378670E+03  0.88728068304E+03  0.12500294257E+03 0.  0.
          2    1    1    2  501    0 -0.26233670208E+02  0.33370007648E+02 -0.21570523103E+03  0.21984201044E+03  0.00000000000E+00 0. -1.
          1    1    1    2  502    0  0.26669114431E+03 -0.20880970456E+03 -0.11098986895E+04  0.11604312819E+04  0.00000000000E+00 0. -1.
         22    1    3    3    0    0 -0.76252431205E+02  0.12722620762E+03 -0.44815578032E+03  0.47206413187E+03  0.00000000000E+00 0.  1.
         22    1    3    3    0    0 -0.16420504289E+03  0.48213489295E+02 -0.37830800639E+03  0.41521655116E+03  0.00000000000E+00 0.  1.
</event>
<event>
 7    1  0.6122298E-006  0.2489198E+03  0.7818608E-02  0.1202292E+00
          2   -1    0    0  502    0  0.00000000000E+00  0.00000000000E+00  0.33515807767E+04  0.33515807767E+04  0.00000000000E+00 0. -1.
          1   -1    0    0  501    0 -0.00000000000E+00 -0.00000000000E+00 -0.10911248003E+03  0.10911248003E+03  0.00000000000E+00 0. -1.
         25    2    1    2    0    0  0.16742321389E+03 -0.10251265161E+03  0.37455445080E+03  0.44097222114E+03  0.12500434756E+03 0.  0.
          2    1    1    2  501    0 -0.25094415171E+03  0.13216044093E+03  0.19235540629E+03  0.34269512946E+03  0.00000000000E+00 0. -1.
          1    1    1    2  502    0  0.83520937821E+02 -0.29647789312E+02  0.26755584396E+04  0.26770259061E+04  0.00000000000E+00 0. -1.
         22    1    3    3    0    0 -0.67312819995E+01 -0.37195813324E+02  0.25948929089E+02  0.45849597676E+02  0.00000000000E+00 0.  1.
         22    1    3    3    0    0  0.17415449589E+03 -0.65316838290E+02  0.34860552171E+03  0.39512262346E+03  0.00000000000E+00 0.  1.
</event>
<event>
 7    1  0.6122298E-006  0.8564266E+02  0.7818608E-02  0.1399123E+00
          2   -1    0    0  502    0  0.00000000000E+00  0.00000000000E+00  0.14535726368E+04  0.14535726368E+04  0.00000000000E+00 0. -1.
          1   -1    0    0  501    0 -0.00000000000E+00 -0.00000000000E+00 -0.19649149238E+03  0.19649149238E+03  0.00000000000E+00 0. -1.
         25    2    1    2    0    0 -0.62286163326E+02 -0.92372367169E+02  0.23420397999E+03  0.28790539602E+03  0.12500316978E+03 0.  0.
          2    1    1    2  501    0 -0.50491727426E+01  0.41299134455E+02 -0.16556627109E+03  0.17071409659E+03  0.00000000000E+00 0. -1.
          1    1    1    2  502    0  0.67335336069E+02  0.51073232714E+02  0.11884434355E+04  0.11914446365E+04  0.00000000000E+00 0. -1.
         22    1    3    3    0    0  0.24206607567E+02 -0.63546617892E+02  0.57436146772E+02  0.89011479324E+02  0.00000000000E+00 0.  1.
         22    1    3    3    0    0 -0.86492770893E+02 -0.28825749277E+02  0.17676783321E+03  0.19889391669E+03  0.00000000000E+00 0.  1.
</event>
<event>
 7    1  0.6122298E-006  0.1265712E+03  0.7818608E-02  0.1239325E+00
          2   -1    0    0  502    0  0.00000000000E+00  0.00000000000E+00  0.10678461361E+04  0.10678461361E+04  0.00000000000E+00 0. -1.
          1   -1    0    0  501    0 -0.00000000000E+00 -0.00000000000E+00 -0.77823988852E+02  0.77823988852E+02  0.00000000000E+00 0. -1.
         25    2    1    2    0    0 -0.80357104580E+02 -0.76324385123E+01  0.35201063642E+03  0.38216733734E+03  0.12499946880E+03 0.  0.
          2    1    1    2  501    0  0.96328283298E+02 -0.10948737963E+03  0.36286385813E+02  0.15027749751E+03  0.00000000000E+00 0. -1.
          1    1    1    2  502    0 -0.15971178718E+02  0.11711981815E+03  0.60172512499E+03  0.61322529008E+03  0.00000000000E+00 0. -1.
         22    1    3    3    0    0  0.29792286199E+02 -0.20051617592E+01  0.32396730310E+02  0.44058473934E+02  0.00000000000E+00 0. -1.
         22    1    3    3    0    0 -0.11014939078E+03 -0.56272767531E+01  0.31961390611E+03  0.33810886341E+03  0.00000000000E+00 0. -1.
</event>
<event>
 7    1  0.6122298E-006  0.5968797E+02  0.7818608E-02  0.1463035E+00
          2   -1    0    0  502    0  0.00000000000E+00  0.00000000000E+00  0.82126316672E+03  0.82126316672E+03  0.00000000000E+00 0. -1.
          1   -1    0    0  501    0 -0.00000000000E+00 -0.00000000000E+00 -0.40926926108E+03  0.40926926108E+03  0.00000000000E+00 0. -1.
         25    2    1    2    0    0 -0.17895153380E+01  0.43581284308E+02  0.88094646315E+02  0.15902477941E+03  0.12500273217E+03 0.  0.
          2    1    1    2  501    0 -0.36647981848E+02  0.32737826482E+01 -0.37157781424E+03  0.37339505120E+03  0.00000000000E+00 0. -1.
          1    1    1    2  502    0  0.38437497186E+02 -0.46855066956E+02  0.69547707357E+03  0.69811259719E+03  0.00000000000E+00 0. -1.
         22    1    3    3    0    0 -0.68492047213E+01  0.53393234967E+02 -0.14570479409E+02  0.55767804473E+02  0.00000000000E+00 0. -1.
         22    1    3    3    0    0  0.50596893833E+01 -0.98119506593E+01  0.10266512572E+03  0.10325697493E+03  0.00000000000E+00 0. -1.
</event>
<event>
 7    1  0.6122298E-006  0.1331884E+03  0.7818608E-02  0.1282180E+00
          2   -1    0    0  502    0  0.00000000000E+00  0.00000000000E+00  0.87669689685E+03  0.87669689685E+03  0.00000000000E+00 0. -1.
          1   -1    0    0  501    0 -0.00000000000E+00 -0.00000000000E+00 -0.12533363281E+04  0.12533363281E+04  0.00000000000E+00 0. -1.
         25    2    1    2    0    0 -0.41372629360E+02 -0.11540292991E+03 -0.10801763793E+03  0.20572349121E+03  0.12499925616E+03 0.  0.
          2    1    1    2  501    0  0.72157850475E+02 -0.15242056360E+02 -0.10897706376E+04  0.10922633008E+04  0.00000000000E+00 0. -1.
          1    1    1    2  502    0 -0.30785221115E+02  0.13064498627E+03  0.82114884423E+03  0.83204643299E+03  0.00000000000E+00 0. -1.
         22    1    3    3    0    0 -0.40283667396E+02 -0.11278601084E+03 -0.24608557144E+02  0.12226626348E+03  0.00000000000E+00 0.  1.
         22    1    3    3    0    0 -0.10889619646E+01 -0.26169190716E+01 -0.83409080782E+02  0.83457227731E+02  0.00000000000E+00 0.  1.
</event>
<event>
 7    1  0.1408456E-005  0.7434403E+02  0.7818608E-02  0.1456031E+00
          2   -1    0    0  502    0  0.00000000000E+00  0.00000000000E+00  0.24683695182E+04  0.24683695182E+04  0.00000000000E+00 0. -1.
          1   -1    0    0  501    0 -0.00000000000E+00 -0.00000000000E+00 -0.18922727356E+04  0.18922727356E+04  0.00000000000E+00 0. -1.
         25    2    1    2    0    0  0.36251893790E+02 -0.48553408070E+02 -0.21749365046E+03  0.25807276912E+03  0.12500573160E+03 0.  0.
          2    1    1    2  501    0  0.28614998712E+02  0.12138823063E+02 -0.16537783404E+04  0.16540704242E+04  0.00000000000E+00 0. -1.
          1    1    1    2  502    0 -0.64866892501E+02  0.36414585007E+02  0.24473687734E+04  0.24484990604E+04  0.00000000000E+00 0. -1.
         22    1    3    3    0    0 -0.26345638003E+02  0.28058805506E+02 -0.78937328906E+02  0.87820789697E+02  0.00000000000E+00 0. -1.
         22    1    3    3    0    0  0.62597531793E+02 -0.76612213576E+02 -0.13855632155E+03  0.17025197943E+03  0.00000000000E+00 0. -1.
</event>
<event>
 7    1  0.6122298E-006  0.1102635E+03  0.7818608E-02  0.1326924E+00
          2   -1    0    0  502    0  0.00000000000E+00  0.00000000000E+00  0.13979319088E+04  0.13979319088E+04  0.00000000000E+00 0. -1.
          1   -1    0    0  501    0 -0.00000000000E+00 -0.00000000000E+00 -0.70834243915E+03  0.70834243915E+03  0.00000000000E+00 0. -1.
         25    2    1    2    0    0  0.16641444832E+03  0.61139852436E+01  0.11262710199E+03  0.23672893244E+03  0.12499829570E+03 0.  0.
          2    1    1    2  501    0 -0.58360686255E+02 -0.95870446862E+01 -0.64254214044E+03  0.64525830747E+03  0.00000000000E+00 0. -1.
          1    1    1    2  502    0 -0.10805376206E+03  0.34730594426E+01  0.12195045081E+04  0.12242871081E+04  0.00000000000E+00 0. -1.
         22    1    3    3    0    0 -0.89503470244E+01  0.29742811237E+02  0.20694291079E+02  0.37322877908E+02  0.00000000000E+00 0.  1.
         22    1    3    3    0    0  0.17536479534E+03 -0.23628825993E+02  0.91932810912E+02  0.19940605453E+03  0.00000000000E+00 0.  1.
</event>
<event>
 7    1  0.9663375E-006  0.8063315E+02  0.7818608E-02  0.1345683E+00
          2   -1    0    0  502    0  0.00000000000E+00  0.00000000000E+00  0.14576641360E+04  0.14576641360E+04  0.00000000000E+00 0. -1.
          1   -1    0    0  501    0 -0.00000000000E+00 -0.00000000000E+00 -0.10675910598E+04  0.10675910598E+04  0.00000000000E+00 0. -1.
         25    2    1    2    0    0  0.11012899866E+03 -0.57955718073E+02 -0.41864411306E+03  0.45428477584E+03  0.12499801019E+03 0.  0.
          2    1    1    2  501    0 -0.76606580720E+02 -0.19895061709E+01 -0.62797700881E+03  0.63263547951E+03  0.00000000000E+00 0. -1.
          1    1    1    2  502    0 -0.33522417935E+02  0.59945224244E+02  0.14366941981E+04  0.14383349405E+04  0.00000000000E+00 0. -1.
         22    1    3    3    0    0  0.12270161022E+03 -0.73448404345E+02 -0.28195441103E+03  0.31614655328E+03  0.00000000000E+00 0. -1.
         22    1    3    3    0    0 -0.12572611563E+02  0.15492686272E+02 -0.13668970203E+03  0.13813822255E+03  0.00000000000E+00 0. -1.
</event>
<event>
 7    1  0.6122298E-006  0.1586354E+03  0.7818608E-02  0.1278253E+00
          2   -1    0    0  502    0  0.00000000000E+00  0.00000000000E+00  0.15686654136E+04  0.15686654136E+04  0.00000000000E+00 0. -1.
          1   -1    0    0  501    0 -0.00000000000E+00 -0.00000000000E+00 -0.10336767760E+04  0.10336767760E+04  0.00000000000E+00 0. -1.
         25    2    1    2    0    0  0.13513920473E+03  0.52755882928E+02  0.35596123228E+02  0.19477477589E+03  0.12499736596E+03 0.  0.
          2    1    1    2  501    0 -0.15997101441E+03  0.65304480649E+01 -0.94665177325E+03  0.96009528277E+03  0.00000000000E+00 0. -1.
          1    1    1    2  502    0  0.24831809682E+02 -0.59286330993E+02  0.14460442877E+04  0.14474721309E+04  0.00000000000E+00 0. -1.
         22    1    3    3    0    0  0.10363682170E+03 -0.23121056853E+02  0.25332629488E+01  0.10621483655E+03  0.00000000000E+00 0.  1.
         22    1    3    3    0    0  0.31502383026E+02  0.75876939781E+02  0.33062860279E+02  0.88559939345E+02  0.00000000000E+00 0.  1.
</event>
<event>
 7    1  0.6122298E-006  0.1218968E+03  0.7818608E-02  0.1284327E+00
          2   -1    0    0  502    0  0.00000000000E+00  0.00000000000E+00  0.16278964577E+04  0.16278964577E+04  0.00000000000E+00 0. -1.
          1   -1    0    0  501    0 -0.00000000000E+00 -0.00000000000E+00 -0.83430923628E+03  0.83430923628E+03  0.00000000000E+00 0. -1.
         25    2    1    2    0    0  0.41419201830E+02  0.57557126338E+02 -0.63863131146E+02  0.15725021739E+03  0.12498303196E+03 0.  0.
          2    1    1    2  501    0  0.76225354679E+02 -0.20603954303E+02 -0.71918429104E+03  0.72350595858E+03  0.00000000000E+00 0. -1.
          1    1    1    2  502    0 -0.11764455651E+03 -0.36953172036E+02  0.15766346437E+04  0.15814495181E+04  0.00000000000E+00 0. -1.
         22    1    3    3    0    0  0.44570724466E+02 -0.18714335500E+02  0.11810179335E+02  0.49761995223E+02  0.00000000000E+00 0. -1.
         22    1    3    3    0    0 -0.31515226354E+01  0.76271461839E+02 -0.75673310481E+02  0.10748822217E+03  0.00000000000E+00 0. -1.
</event>
<event>
 7    1  0.6122298E-006  0.1906207E+03  0.7818608E-02  0.1256512E+00
          2   -1    0    0  502    0  0.00000000000E+00  0.00000000000E+00  0.21560431356E+03  0.21560431356E+03  0.00000000000E+00 0. -1.
          1   -1    0    0  501    0 -0.00000000000E+00 -0.00000000000E+00 -0.10668175760E+04  0.10668175760E+04  0.00000000000E+00 0. -1.
         25    2    1    2    0    0 -0.15191009458E+03 -0.14535546471E+02  0.90103878497E+02  0.21685818269E+03  0.12498321300E+03 0.  0.
          2    1    1    2  501    0  0.18921002687E+03 -0.39993348353E+02 -0.97318456524E+03  0.99221373715E+03  0.00000000000E+00 0. -1.
          1    1    1    2  502    0 -0.37299932283E+02  0.54528894824E+02  0.31867424340E+02  0.73349969688E+02  0.00000000000E+00 0. -1.
         22    1    3    3    0    0 -0.13195809075E+03  0.30861255771E+02  0.29750113091E+02  0.13874589742E+03  0.00000000000E+00 0.  1.
         22    1    3    3    0    0 -0.19952003832E+02 -0.45396802243E+02  0.60353765406E+02  0.78112285266E+02  0.00000000000E+00 0.  1.
</event>
<event>
 7    1  0.6122298E-006  0.1390871E+03  0.7818608E-02  0.1266516E+00
          2   -1    0    0  502    0  0.00000000000E+00  0.00000000000E+00  0.20153551911E+04  0.20153551911E+04  0.00000000000E+00 0. -1.
          1   -1    0    0  501    0 -0.00000000000E+00 -0.00000000000E+00 -0.56099381998E+03  0.56099381998E+03  0.00000000000E+00 0. -1.
         25    2    1    2    0    0 -0.14672017296E+03 -0.35214028601E+02  0.79862969869E+03  0.82232163775E+03  0.12504656460E+03 0.  0.
          2    1    1    2  501    0  0.96613535494E+02  0.10023201160E+03 -0.53889370786E+03  0.55658517745E+03  0.00000000000E+00 0. -1.
          1    1    1    2  502    0  0.50106637463E+02 -0.65017983002E+02  0.11946253803E+04  0.11974421959E+04  0.00000000000E+00 0. -1.
         22    1    3    3    0    0 -0.10236746530E+03 -0.16130401136E+02  0.73590199601E+03  0.74316285936E+03  0.00000000000E+00 0. -1.
         22    1    3    3    0    0 -0.44352707653E+02 -0.19083627465E+02  0.62727702679E+02  0.79158778393E+02  0.00000000000E+00 0. -1.
</event>
<event>
 7    1  0.6122298E-006  0.1503309E+03  0.7818608E-02  0.1268423E+00
          2   -1    0    0  502    0  0.00000000000E+00  0.00000000000E+00  0.21315664805E+04  0.21315664805E+04  0.00000000000E+00 0. -1.
          1   -1    0    0  501    0 -0.00000000000E+00 -0.00000000000E+00 -0.34554857732E+03  0.34554857732E+03  0.00000000000E+00 0. -1.
         25    2    1    2    0    0  0.11353892777E+03  0.18978776597E+02  0.26220582299E+03  0.31245717626E+03  0.12500524510E+03 0.  0.
          2    1    1    2  501    0 -0.14559091278E+03  0.48332365078E+02 -0.30125746676E+03  0.33806625486E+03  0.00000000000E+00 0. -1.
          1    1    1    2  502    0  0.32051985012E+02 -0.67311141675E+02  0.18250695469E+04  0.18265916267E+04  0.00000000000E+00 0. -1.
         22    1    3    3    0    0 -0.19332508510E+02 -0.16840449596E+02  0.15484580279E+02  0.29951942413E+02  0.00000000000E+00 0.  1.
         22    1    3    3    0    0  0.13287143628E+03  0.35819226193E+02  0.24672124271E+03  0.28250523384E+03  0.00000000000E+00 0.  1.
</event>
<event>
 7    1  0.6122298E-006  0.6220060E+02  0.7818608E-02  0.1399158E+00
          2   -1    0    0  502    0  0.00000000000E+00  0.00000000000E+00  0.38130679866E+04  0.38130679866E+04  0.00000000000E+00 0. -1.
          1   -1    0    0  501    0 -0.00000000000E+00 -0.00000000000E+00 -0.26824682515E+02  0.26824682515E+02  0.00000000000E+00 0. -1.
         25    2    1    2    0    0  0.58957200902E+02  0.13244753809E+02  0.20448561173E+04  0.20495640182E+04  0.12499899623E+03 0.  0.
          2    1    1    2  501    0 -0.30193183937E+02  0.48665763012E+02  0.10658943523E+02  0.58254595723E+02  0.00000000000E+00 0. -1.
          1    1    1    2  502    0 -0.28764016965E+02 -0.61910516821E+02  0.17307282432E+04  0.17320740551E+04  0.00000000000E+00 0. -1.
         22    1    3    3    0    0  0.79888655946E+02  0.44092057326E+02  0.10332790227E+04  0.10373002679E+04  0.00000000000E+00 0.  1.
         22    1    3    3    0    0 -0.20931455044E+02 -0.30847303517E+02  0.10115770946E+04  0.10122637503E+04  0.00000000000E+00 0.  1.
</event>
<event>
 7    1  0.6122298E-006  0.1335968E+03  0.7818608E-02  0.1347654E+00
          2   -1    0    0  502    0  0.00000000000E+00  0.00000000000E+00  0.17090761110E+04  0.17090761110E+04  0.00000000000E+00 0. -1.
          1   -1    0    0  501    0 -0.00000000000E+00 -0.00000000000E+00 -0.82316459408E+03  0.82316459408E+03  0.00000000000E+00 0. -1.
         25    2    1    2    0    0  0.16680199127E+02 -0.10796044205E+03 -0.17146622972E+03  0.23866228027E+03  0.12500131998E+03 0.  0.
          2    1    1    2  501    0 -0.50764439792E+02  0.13031064519E+03 -0.60993760996E+03  0.62576495639E+03  0.00000000000E+00 0. -1.
          1    1    1    2  502    0  0.34084240665E+02 -0.22350203141E+02  0.16673153566E+04  0.16678134684E+04  0.00000000000E+00 0. -1.
         22    1    3    3    0    0  0.25516732434E+01  0.14559126639E+02 -0.89187955346E+02  0.90404483205E+02  0.00000000000E+00 0. -1.
         22    1    3    3    0    0  0.14128525884E+02 -0.12251956869E+03 -0.82278274379E+02  0.14825779706E+03  0.00000000000E+00 0. -1.
</event>
<event>
 7    1  0.6122298E-006  0.6068207E+02  0.7818608E-02  0.1443128E+00
          2   -1    0    0  502    0  0.00000000000E+00  0.00000000000E+00  0.63213253404E+03  0.63213253404E+03  0.00000000000E+00 0. -1.
          1   -1    0    0  501    0 -0.00000000000E+00 -0.00000000000E+00 -0.97208745351E+03  0.97208745351E+03  0.00000000000E+00 0. -1.
         25    2    1    2    0    0  0.12381967482E+02  0.28602559966E+02 -0.88629729813E+02  0.15637033780E+03  0.12500013593E+03 0.  0.
          2    1    1    2  501    0  0.41879286914E+02 -0.41130977405E+00 -0.84750651586E+03  0.84854071103E+03  0.00000000000E+00 0. -1.
          1    1    1    2  502    0 -0.54261254395E+02 -0.28191250192E+02  0.59618132620E+03  0.59930893872E+03  0.00000000000E+00 0. -1.
         22    1    3    3    0    0 -0.56042823878E+02  0.21352465425E+02 -0.39176858330E+02  0.71634852667E+02  0.00000000000E+00 0.  1.
         22    1    3    3    0    0  0.68424791360E+02  0.72500945405E+01 -0.49452871482E+02  0.84735485136E+02  0.00000000000E+00 0.  1.
</event>
<event>
 7    1  0.6122298E-006  0.1843386E+03  0.7818608E-02  0.1259564E+00
          2   -1    0    0  502    0  0.00000000000E+00  0.00000000000E+00  0.60968440296E+03  0.60968440296E+03  0.00000000000E+00 0. -1.
          1   -1    0    0  501    0 -0.00000000000E+00 -0.00000000000E+00 -0.49501397525E+03  0.49501397525E+03  0.00000000000E+00 0. -1.
         25    2    1    2    0    0  0.22661888568E+03  0.30357809876E+02  0.36280620173E+02  0.26309153249E+03  0.12499262017E+03 0.  0.
          2    1    1    2  501    0 -0.16793651988E+03 -0.61196680152E+02 -0.35803764805E+03  0.40017329470E+03  0.00000000000E+00 0. -1.
          1    1    1    2  502    0 -0.58682365801E+02  0.30838870276E+02  0.43642745558E+03  0.44143355102E+03  0.00000000000E+00 0. -1.
         22    1    3    3    0    0  0.11021875427E+03  0.75097114014E+01 -0.45007229538E+02  0.11929048692E+03  0.00000000000E+00 0. -1.
         22    1    3    3    0    0  0.11640013141E+03  0.22848098475E+02  0.81287849710E+02  0.14380104557E+03  0.00000000000E+00 0. -1.
</event>
<event>
 7    1  0.6122298E-006  0.6990870E+02  0.7818608E-02  0.1474733E+00
          2   -1    0    0  502    0  0.00000000000E+00  0.00000000000E+00  0.44184260177E+02  0.44184260177E+02  0.00000000000E+00 0. -1.
          1   -1    0    0  501    0 -0.00000000000E+00 -0.00000000000E+00 -0.76774114179E+03  0.76774114179E+03  0.00000000000E+00 0. -1.
         25    2    1    2    0    0 -0.88925780794E+02  0.14831713246E+02 -0.16064180527E+03  0.22261238890E+03  0.12499084721E+03 0.  0.
          2    1    1    2  501    0  0.28875485622E+02  0.76895394851E+00 -0.50041044175E+03  0.50124344900E+03  0.00000000000E+00 0. -1.
          1    1    1    2  502    0  0.60050295172E+02 -0.15600667195E+02 -0.62504634594E+02  0.88069564056E+02  0.00000000000E+00 0. -1.
         22    1    3    3    0    0 -0.13923041454E+02 -0.35874312279E+02 -0.30696181624E+00  0.38482614131E+02  0.00000000000E+00 0.  1.
         22    1    3    3    0    0 -0.75002739340E+02  0.50706025525E+02 -0.16033484345E+03  0.18412977477E+03  0.00000000000E+00 0.  1.
</event>
<event>
 7    1  0.6122298E-006  0.4593056E+02  0.7818608E-02  0.1521666E+00
          2   -1    0    0  502    0  0.00000000000E+00  0.00000000000E+00  0.15470801461E+03  0.15470801461E+03  0.00000000000E+00 0. -1.
          1   -1    0    0  501    0 -0.00000000000E+00 -0.00000000000E+00 -0.75792732495E+03  0.75792732495E+03  0.00000000000E+00 0. -1.
         25    2    1    2    0    0  0.20365646295E+01 -0.20942484637E+02 -0.70648905673E+02  0.14511875309E+03  0.12500179746E+03 0.  0.
          2    1    1    2  501    0 -0.24126025383E+02 -0.20744701556E+02 -0.64489864124E+03  0.64568309968E+03  0.00000000000E+00 0. -1.
          1    1    1    2  502    0  0.22089460754E+02  0.41687186193E+02  0.11232823657E+03  0.12183348678E+03  0.00000000000E+00 0. -1.
         22    1    3    3    0    0 -0.59249298765E+02 -0.35958325322E+01 -0.51564277463E+02  0.78627502351E+02  0.00000000000E+00 0.  1.
         22    1    3    3    0    0  0.61285863394E+02 -0.17346652105E+02 -0.19084628210E+02  0.66491250742E+02  0.00000000000E+00 0.  1.
</event>
<event>
 7    1  0.6122298E-006  0.6554958E+02  0.7818608E-02  0.1464130E+00
          2   -1    0    0  502    0  0.00000000000E+00  0.00000000000E+00  0.32837931398E+03  0.32837931398E+03  0.00000000000E+00 0. -1.
          1   -1    0    0  501    0 -0.00000000000E+00 -0.00000000000E+00 -0.48808625460E+03  0.48808625460E+03  0.00000000000E+00 0. -1.
         25    2    1    2    0    0 -0.44836376588E+02  0.72113086657E+02 -0.54743001250E+02  0.16072647575E+03  0.12500242353E+03 0.  0.
          2    1    1    2  501    0  0.51357603969E+02 -0.39519634602E+02 -0.37657074418E+03  0.38210591513E+03  0.00000000000E+00 0. -1.
          1    1    1    2  502    0 -0.65212273808E+01 -0.32593452055E+02  0.27160680481E+03  0.27363317771E+03  0.00000000000E+00 0. -1.
         22    1    3    3    0    0 -0.22816492685E+01  0.93311658237E+02 -0.62809331041E+02  0.11250459347E+03  0.00000000000E+00 0.  1.
         22    1    3    3    0    0 -0.42554727319E+02 -0.21198571580E+02  0.80663297914E+01  0.48221882279E+02  0.00000000000E+00 0.  1.
</event>
<event>
 7    1  0.6122298E-006  0.7774673E+02  0.7818608E-02  0.1336497E+00
          2   -1    0    0  502    0  0.00000000000E+00  0.00000000000E+00  0.10293203115E+04  0.10293203115E+04  0.00000000000E+00 0. -1.
          1   -1    0    0  501    0 -0.00000000000E+00 -0.00000000000E+00 -0.16191963771E+04  0.16191963771E+04  0.00000000000E+00 0. -1.
         25    2    1    2    0    0  0.51667575509E+02  0.36338340349E+02  0.23596907074E+03  0.27440473024E+03  0.12500616102E+03 0.  0.
          2    1    1    2  501    0  0.14075900561E+02 -0.76655983187E+02 -0.15971051608E+04  0.15990056802E+04  0.00000000000E+00 0. -1.
          1    1    1    2  502    0 -0.65743476070E+02  0.40317642838E+02  0.77126002453E+03  0.77510627813E+03  0.00000000000E+00 0. -1.
         22    1    3    3    0    0 -0.58139870485E+01 -0.39247714200E+02  0.38477467936E+02  0.55269350042E+02  0.00000000000E+00 0.  1.
         22    1    3    3    0    0  0.57481562558E+02  0.75586054548E+02  0.19749160281E+03  0.21913538020E+03  0.00000000000E+00 0.  1.
</event>
<event>
 7    1  0.8687837E-006  0.5559668E+02  0.7818608E-02  0.1464426E+00
          2   -1    0    0  502    0  0.00000000000E+00  0.00000000000E+00  0.67028642103E+03  0.67028642103E+03  0.00000000000E+00 0. -1.
          1   -1    0    0  501    0 -0.00000000000E+00 -0.00000000000E+00 -0.22813247801E+04  0.22813247801E+04  0.00000000000E+00 0. -1.
         25    2    1    2    0    0  0.37049021528E+02 -0.29903055675E+02 -0.62646637040E+03  0.64058639299E+03  0.12499596352E+03 0.  0.
          2    1    1    2  501    0  0.18395569559E+02  0.34509477216E+02 -0.16463990368E+04  0.16468634095E+04  0.00000000000E+00 0. -1.
          1    1    1    2  502    0 -0.55444591086E+02 -0.46064215407E+01  0.66182704817E+03  0.66416139867E+03  0.00000000000E+00 0. -1.
         22    1    3    3    0    0  0.79753163922E+02 -0.31023496921E+02 -0.49532103123E+03  0.50265887886E+03  0.00000000000E+00 0. -1.
         22    1    3    3    0    0 -0.42704142394E+02  0.11204412452E+01 -0.13114533917E+03  0.13792751413E+03  0.00000000000E+00 0. -1.
</event>
<event>
 7    1  0.6122298E-006  0.3892412E+02  0.7818608E-02  0.1523865E+00
          2   -1    0    0  502    0  0.00000000000E+00  0.00000000000E+00  0.27818889322E+02  0.27818889322E+02  0.00000000000E+00 0. -1.
          1   -1    0    0  501    0 -0.00000000000E+00 -0.00000000000E+00 -0.12897180492E+04  0.12897180492E+04  0.00000000000E+00 0. -1.
         25    2    1    2    0    0  0.57447574632E+02  0.27023676007E+02 -0.51804631957E+03  0.53667859358E+03  0.12498568193E+03 0.  0.
          2    1    1    2  501    0 -0.19385704479E+02 -0.31514721276E+02 -0.74154023180E+03  0.74246272538E+03  0.00000000000E+00 0. -1.
          1    1    1    2  502    0 -0.38061870153E+02  0.44910452690E+01 -0.23126085534E+01  0.38395619613E+02  0.00000000000E+00 0. -1.
         22    1    3    3    0    0  0.72499599759E+02  0.22967487004E+02 -0.51526049053E+03  0.52084265429E+03  0.00000000000E+00 0.  1.
         22    1    3    3    0    0 -0.15052025127E+02  0.40561890029E+01 -0.27858290367E+01  0.15835939286E+02  0.00000000000E+00 0.  1.
</event>
<event>
 7    1  0.6122298E-006  0.4045329E+02  0.7818608E-02  0.1585330E+00
          2   -1    0    0  502    0  0.00000000000E+00  0.00000000000E+00  0.16165033917E+04  0.16165033917E+04  0.00000000000E+00 0. -1.
          1   -1    0    0  501    0 -0.00000000000E+00 -0.00000000000E+00 -0.14131725003E+02  0.14131725003E+02  0.00000000000E+00 0. -1.
         25    2    1    2    0    0 -0.48157531095E+02 -0.35618918218E+02  0.59718952540E+03  0.61306468944E+03  0.12500051625E+03 0.  0.
          2    1    1    2  501    0  0.23602717042E+02  0.45791237534E+01  0.19131274457E+02  0.30725596633E+02  0.00000000000E+00 0. -1.
          1    1    1    2  502    0  0.24554814053E+02  0.31039794465E+02  0.98605086682E+03  0.98684483060E+03  0.00000000000E+00 0. -1.
         22    1    3    3    0    0  0.91106299589E+01  0.54571886640E+01 -0.10650418985E+01  0.10673275065E+02  0.00000000000E+00 0.  1.
         22    1    3    3    0    0 -0.57268161054E+02 -0.41076106882E+02  0.59825456730E+03  0.60239141438E+03  0.00000000000E+00 0.  1.
</event>
<event>
 7    1  0.6122298E-006  0.2272888E+03  0.7818608E-02  0.1308040E+00
          2   -1    0    0  502    0  0.00000000000E+00  0.00000000000E+00  0.11656028015E+04  0.11656028015E+04  0.00000000000E+00 0. -1.
          1   -1    0    0  501    0 -0.00000000000E+00 -0.00000000000E+00 -0.11314383969E+04  0.11314383969E+04  0.00000000000E+00 0. -1.
         25    2    1    2    0    0 -0.23472591329E+03 -0.63247864585E+02  0.24492358619E+03  0.36702628479E+03  0.12499673561E+03 0.  0.
          2    1    1    2  501    0  0.22464142892E+03  0.30791397404E+02 -0.10580347497E+04  0.10820579528E+04  0.00000000000E+00 0. -1.
          1    1    1    2  502    0  0.10084484366E+02  0.32456467182E+02  0.84727556812E+03  0.84795696083E+03  0.00000000000E+00 0. -1.
         22    1    3    3    0    0 -0.26870466638E+02 -0.47127421849E+02  0.97876828189E+02  0.11190571640E+03  0.00000000000E+00 0. -1.
         22    1    3    3    0    0 -0.20785544665E+03 -0.16120442736E+02  0.14704675800E+03  0.25512056839E+03  0.00000000000E+00 0. -1.
</event>
<event>
 7    1  0.6122298E-006  0.6007466E+02  0.7818608E-02  0.1456164E+00
          2   -1    0    0  502    0  0.00000000000E+00  0.00000000000E+00  0.38642081885E+02  0.38642081885E+02  0.00000000000E+00 0. -1.
          1   -1    0    0  501    0 -0.00000000000E+00 -0.00000000000E+00 -0.14007727239E+04  0.14007727239E+04  0.00000000000E+00 0. -1.
         25    2    1    2    0    0  0.26839671595E+02 -0.35591098446E+02 -0.45715069213E+03  0.47602445966E+03  0.12500174644E+03 0.  0.
          2    1    1    2  501    0 -0.28092759324E+02 -0.26221592943E+02 -0.90058975734E+03  0.90140927779E+03  0.00000000000E+00 0. -1.
          1    1    1    2  502    0  0.12530877286E+01  0.61812691388E+02 -0.43901925741E+01  0.61981068371E+02  0.00000000000E+00 0. -1.
         22    1    3    3    0    0  0.15363955650E+02  0.40432613615E+02 -0.78314954799E+02  0.89465521415E+02  0.00000000000E+00 0.  1.
         22    1    3    3    0    0  0.11475715945E+02 -0.76023712061E+02 -0.37883573734E+03  0.38655893824E+03  0.00000000000E+00 0.  1.
</event>
<event>
 7    1  0.6122298E-006  0.8868793E+02  0.7818608E-02  0.1356114E+00
          2   -1    0    0  502    0  0.00000000000E+00  0.00000000000E+00  0.17726111492E+04  0.17726111492E+04  0.00000000000E+00 0. -1.
          1   -1    0    0  501    0 -0.00000000000E+00 -0.00000000000E+00 -0.30657632878E+02  0.30657632878E+02  0.00000000000E+00 0. -1.
         25    2    1    2    0    0  0.45587461148E+02  0.37438458140E+02  0.46249533279E+03  0.48270807689E+03  0.12500119953E+03 0.  0.
          2    1    1    2  501    0 -0.97389279552E+02 -0.13337634940E+02  0.10178261684E+03  0.14150005430E+03  0.00000000000E+00 0. -1.
          1    1    1    2  502    0  0.51801818405E+02 -0.24100823200E+02  0.11776755667E+04  0.11790606509E+04  0.00000000000E+00 0. -1.
         22    1    3    3    0    0  0.58838025323E+02 -0.30451981476E+02  0.17814983170E+03  0.19006998431E+03  0.00000000000E+00 0.  1.
         22    1    3    3    0    0 -0.13250564176E+02  0.67890439615E+02  0.28434550108E+03  0.29263809258E+03  0.00000000000E+00 0.  1.
</event>
<event>
 7    1  0.6122298E-006  0.4890091E+02  0.7818608E-02  0.1452023E+00
          2   -1    0    0  502    0  0.00000000000E+00  0.00000000000E+00  0.11819571077E+04  0.11819571077E+04  0.00000000000E+00 0. -1.
          1   -1    0    0  501    0 -0.00000000000E+00 -0.00000000000E+00 -0.18982936363E+04  0.18982936363E+04  0.00000000000E+00 0. -1.
         25    2    1    2    0    0 -0.21832962713E+02  0.46602030456E-01 -0.13551379004E+04  0.13610678644E+04  0.12502128604E+03 0.  0.
          2    1    1    2  501    0  0.68294601669E+02  0.14426500759E+02 -0.53743064510E+03  0.54194462340E+03  0.00000000000E+00 0. -1.
          1    1    1    2  502    0 -0.46461638955E+02 -0.14473102789E+02  0.11762320168E+04  0.11772382563E+04  0.00000000000E+00 0. -1.
         22    1    3    3    0    0  0.17052715381E+02 -0.55679051903E+02 -0.55331664918E+03  0.55637241681E+03  0.00000000000E+00 0.  1.
         22    1    3    3    0    0 -0.38885678095E+02  0.55725653933E+02 -0.80182125119E+03  0.80469544756E+03  0.00000000000E+00 0.  1.
</event>
<event>
 7    1  0.6122298E-006  0.5174810E+02  0.7818608E-02  0.1457670E+00
          2   -1    0    0  502    0  0.00000000000E+00  0.00000000000E+00  0.44563727442E+03  0.44563727442E+03  0.00000000000E+00 0. -1.
          1   -1    0    0  501    0 -0.00000000000E+00 -0.00000000000E+00 -0.57397807734E+03  0.57397807734E+03  0.00000000000E+00 0. -1.
         25    2    1    2    0    0 -0.30081380268E+02  0.33123459715E+02  0.71163873324E+01  0.13293924368E+03  0.12498058457E+03 0.  0.
          2    1    1    2  501    0  0.51964375144E+02  0.51930117157E+01 -0.50842860526E+03  0.51110361992E+03  0.00000000000E+00 0. -1.
          1    1    1    2  502    0 -0.21882994876E+02 -0.38316471431E+02  0.37297141501E+03  0.37557248816E+03  0.00000000000E+00 0. -1.
         22    1    3    3    0    0 -0.33918029854E+02  0.79109097274E+02 -0.10322466502E+01  0.86079890531E+02  0.00000000000E+00 0.  1.
         22    1    3    3    0    0  0.38366495855E+01 -0.45985637559E+02  0.81486339826E+01  0.46859353149E+02  0.00000000000E+00 0.  1.
</event>
<event>
 7    1  0.6122298E-006  0.9112279E+02  0.7818608E-02  0.1328079E+00
          2   -1    0    0  502    0  0.00000000000E+00  0.00000000000E+00  0.20996625276E+03  0.20996625276E+03  0.00000000000E+00 0. -1.
          1   -1    0    0  501    0 -0.00000000000E+00 -0.00000000000E+00 -0.29034127588E+03  0.29034127588E+03  0.00000000000E+00 0. -1.
         25    2    1    2    0    0 -0.82281349288E+02 -0.65217287139E+02 -0.11907331988E+03  0.20205703848E+03  0.12500030523E+03 0.  0.
          2    1    1    2  501    0  0.16494673323E+02  0.91492840142E+02 -0.10365892251E+03  0.13924146747E+03  0.00000000000E+00 0. -1.
          1    1    1    2  502    0  0.65786675965E+02 -0.26275553003E+02  0.14235721927E+03  0.15900902269E+03  0.00000000000E+00 0. -1.
         22    1    3    3    0    0 -0.91814140778E+02  0.36902247824E+01 -0.82377070691E+02  0.12340760099E+03  0.00000000000E+00 0.  1.
         22    1    3    3    0    0  0.95327914903E+01 -0.68907511921E+02 -0.36696249189E+02  0.78649437489E+02  0.00000000000E+00 0.  1.
</event>
<event>
 7    1  0.6122298E-006  0.1057543E+03  0.7818608E-02  0.1320114E+00
          2   -1    0    0  502    0  0.00000000000E+00  0.00000000000E+00  0.52779212003E+03  0.52779212003E+03  0.00000000000E+00 0. -1.
          1   -1    0    0  501    0 -0.00000000000E+00 -0.00000000000E+00 -0.29698823352E+03  0.29698823352E+03  0.00000000000E+00 0. -1.
         25    2    1    2    0    0 -0.50502532588E+02  0.55568088869E+02  0.58059829017E+02  0.15695186174E+03  0.12499849943E+03 0.  0.
          2    1    1    2  501    0 -0.58631362038E+02 -0.29223800587E+02 -0.23549303910E+03  0.24443534647E+03  0.00000000000E+00 0. -1.
          1    1    1    2  502    0  0.10913389463E+03 -0.26344288281E+02  0.40823709660E+03  0.42339314534E+03  0.00000000000E+00 0. -1.
         22    1    3    3    0    0 -0.58203681275E+02 -0.14410642864E+02  0.62243075783E+02  0.86426475253E+02  0.00000000000E+00 0. -1.
         22    1    3    3    0    0  0.77011486870E+01  0.69978731733E+02 -0.41832467665E+01  0.70525386490E+02  0.00000000000E+00 0. -1.
</event>
<event>
 7    1  0.6122298E-006  0.1636147E+03  0.7818608E-02  0.1362288E+00
          2   -1    0    0  502    0  0.00000000000E+00  0.00000000000E+00  0.27195254789E+02  0.27195254789E+02  0.00000000000E+00 0. -1.
          1   -1    0    0  501    0 -0.00000000000E+00 -0.00000000000E+00 -0.25799693048E+04  0.25799693048E+04  0.00000000000E+00 0. -1.
         25    2    1    2    0    0  0.14105400226E+03  0.88696674423E+01 -0.18892426328E+04  0.18986411549E+04  0.12500242795E+03 0.  0.
          2    1    1    2  501    0  0.24513983184E+02  0.16233877986E+02 -0.36539199343E+03  0.36657302551E+03  0.00000000000E+00 0. -1.
          1    1    1    2  502    0 -0.16556798545E+03 -0.25103545429E+02 -0.29813942375E+03  0.34195037914E+03  0.00000000000E+00 0. -1.
         22    1    3    3    0    0  0.11562606851E+03 -0.27671890179E+02 -0.83091986950E+03  0.83938248181E+03  0.00000000000E+00 0. -1.
         22    1    3    3    0    0  0.25427933752E+02  0.36541557621E+02 -0.10583227633E+04  0.10592586731E+04  0.00000000000E+00 0. -1.
</event>
<event>
 7    1  0.6122298E-006  0.4495293E+02  0.7818608E-02  0.1479597E+00
          2   -1    0    0  502    0  0.00000000000E+00  0.00000000000E+00  0.64903607884E+03  0.64903607884E+03  0.00000000000E+00 0. -1.
          1   -1    0    0  501    0 -0.00000000000E+00 -0.00000000000E+00 -0.12238761306E+04  0.12238761306E+04  0.00000000000E+00 0. -1.
         25    2    1    2    0    0 -0.51226214051E+02  0.11903843556E+01 -0.30504823249E+02  0.13850280152E+03  0.12500775883E+03 0.  0.
          2    1    1    2  501    0  0.24986718142E+02  0.35483862414E+02 -0.11381037876E+04  0.11389309337E+04  0.00000000000E+00 0. -1.
          1    1    1    2  502    0  0.26239495909E+02 -0.36674246769E+02  0.59376855903E+03  0.59547847419E+03  0.00000000000E+00 0. -1.
         22    1    3    3    0    0 -0.69364104146E+02  0.42250162973E+02  0.48509914502E+01  0.81363304586E+02  0.00000000000E+00 0. -1.
         22    1    3    3    0    0  0.18137890095E+02 -0.41059778617E+02 -0.35355814700E+02  0.57139496937E+02  0.00000000000E+00 0. -1.
</event>
<event>
 7    1  0.6122298E-006  0.3641065E+02  0.7818608E-02  0.1616742E+00
          2   -1    0    0  502    0  0.00000000000E+00  0.00000000000E+00  0.13515009741E+04  0.13515009741E+04  0.00000000000E+00 0. -1.
          1   -1    0    0  501    0 -0.00000000000E+00 -0.00000000000E+00 -0.31301027429E+03  0.31301027429E+03  0.00000000000E+00 0. -1.
         25    2    1    2    0    0  0.46395274849E+01 -0.24142019654E+02 -0.11006798018E+02  0.12787004608E+03  0.12500094701E+03 0.  0.
          2    1    1    2  501    0 -0.26726774612E+02  0.25297298056E+02 -0.24208661773E+03  0.24486772808E+03  0.00000000000E+00 0. -1.
          1    1    1    2  502    0  0.22087247128E+02 -0.11552784021E+01  0.12915841155E+04  0.12917734742E+04  0.00000000000E+00 0. -1.
         22    1    3    3    0    0  0.10930132940E+02 -0.59375157445E+02 -0.47452457470E+02  0.76789405830E+02  0.00000000000E+00 0. -1.
         22    1    3    3    0    0 -0.62906054548E+01  0.35233137791E+02  0.36445659452E+02  0.51080640251E+02  0.00000000000E+00 0. -1.
</event>
<event>
 7    1  0.6122298E-006  0.9439670E+02  0.7818608E-02  0.1302833E+00
          2   -1    0    0  502    0  0.00000000000E+00  0.00000000000E+00  0.10689042635E+04  0.10689042635E+04  0.00000000000E+00 0. -1.
          1   -1    0    0  501    0 -0.00000000000E+00 -0.00000000000E+00 -0.25802580385E+03  0.25802580385E+03  0.00000000000E+00 0. -1.
         25    2    1    2    0    0  0.17997685982E+02 -0.18844300844E+02  0.19455075556E+03  0.23271026830E+03  0.12500019244E+03 0.  0.
          2    1    1    2  501    0  0.18880386239E+02  0.96339491628E+02 -0.22659073898E+03  0.24694357579E+03  0.00000000000E+00 0. -1.
          1    1    1    2  502    0 -0.36878072221E+02 -0.77495190784E+02  0.84291844309E+03  0.84727622326E+03  0.00000000000E+00 0. -1.
         22    1    3    3    0    0 -0.16393222227E+02  0.10913154487E+02  0.18524646540E+03  0.18629033152E+03  0.00000000000E+00 0. -1.
         22    1    3    3    0    0  0.34390908210E+02 -0.29757455332E+02  0.93042901557E+01  0.46419936779E+02  0.00000000000E+00 0. -1.
</event>
<event>
 7    1  0.6122298E-006  0.1009185E+03  0.7818608E-02  0.1432271E+00
          2   -1    0    0  502    0  0.00000000000E+00  0.00000000000E+00  0.13461230842E+04  0.13461230842E+04  0.00000000000E+00 0. -1.
          1   -1    0    0  501    0 -0.00000000000E+00 -0.00000000000E+00 -0.40244389602E+03  0.40244389602E+03  0.00000000000E+00 0. -1.
         25    2    1    2    0    0  0.33638971947E+02 -0.83363085247E+02  0.21185856107E+03  0.26189703115E+03  0.12500008245E+03 0.  0.
          2    1    1    2  501    0 -0.60856097153E+02  0.81008195060E+02 -0.37045247366E+03  0.38405836466E+03  0.00000000000E+00 0. -1.
          1    1    1    2  502    0  0.27217125206E+02  0.23548901872E+01  0.11022731008E+04  0.11026115844E+04  0.00000000000E+00 0. -1.
         22    1    3    3    0    0  0.18724756651E+02 -0.68043675560E+02  0.26616849355E+02  0.75425559096E+02  0.00000000000E+00 0. -1.
         22    1    3    3    0    0  0.14914215295E+02 -0.15319409688E+02  0.18524171172E+03  0.18647147206E+03  0.00000000000E+00 0. -1.
</event>
<event>
 7    1  0.6122298E-006  0.4409598E+02  0.7818608E-02  0.1504593E+00
          2   -1    0    0  502    0  0.00000000000E+00  0.00000000000E+00  0.10284399222E+03  0.10284399222E+03  0.00000000000E+00 0. -1.
          1   -1    0    0  501    0 -0.00000000000E+00 -0.00000000000E+00 -0.46949308828E+03  0.46949308828E+03  0.00000000000E+00 0. -1.
         25    2    1    2    0    0  0.25188317793E+02 -0.50386615030E+01 -0.12305812390E+03  0.17728192073E+03  0.12500295235E+03 0.  0.
          2    1    1    2  501    0  0.77065515559E+01  0.36382598919E+02 -0.31129999812E+03  0.31351359344E+03  0.00000000000E+00 0. -1.
          1    1    1    2  502    0 -0.32894869349E+02 -0.31343937416E+02  0.67709025964E+02  0.81541566328E+02  0.00000000000E+00 0. -1.
         22    1    3    3    0    0 -0.41207000558E+02  0.27761494023E+02 -0.28861621453E+02  0.57460513732E+02  0.00000000000E+00 0.  1.
         22    1    3    3    0    0  0.66395318351E+02 -0.32800155526E+02 -0.94196502450E+02  0.11982140700E+03  0.00000000000E+00 0.  1.
</event>
<event>
 7    1  0.6122298E-006  0.8903194E+02  0.7818608E-02  0.1425845E+00
          2   -1    0    0  502    0  0.00000000000E+00  0.00000000000E+00  0.67331484678E+03  0.67331484678E+03  0.00000000000E+00 0. -1.
          1   -1    0    0  501    0 -0.00000000000E+00 -0.00000000000E+00 -0.19284083135E+04  0.19284083135E+04  0.00000000000E+00 0. -1.
         25    2    1    2    0    0  0.24581901710E+02 -0.75651092973E+02 -0.22419644992E+03  0.26873054784E+03  0.12499880570E+03 0.  0.
          2    1    1    2  501    0  0.31847727323E+02  0.65484610694E+01 -0.16787302454E+04  0.16790450848E+04  0.00000000000E+00 0. -1.
          1    1    1    2  502    0 -0.56429629033E+02  0.69102631903E+02  0.64783322861E+03  0.65394752760E+03  0.00000000000E+00 0. -1.
         22    1    3    3    0    0  0.64357240496E+02 -0.51541976986E+01 -0.12509561953E+03  0.14077405366E+03  0.00000000000E+00 0. -1.
         22    1    3    3    0    0 -0.39775338786E+02 -0.70496895274E+02 -0.99100830390E+02  0.12795649418E+03  0.00000000000E+00 0. -1.
</event>
<event>
 7    1  0.6122298E-006  0.5149674E+02  0.7818608E-02  0.1540284E+00
          2   -1    0    0  502    0  0.00000000000E+00  0.00000000000E+00  0.20514965787E+04  0.20514965787E+04  0.00000000000E+00 0. -1.
          1   -1    0    0  501    0 -0.00000000000E+00 -0.00000000000E+00 -0.19570319702E+03  0.19570319702E+03  0.00000000000E+00 0. -1.
         25    2    1    2    0    0 -0.26879209083E+02  0.59174521577E+02  0.69943293917E+03  0.71348114196E+03  0.12499915058E+03 0.  0.
          2    1    1    2  501    0  0.30227624921E+01 -0.51362257460E+02 -0.18505191037E+03  0.19207141411E+03  0.00000000000E+00 0. -1.
          1    1    1    2  502    0  0.23856446591E+02 -0.78122641171E+01  0.13414123529E+04  0.13416472196E+04  0.00000000000E+00 0. -1.
         22    1    3    3    0    0 -0.13767443663E+02  0.97693525914E+02  0.44413158962E+03  0.45495762045E+03  0.00000000000E+00 0. -1.
         22    1    3    3    0    0 -0.13111765420E+02 -0.38519004337E+02  0.25530134956E+03  0.25852352151E+03  0.00000000000E+00 0. -1.
</event>
<event>
 7    1  0.6122298E-006  0.4001530E+02  0.7818608E-02  0.1534359E+00
          2   -1    0    0  502    0  0.00000000000E+00  0.00000000000E+00  0.23591997972E+04  0.23591997972E+04  0.00000000000E+00 0. -1.
          1   -1    0    0  501    0 -0.00000000000E+00 -0.00000000000E+00 -0.73572499382E+03  0.73572499382E+03  0.00000000000E+00 0. -1.
         25    2    1    2    0    0 -0.62863549200E+01  0.34667277579E+02  0.17592014131E+03  0.21866444370E+03  0.12499961772E+03 0.  0.
          2    1    1    2  501    0 -0.26921415937E+02 -0.29676419257E+02 -0.71366044894E+03  0.71478436530E+03  0.00000000000E+00 0. -1.
          1    1    1    2  502    0  0.33207770857E+02 -0.49908583215E+01  0.21612151110E+04  0.21614759820E+04  0.00000000000E+00 0. -1.
         22    1    3    3    0    0  0.48391087240E+02  0.11360643111E+02  0.23335320844E+02  0.54911735859E+02  0.00000000000E+00 0.  1.
         22    1    3    3    0    0 -0.54677442160E+02  0.23306634467E+02  0.15258482046E+03  0.16375270785E+03  0.00000000000E+00 0.  1.
</event>
<event>
 7    1  0.6122298E-006  0.8044029E+02  0.7818608E-02  0.1423034E+00
          2   -1    0    0  502    0  0.00000000000E+00  0.00000000000E+00  0.16610565681E+04  0.16610565681E+04  0.00000000000E+00 0. -1.
          1   -1    0    0  501    0 -0.00000000000E+00 -0.00000000000E+00 -0.23178979983E+03  0.23178979983E+03  0.00000000000E+00 0. -1.
         25    2    1    2    0    0  0.18332947524E+02 -0.78885766173E+02 -0.51068215236E+02  0.15745593880E+03  0.12500139594E+03 0.  0.
          2    1    1    2  501    0  0.32772694634E+02  0.16668705452E+02 -0.12384672097E+03  0.12918941733E+03  0.00000000000E+00 0. -1.
          1    1    1    2  502    0 -0.51105642158E+02  0.62217060721E+02  0.16041817045E+04  0.16062010118E+04  0.00000000000E+00 0. -1.
         22    1    3    3    0    0  0.80282887614E+01  0.18112833346E+02  0.26318617641E+02  0.32942340335E+02  0.00000000000E+00 0. -1.
         22    1    3    3    0    0  0.10304658762E+02 -0.96998599518E+02 -0.77386832876E+02  0.12451359847E+03  0.00000000000E+00 0. -1.
</event>
<event>
 7    1  0.6122298E-006  0.7086908E+02  0.7818608E-02  0.1362687E+00
          2   -1    0    0  502    0  0.00000000000E+00  0.00000000000E+00  0.19438872134E+04  0.19438872134E+04  0.00000000000E+00 0. -1.
          1   -1    0    0  501    0 -0.00000000000E+00 -0.00000000000E+00 -0.12396776215E+03  0.12396776215E+03  0.00000000000E+00 0. -1.
         25    2    1    2    0    0  0.31469160887E+02  0.29310034346E+02  0.86547491373E+03  0.87551536583E+03  0.12502377099E+03 0.  0.
          2    1    1    2  501    0  0.46025990795E+02 -0.53889100695E+02 -0.10669682672E+03  0.12808840632E+03  0.00000000000E+00 0. -1.
          1    1    1    2  502    0 -0.77495151682E+02  0.24579066348E+02  0.10611413642E+04  0.10642512034E+04  0.00000000000E+00 0. -1.
         22    1    3    3    0    0  0.46503074115E+02 -0.28275265846E+02  0.64027275831E+03  0.64258169255E+03  0.00000000000E+00 0.  1.
         22    1    3    3    0    0 -0.15033913228E+02  0.57585300192E+02  0.22520215542E+03  0.23293367329E+03  0.00000000000E+00 0.  1.
</event>
<event>
 7    1  0.6122298E-006  0.1045955E+03  0.7818608E-02  0.1346880E+00
          2   -1    0    0  502    0  0.00000000000E+00  0.00000000000E+00  0.17318136771E+03  0.17318136771E+03  0.00000000000E+00 0. -1.
          1   -1    0    0  501    0 -0.00000000000E+00 -0.00000000000E+00 -0.12238867281E+04  0.12238867281E+04  0.00000000000E+00 0. -1.
         25    2    1    2    0    0 -0.30317774296E+02  0.12513252776E+03 -0.66068045803E+03  0.68461736336E+03  0.12499979858E+03 0.  0.
          2    1    1    2  501    0 -0.31952473114E+02 -0.41538679569E+02 -0.53296760969E+03  0.53553794955E+03  0.00000000000E+00 0. -1.
          1    1    1    2  502    0  0.62270247409E+02 -0.83593848189E+02  0.14294270734E+03  0.17691278289E+03  0.00000000000E+00 0. -1.
         22    1    3    3    0    0 -0.19487898534E+01  0.14372725715E+03 -0.56862407005E+03  0.58651057558E+03  0.00000000000E+00 0.  1.
         22    1    3    3    0    0 -0.28368984442E+02 -0.18594729393E+02 -0.92056387981E+02  0.98106787775E+02  0.00000000000E+00 0.  1.
</event>
<event>
 7    1  0.6122298E-006  0.1626004E+03  0.7818608E-02  0.1274087E+00
          2   -1    0    0  502    0  0.00000000000E+00  0.00000000000E+00  0.11511951565E+04  0.11511951565E+04  0.00000000000E+00 0. -1.
          1   -1    0    0  501    0 -0.00000000000E+00 -0.00000000000E+00 -0.85495125557E+03  0.85495125557E+03  0.00000000000E+00 0. -1.
         25    2    1    2    0    0  0.33510728763E+02  0.19243476658E+03  0.29795622269E+03  0.37756822250E+03  0.12500297465E+03 0.  0.
          2    1    1    2  501    0  0.38955319891E+02 -0.52359098425E+02 -0.80616994583E+03  0.80880713010E+03  0.00000000000E+00 0. -1.
          1    1    1    2  502    0 -0.72466048655E+02 -0.14007566816E+03  0.80445762408E+03  0.81977105948E+03  0.00000000000E+00 0. -1.
         22    1    3    3    0    0  0.60476148379E+01 -0.79123969718E+00  0.97869459632E+02  0.98059323036E+02  0.00000000000E+00 0. -1.
         22    1    3    3    0    0  0.27463113925E+02  0.19322600628E+03  0.20008676306E+03  0.27950889947E+03  0.00000000000E+00 0. -1.
</event>
<event>
 7    1  0.6122298E-006  0.1402191E+03  0.7818608E-02  0.1359987E+00
          2   -1    0    0  502    0  0.00000000000E+00  0.00000000000E+00  0.85883716444E+02  0.85883716444E+02  0.00000000000E+00 0. -1.
          1   -1    0    0  501    0 -0.00000000000E+00 -0.00000000000E+00 -0.54818434572E+03  0.54818434572E+03  0.00000000000E+00 0. -1.
         25    2    1    2    0    0 -0.56769019426E+02  0.10618324415E+03 -0.27000750846E+03  0.32098107784E+03  0.12500877888E+03 0.  0.
          2    1    1    2  501    0  0.10782737156E+02  0.33273026302E+02 -0.15862312395E+03  0.16243354688E+03  0.00000000000E+00 0. -1.
          1    1    1    2  502    0  0.45986282270E+02 -0.13945627046E+03 -0.33669996865E+02  0.15065343745E+03  0.00000000000E+00 0. -1.
         22    1    3    3    0    0 -0.67371474954E+02  0.47644778563E+01 -0.75049071619E+02  0.10096523678E+03  0.00000000000E+00 0. -1.
         22    1    3    3    0    0  0.10602455528E+02  0.10141876630E+03 -0.19495843684E+03  0.22001584106E+03  0.00000000000E+00 0. -1.
</event>
<event>
 7    1  0.6122298E-006  0.7882653E+02  0.7818608E-02  0.1498281E+00
          2   -1    0    0  502    0  0.00000000000E+00  0.00000000000E+00  0.27529640897E+03  0.27529640897E+03  0.00000000000E+00 0. -1.
          1   -1    0    0  501    0 -0.00000000000E+00 -0.00000000000E+00 -0.57177635471E+03  0.57177635471E+03  0.00000000000E+00 0. -1.
         25    2    1    2    0    0 -0.77348656601E+02 -0.49936984132E+02  0.53794120092E+02  0.16429528260E+03  0.12499046150E+03 0.  0.
          2    1    1    2  501    0  0.21522366814E+02 -0.29572025277E+01 -0.50738718772E+03  0.50785206073E+03  0.00000000000E+00 0. -1.
          1    1    1    2  502    0  0.55826289787E+02  0.52894186660E+02  0.15711312189E+03  0.17492542035E+03  0.00000000000E+00 0. -1.
         22    1    3    3    0    0 -0.42733582446E+02 -0.68849714486E+01  0.88875385319E+02  0.98855429876E+02  0.00000000000E+00 0.  1.
         22    1    3    3    0    0 -0.34615074155E+02 -0.43052012683E+02 -0.35081265226E+02  0.65439852725E+02  0.00000000000E+00 0.  1.
</event>
<event>
 7    1  0.6122298E-006  0.3995395E+02  0.7818608E-02  0.1553658E+00
          2   -1    0    0  502    0  0.00000000000E+00  0.00000000000E+00  0.38890317807E+03  0.38890317807E+03  0.00000000000E+00 0. -1.
          1   -1    0    0  501    0 -0.00000000000E+00 -0.00000000000E+00 -0.22472243191E+04  0.22472243191E+04  0.00000000000E+00 0. -1.
         25    2    1    2    0    0  0.10791232094E+02  0.81914480005E+01  0.16444982757E+03  0.20700757881E+03  0.12499936554E+03 0.  0.
          2    1    1    2  501    0 -0.13068048587E+02 -0.37785730237E+02 -0.22246808119E+04  0.22250400559E+04  0.00000000000E+00 0. -1.
          1    1    1    2  502    0  0.22768164934E+01  0.29594282237E+02  0.20190984333E+03  0.20407986248E+03  0.00000000000E+00 0. -1.
         22    1    3    3    0    0  0.36880128180E+02 -0.48610482764E+02  0.10057598585E+03  0.11763779928E+03  0.00000000000E+00 0.  1.
         22    1    3    3    0    0 -0.26088896086E+02  0.56801930765E+02  0.63873841719E+02  0.89369779532E+02  0.00000000000E+00 0.  1.
</event>
<event>
 7    1  0.6122298E-006  0.8931444E+02  0.7818608E-02  0.1321455E+00
          2   -1    0    0  502    0  0.00000000000E+00  0.00000000000E+00  0.20811736527E+04  0.20811736527E+04  0.00000000000E+00 0. -1.
          1   -1    0    0  501    0 -0.00000000000E+00 -0.00000000000E+00 -0.21133395898E+03  0.21133395898E+03  0.00000000000E+00 0. -1.
         25    2    1    2    0    0 -0.12629683526E+03  0.61541375176E+02  0.66813746906E+02  0.19956778066E+03  0.12499996340E+03 0.  0.
          2    1    1    2  501    0  0.37650152839E+02 -0.66762086448E+02 -0.13373617727E+03  0.15414303522E+03  0.00000000000E+00 0. -1.
          1    1    1    2  502    0  0.88646682419E+02  0.52207112723E+01  0.19367621241E+04  0.19387967958E+04  0.00000000000E+00 0. -1.
         22    1    3    3    0    0 -0.66060072774E+02  0.89066158877E+02  0.73448143804E+02  0.13300881061E+03  0.00000000000E+00 0.  1.
         22    1    3    3    0    0 -0.60236762484E+02 -0.27524783701E+02 -0.66343968984E+01  0.66558970053E+02  0.00000000000E+00 0.  1.
</event>
<event>
 7    1  0.6122298E-006  0.8610431E+02  0.7818608E-02  0.1453585E+00
          2   -1    0    0  502    0  0.00000000000E+00  0.00000000000E+00  0.11770014363E+04  0.11770014363E+04  0.00000000000E+00 0. -1.
          1   -1    0    0  501    0 -0.00000000000E+00 -0.00000000000E+00 -0.26549853742E+03  0.26549853742E+03  0.00000000000E+00 0. -1.
         25    2    1    2    0    0 -0.56555140489E+01  0.10472566233E+03  0.41817656236E+03  0.44888338846E+03  0.12500083974E+03 0.  0.
          2    1    1    2  501    0  0.22121587388E+02 -0.82922382682E+02 -0.24252290666E+03  0.25726026983E+03  0.00000000000E+00 0. -1.
          1    1    1    2  502    0 -0.16466073339E+02 -0.21803279650E+02  0.73584924316E+03  0.73635631541E+03  0.00000000000E+00 0. -1.
         22    1    3    3    0    0 -0.82495508119E+01  0.11925765565E+03  0.22189300981E+03  0.25204553422E+03  0.00000000000E+00 0. -1.
         22    1    3    3    0    0  0.25940367630E+01 -0.14531993320E+02  0.19628355256E+03  0.19683785424E+03  0.00000000000E+00 0. -1.
</event>
<event>
 7    1  0.6122298E-006  0.6500315E+02  0.7818608E-02  0.1409436E+00
          2   -1    0    0  502    0  0.00000000000E+00  0.00000000000E+00  0.26222077543E+04  0.26222077543E+04  0.00000000000E+00 0. -1.
          1   -1    0    0  501    0 -0.00000000000E+00 -0.00000000000E+00 -0.18853569758E+04  0.18853569758E+04  0.00000000000E+00 0. -1.
         25    2    1    2    0    0 -0.49991154811E+01  0.15246685601E+02  0.29383305368E+02  0.12940670751E+03  0.12500105895E+03 0.  0.
          2    1    1    2  501    0 -0.16891794542E+01 -0.65347121008E+02 -0.18345119037E+04  0.18356761763E+04  0.00000000000E+00 0. -1.
          1    1    1    2  502    0  0.66882949352E+01  0.50100435407E+02  0.25419793768E+04  0.25424818463E+04  0.00000000000E+00 0. -1.
         22    1    3    3    0    0 -0.55751727911E+02 -0.23461435848E+02  0.36870421843E+01  0.60599409380E+02  0.00000000000E+00 0.  1.
         22    1    3    3    0    0  0.50752612430E+02  0.38708121449E+02  0.25696263184E+02  0.68807298132E+02  0.00000000000E+00 0.  1.
</event>
<event>
 7    1  0.6122298E-006  0.7911908E+02  0.7818608E-02  0.1500853E+00
          2   -1    0    0  502    0  0.00000000000E+00  0.00000000000E+00  0.17477862009E+04  0.17477862009E+04  0.00000000000E+00 0. -1.
          1   -1    0    0  501    0 -0.00000000000E+00 -0.00000000000E+00 -0.13235173169E+04  0.13235173169E+04  0.00000000000E+00 0. -1.
         25    2    1    2    0    0  0.56746763436E+02 -0.73122336622E+02  0.54027201911E+03  0.56221498981E+03  0.12499907543E+03 0.  0.
          2    1    1    2  501    0 -0.35630483016E+02  0.70613636190E+02 -0.13112596303E+04  0.13136428871E+04  0.00000000000E+00 0. -1.
          1    1    1    2  502    0 -0.21116280420E+02  0.25087004320E+01  0.11952564952E+04  0.11954456408E+04  0.00000000000E+00 0. -1.
         22    1    3    3    0    0 -0.33817186650E+01 -0.84479346622E+02  0.40522864356E+03  0.41395464678E+03  0.00000000000E+00 0. -1.
         22    1    3    3    0    0  0.60128482101E+02  0.11357010000E+02  0.13504337555E+03  0.14826034304E+03  0.00000000000E+00 0. -1.
</event>
<event>
 7    1  0.6122298E-006  0.7369381E+02  0.7818608E-02  0.1348294E+00
          2   -1    0    0  502    0  0.00000000000E+00  0.00000000000E+00  0.24175519781E+04  0.24175519781E+04  0.00000000000E+00 0. -1.
          1   -1    0    0  501    0 -0.00000000000E+00 -0.00000000000E+00 -0.83409344344E+02  0.83409344344E+02  0.00000000000E+00 0. -1.
         25    2    1    2    0    0 -0.52283668977E+02 -0.41329599733E+02  0.87690354402E+03  0.88827120328E+03  0.12499674876E+03 0.  0.
          2    1    1    2  501    0  0.63052057916E+02 -0.38147291122E+02 -0.58956317894E+02  0.94374918527E+02  0.00000000000E+00 0. -1.
          1    1    1    2  502    0 -0.10768388938E+02  0.79476890855E+02  0.15161954077E+04  0.15183152007E+04  0.00000000000E+00 0. -1.
         22    1    3    3    0    0  0.21977549880E+02 -0.59141776142E+02  0.32048956671E+03  0.32664097225E+03  0.00000000000E+00 0. -1.
         22    1    3    3    0    0 -0.74261218857E+02  0.17812176409E+02  0.55641397731E+03  0.56163023102E+03  0.00000000000E+00 0. -1.
</event>
<event>
 7    1  0.6122298E-006  0.5437870E+02  0.7818608E-02  0.1480035E+00
          2   -1    0    0  502    0  0.00000000000E+00  0.00000000000E+00  0.23591061910E+04  0.23591061910E+04  0.00000000000E+00 0. -1.
          1   -1    0    0  501    0 -0.00000000000E+00 -0.00000000000E+00 -0.11140510384E+03  0.11140510384E+03  0.00000000000E+00 0. -1.
         25    2    1    2    0    0  0.31807996761E+02 -0.47458783088E+02  0.26169340701E+03  0.29558839767E+03  0.12499990726E+03 0.  0.
          2    1    1    2  501    0  0.32520974762E+01  0.54525767754E+02 -0.86393633569E+02  0.10221299041E+03  0.00000000000E+00 0. -1.
          1    1    1    2  502    0 -0.35060094237E+02 -0.70669846660E+01  0.20724013137E+04  0.20727099067E+04  0.00000000000E+00 0. -1.
         22    1    3    3    0    0  0.39944419618E+02 -0.10318433104E+02  0.25331829278E+03  0.25665576981E+03  0.00000000000E+00 0. -1.
         22    1    3    3    0    0 -0.81364228574E+01 -0.37140349984E+02  0.83751142353E+01  0.38932627863E+02  0.00000000000E+00 0. -1.
</event>
<event>
 7    1  0.6122298E-006  0.1075802E+03  0.7818608E-02  0.1353787E+00
          2   -1    0    0  502    0  0.00000000000E+00  0.00000000000E+00  0.98363256047E+03  0.98363256047E+03  0.00000000000E+00 0. -1.
          1   -1    0    0  501    0 -0.00000000000E+00 -0.00000000000E+00 -0.99125228220E+03  0.99125228220E+03  0.00000000000E+00 0. -1.
         25    2    1    2    0    0 -0.92102856340E+02 -0.73546725270E+02 -0.43131001568E+03  0.46427025842E+03  0.12500594498E+03 0.  0.
          2    1    1    2  501    0  0.49027097469E+02  0.94810090521E+02 -0.53761583905E+03  0.54810893073E+03  0.00000000000E+00 0. -1.
          1    1    1    2  502    0  0.43075758871E+02 -0.21263365251E+02  0.96130613301E+03  0.96250565352E+03  0.00000000000E+00 0. -1.
         22    1    3    3    0    0 -0.10917991524E+01  0.30285210421E+02 -0.11904220735E+03  0.12283905375E+03  0.00000000000E+00 0. -1.
         22    1    3    3    0    0 -0.91011057187E+02 -0.10383193569E+03 -0.31226780833E+03  0.34143120466E+03  0.00000000000E+00 0. -1.
</event>
<event>
 7    1  0.6122298E-006  0.2596588E+03  0.7818608E-02  0.1262942E+00
          2   -1    0    0  502    0  0.00000000000E+00  0.00000000000E+00  0.54470090452E+03  0.54470090452E+03  0.00000000000E+00 0. -1.
          1   -1    0    0  501    0 -0.00000000000E+00 -0.00000000000E+00 -0.51465338626E+03  0.51465338626E+03  0.00000000000E+00 0. -1.
         25    2    1    2    0    0  0.27071745218E+03  0.86349379761E+02 -0.10267952435E+03  0.32697541348E+03  0.12500272797E+03 0.  0.
          2    1    1    2  501    0 -0.39453111230E+02  0.22723276729E+02 -0.25988596490E+03  0.26384391227E+03  0.00000000000E+00 0. -1.
          1    1    1    2  502    0 -0.23126434095E+03 -0.10907265649E+03  0.39261300751E+03  0.46853496503E+03  0.00000000000E+00 0. -1.
         22    1    3    3    0    0  0.58807201514E+02  0.23693928788E+02 -0.83954260513E+02  0.10520459624E+03  0.00000000000E+00 0. -1.
         22    1    3    3    0    0  0.21191025067E+03  0.62655450972E+02 -0.18725263835E+02  0.22177081724E+03  0.00000000000E+00 0. -1.
</event>
<event>
 7    1  0.6122298E-006  0.9876368E+02  0.7818608E-02  0.1289155E+00
          2   -1    0    0  502    0  0.00000000000E+00  0.00000000000E+00  0.28664147223E+02  0.28664147223E+02  0.00000000000E+00 0. -1.
          1   -1    0    0  501    0 -0.00000000000E+00 -0.00000000000E+00 -0.24749474223E+04  0.24749474223E+04  0.00000000000E+00 0. -1.
         25    2    1    2    0    0 -0.59301985236E+02 -0.74712181549E+02 -0.11134868198E+04  0.11245336831E+04  0.12499788440E+03 0.  0.
          2    1    1    2  501    0 -0.26916290335E+02  0.10990846519E+03 -0.12480334498E+04  0.12531527637E+04  0.00000000000E+00 0. -1.
          1    1    1    2  502    0  0.86218275571E+02 -0.35196283642E+02 -0.84763005512E+02  0.12592512270E+03  0.00000000000E+00 0. -1.
         22    1    3    3    0    0 -0.94034609673E+02 -0.32143813900E+02 -0.81460579494E+03  0.82064507172E+03  0.00000000000E+00 0. -1.
         22    1    3    3    0    0  0.34732624437E+02 -0.42568367649E+02 -0.29888102487E+03  0.30388861142E+03  0.00000000000E+00 0. -1.
</event>
<event>
 7    1  0.6122298E-006  0.8354193E+02  0.7818608E-02  0.1450502E+00
          2   -1    0    0  502    0  0.00000000000E+00  0.00000000000E+00  0.69399017989E+03  0.69399017989E+03  0.00000000000E+00 0. -1.
          1   -1    0    0  501    0 -0.00000000000E+00 -0.00000000000E+00 -0.17294049626E+04  0.17294049626E+04  0.00000000000E+00 0. -1.
         25    2    1    2    0    0  0.40266891270E+02  0.81719989216E+02 -0.20943237844E+02  0.15608305818E+03  0.12499489057E+03 0.  0.
          2    1    1    2  501    0  0.18280335174E+02 -0.22261784440E+02 -0.16379857120E+04  0.16382389785E+04  0.00000000000E+00 0. -1.
          1    1    1    2  502    0 -0.58547226444E+02 -0.59458204777E+02  0.62351416718E+03  0.62907310585E+03  0.00000000000E+00 0. -1.
         22    1    3    3    0    0  0.53824124719E+02  0.10914230234E+03 -0.55035195289E+01  0.12181694172E+03  0.00000000000E+00 0. -1.
         22    1    3    3    0    0 -0.13557233449E+02 -0.27422313123E+02 -0.15439718315E+02  0.34266116463E+02  0.00000000000E+00 0. -1.
</event>
<event>
 7    1  0.6122298E-006  0.9809856E+02  0.7818608E-02  0.1318672E+00
          2   -1    0    0  502    0  0.00000000000E+00  0.00000000000E+00  0.61577021813E+03  0.61577021813E+03  0.00000000000E+00 0. -1.
          1   -1    0    0  501    0 -0.00000000000E+00 -0.00000000000E+00 -0.25670504211E+03  0.25670504211E+03  0.00000000000E+00 0. -1.
         25    2    1    2    0    0  0.15341564596E+01 -0.65026004207E+02 -0.37723976450E+02  0.14586286835E+03  0.12498857190E+03 0.  0.
          2    1    1    2  501    0 -0.67985422014E+02  0.91524436815E+02 -0.14255772853E+03  0.18254162841E+03  0.00000000000E+00 0. -1.
          1    1    1    2  502    0  0.66451265555E+02 -0.26498432609E+02  0.53934688100E+03  0.54407076347E+03  0.00000000000E+00 0. -1.
         22    1    3    3    0    0  0.54301037562E+02 -0.61338718696E+02 -0.18352358249E+01  0.81941498535E+02  0.00000000000E+00 0. -1.
         22    1    3    3    0    0 -0.52766881103E+02 -0.36872855102E+01 -0.35888740625E+02  0.63921369818E+02  0.00000000000E+00 0. -1.
</event>
<event>
 7    1  0.6122298E-006  0.1115258E+03  0.7818608E-02  0.1374600E+00
          2   -1    0    0  502    0  0.00000000000E+00  0.00000000000E+00  0.12176284365E+03  0.12176284365E+03  0.00000000000E+00 0. -1.
          1   -1    0    0  501    0 -0.00000000000E+00 -0.00000000000E+00 -0.13122539848E+04  0.13122539848E+04  0.00000000000E+00 0. -1.
         25    2    1    2    0    0 -0.13806196917E+03 -0.31002889222E+02 -0.22033511842E+03  0.29016304564E+03  0.12499896870E+03 0.  0.
          2    1    1    2  501    0  0.10076576315E+03  0.42217306866E+02 -0.10496562547E+04  0.10553266286E+04  0.00000000000E+00 0. -1.
          1    1    1    2  502    0  0.37296206022E+02 -0.11214417643E+02  0.79500231969E+02  0.88527154195E+02  0.00000000000E+00 0. -1.
         22    1    3    3    0    0 -0.11430246577E+03 -0.11870941981E+02 -0.65339054002E+02  0.13219366446E+03  0.00000000000E+00 0. -1.
         22    1    3    3    0    0 -0.23759503399E+02 -0.19131947241E+02 -0.15499606442E+03  0.15796938119E+03  0.00000000000E+00 0. -1.
</event>
<event>
 7    1  0.6122298E-006  0.8706984E+02  0.7818608E-02  0.1402419E+00
          2   -1    0    0  502    0  0.00000000000E+00  0.00000000000E+00  0.87326765677E+03  0.87326765677E+03  0.00000000000E+00 0. -1.
          1   -1    0    0  501    0 -0.00000000000E+00 -0.00000000000E+00 -0.12158983117E+03  0.12158983117E+03  0.00000000000E+00 0. -1.
         25    2    1    2    0    0  0.40752073979E+02 -0.82729902834E+02 -0.53890968007E+01  0.15543008824E+03  0.12499800642E+03 0.  0.
          2    1    1    2  501    0 -0.39623636396E+02 -0.44392615074E+01 -0.28517821454E+02  0.49020462507E+02  0.00000000000E+00 0. -1.
          1    1    1    2  502    0 -0.11284375835E+01  0.87169164342E+02  0.78558474386E+03  0.79040693720E+03  0.00000000000E+00 0. -1.
         22    1    3    3    0    0 -0.28591821865E+02 -0.78544495706E+02 -0.16146930163E+02  0.85131976583E+02  0.00000000000E+00 0.  1.
         22    1    3    3    0    0  0.69343895845E+02 -0.41854071281E+01  0.10757833362E+02  0.70298111656E+02  0.00000000000E+00 0.  1.
</event>
<event>
 7    1  0.6785226E-006  0.1067465E+03  0.7818608E-02  0.1393901E+00
          2   -1    0    0  502    0  0.00000000000E+00  0.00000000000E+00  0.13255949674E+04  0.13255949674E+04  0.00000000000E+00 0. -1.
          1   -1    0    0  501    0 -0.00000000000E+00 -0.00000000000E+00 -0.60740579577E+03  0.60740579577E+03  0.00000000000E+00 0. -1.
         25    2    1    2    0    0 -0.27951785768E+01  0.13849144412E+03 -0.20760679319E+03  0.27913058697E+03  0.12500244353E+03 0.  0.
          2    1    1    2  501    0 -0.11194789068E+02 -0.32947405447E+02 -0.36100204036E+03  0.36267523761E+03  0.00000000000E+00 0. -1.
          1    1    1    2  502    0  0.13989967645E+02 -0.10554403867E+03  0.12867980052E+04  0.12911949386E+04  0.00000000000E+00 0. -1.
         22    1    3    3    0    0  0.58351067457E+02  0.40343623762E+02 -0.77790479732E+02  0.10527969314E+03  0.00000000000E+00 0. -1.
         22    1    3    3    0    0 -0.61146246034E+02  0.98147820360E+02 -0.12981631346E+03  0.17385089383E+03  0.00000000000E+00 0. -1.
</event>
<event>
 7    1  0.6122298E-006  0.4771858E+02  0.7818608E-02  0.1480658E+00
          2   -1    0    0  502    0  0.00000000000E+00  0.00000000000E+00  0.38326220054E+04  0.38326220054E+04  0.00000000000E+00 0. -1.
          1   -1    0    0  501    0 -0.00000000000E+00 -0.00000000000E+00 -0.97694493414E+01  0.97694493414E+01  0.00000000000E+00 0. -1.
         25    2    1    2    0    0 -0.14063948278E+02 -0.84411569771E+02  0.18635554957E+04  0.18697027755E+04  0.12500510107E+03 0.  0.
          2    1    1    2  501    0  0.72460022478E+00  0.46088496886E+02  0.75527192140E+02  0.88481813630E+02  0.00000000000E+00 0. -1.
          1    1    1    2  502    0  0.13339348054E+02  0.38323072885E+02  0.18837698682E+04  0.18842068656E+04  0.00000000000E+00 0. -1.
         22    1    3    3    0    0 -0.33229853932E+02  0.15998740428E+02  0.89676160413E+03  0.89751966972E+03  0.00000000000E+00 0.  1.
         22    1    3    3    0    0  0.19165905653E+02 -0.10041031020E+03  0.96679389156E+03  0.97218310575E+03  0.00000000000E+00 0.  1.
</event>
<event>
 7    1  0.6122298E-006  0.9043458E+02  0.7818608E-02  0.1430868E+00
          2   -1    0    0  502    0  0.00000000000E+00  0.00000000000E+00  0.78838580194E+02  0.78838580194E+02  0.00000000000E+00 0. -1.
          1   -1    0    0  501    0 -0.00000000000E+00 -0.00000000000E+00 -0.10415273875E+04  0.10415273875E+04  0.00000000000E+00 0. -1.
         25    2    1    2    0    0  0.38530985618E+02 -0.50980225566E+02 -0.25301491627E+03  0.28935297044E+03  0.12499989360E+03 0.  0.
          2    1    1    2  501    0 -0.57685365205E+02  0.75113714863E+02 -0.76330680824E+03  0.76915990212E+03  0.00000000000E+00 0. -1.
          1    1    1    2  502    0  0.19154379587E+02 -0.24133489297E+02  0.53632917231E+02  0.61853095102E+02  0.00000000000E+00 0. -1.
         22    1    3    3    0    0  0.41747398890E+02 -0.63229821784E+02 -0.61955077983E+02  0.97873833913E+02  0.00000000000E+00 0. -1.
         22    1    3    3    0    0 -0.32164132721E+01  0.12249596218E+02 -0.19105983828E+03  0.19147913653E+03  0.00000000000E+00 0. -1.
</event>
<event>
 7    1  0.6122298E-006  0.7287271E+02  0.7818608E-02  0.1390610E+00
          2   -1    0    0  502    0  0.00000000000E+00  0.00000000000E+00  0.20554629439E+03  0.20554629439E+03  0.00000000000E+00 0. -1.
          1   -1    0    0  501    0 -0.00000000000E+00 -0.00000000000E+00 -0.28728028988E+03  0.28728028988E+03  0.00000000000E+00 0. -1.
         25    2    1    2    0    0  0.30250135799E+02  0.52703970083E+02 -0.72654216818E+01  0.13918550675E+03  0.12500815877E+03 0.  0.
          2    1    1    2  501    0 -0.72522603493E+02 -0.21851752815E+02 -0.20202992387E+03  0.21576171407E+03  0.00000000000E+00 0. -1.
          1    1    1    2  502    0  0.42272467693E+02 -0.30852217268E+02  0.12756135007E+03  0.13787936345E+03  0.00000000000E+00 0. -1.
         22    1    3    3    0    0 -0.46218367532E+02  0.10969309822E+02 -0.19239049812E+02  0.51250407734E+02  0.00000000000E+00 0.  1.
         22    1    3    3    0    0  0.76468503331E+02  0.41734660262E+02  0.11973628130E+02  0.87935099019E+02  0.00000000000E+00 0.  1.
</event>
<event>
 7    1  0.6122298E-006  0.1983912E+03  0.7818608E-02  0.1210705E+00
          2   -1    0    0  502    0  0.00000000000E+00  0.00000000000E+00  0.33452264835E+04  0.33452264835E+04  0.00000000000E+00 0. -1.
          1   -1    0    0  501    0 -0.00000000000E+00 -0.00000000000E+00 -0.71748848334E+03  0.71748848334E+03  0.00000000000E+00 0. -1.
         25    2    1    2    0    0  0.26774555735E+03 -0.81219226464E+02  0.80244615077E+03  0.85896921127E+03  0.12499613913E+03 0.  0.
          2    1    1    2  501    0 -0.16840979580E+03  0.10250884163E+03 -0.67407479138E+03  0.70231527557E+03  0.00000000000E+00 0. -1.
          1    1    1    2  502    0 -0.99335761546E+02 -0.21289615162E+02  0.24993666407E+04  0.25014304800E+04  0.00000000000E+00 0. -1.
         22    1    3    3    0    0  0.27773649992E+03 -0.63243442584E+02  0.72824058936E+03  0.78196652895E+03  0.00000000000E+00 0. -1.
         22    1    3    3    0    0 -0.99909425684E+01 -0.17975783880E+02  0.74205561411E+02  0.77002682316E+02  0.00000000000E+00 0. -1.
</event>
<event>
 7    1  0.6122298E-006  0.9385726E+02  0.7818608E-02  0.1396557E+00
          2   -1    0    0  502    0  0.00000000000E+00  0.00000000000E+00  0.30240991747E+03  0.30240991747E+03  0.00000000000E+00 0. -1.
          1   -1    0    0  501    0 -0.00000000000E+00 -0.00000000000E+00 -0.14496851047E+04  0.14496851047E+04  0.00000000000E+00 0. -1.
         25    2    1    2    0    0 -0.60844694869E+02  0.21994489510E+02 -0.23670074802E+03  0.27540145639E+03  0.12503153044E+03 0.  0.
          2    1    1    2  501    0 -0.14172208508E+02  0.36061951982E+02 -0.11853613861E+04  0.11859944905E+04  0.00000000000E+00 0. -1.
          1    1    1    2  502    0  0.75016903377E+02 -0.58056441492E+02  0.27478694688E+03  0.29069907528E+03  0.00000000000E+00 0. -1.
         22    1    3    3    0    0  0.53015285268E+01  0.56037014946E+02 -0.15501150937E+03  0.16491458785E+03  0.00000000000E+00 0.  1.
         22    1    3    3    0    0 -0.66146223396E+02 -0.34042525437E+02 -0.81689238656E+02  0.11048686854E+03  0.00000000000E+00 0.  1.
</event>
<event>
 7    1  0.6122298E-006  0.8020703E+02  0.7818608E-02  0.1372874E+00
          2   -1    0    0  502    0  0.00000000000E+00  0.00000000000E+00  0.12485133382E+03  0.12485133382E+03  0.00000000000E+00 0. -1.
          1   -1    0    0  501    0 -0.00000000000E+00 -0.00000000000E+00 -0.82107065417E+03  0.82107065417E+03  0.00000000000E+00 0. -1.
         25    2    1    2    0    0 -0.20566252130E+01 -0.28568658261E+02 -0.26139368996E+03  0.29115683195E+03  0.12500096679E+03 0.  0.
          2    1    1    2  501    0  0.69905034308E+01 -0.54481335755E+02 -0.52742706018E+03  0.53027953656E+03  0.00000000000E+00 0. -1.
          1    1    1    2  502    0 -0.49338782178E+01  0.83049994016E+02  0.92601429781E+02  0.12448561948E+03  0.00000000000E+00 0. -1.
         22    1    3    3    0    0  0.45755099428E+02  0.26306962321E+02 -0.13997649754E+03  0.14959614051E+03  0.00000000000E+00 0.  1.
         22    1    3    3    0    0 -0.47811724641E+02 -0.54875620583E+02 -0.12141719242E+03  0.14156069145E+03  0.00000000000E+00 0.  1.
</event>
<event>
 7    1  0.6122298E-006  0.6486075E+02  0.7818608E-02  0.1487311E+00
          2   -1    0    0  502    0  0.00000000000E+00  0.00000000000E+00  0.17474690028E+03  0.17474690028E+03  0.00000000000E+00 0. -1.
          1   -1    0    0  501    0 -0.00000000000E+00 -0.00000000000E+00 -0.13561266505E+03  0.13561266505E+03  0.00000000000E+00 0. -1.
         25    2    1    2    0    0 -0.79284273268E+02  0.32280282421E+02  0.11055977290E+02  0.15190836171E+03  0.12500361236E+03 0.  0.
          2    1    1    2  501    0  0.28334458328E+02  0.29790281705E+01 -0.50741700099E+02  0.58193094664E+02  0.00000000000E+00 0. -1.
          1    1    1    2  502    0  0.50949814940E+02 -0.35259310591E+02  0.78819958046E+02  0.10025810896E+03  0.00000000000E+00 0. -1.
         22    1    3    3    0    0 -0.11254399377E+03  0.35692733389E+02  0.82273010102E+01  0.11835459532E+03  0.00000000000E+00 0. -1.
         22    1    3    3    0    0  0.33259720503E+02 -0.34124509686E+01  0.28286762803E+01  0.33553766392E+02  0.00000000000E+00 0. -1.
</event>
<event>
 7    1  0.6122298E-006  0.3777745E+02  0.7818608E-02  0.1608067E+00
          2   -1    0    0  502    0  0.00000000000E+00  0.00000000000E+00  0.78149188785E+03  0.78149188785E+03  0.00000000000E+00 0. -1.
          1   -1    0    0  501    0 -0.00000000000E+00 -0.00000000000E+00 -0.76147834087E+02  0.76147834087E+02  0.00000000000E+00 0. -1.
         25    2    1    2    0    0 -0.25127813380E+02  0.43057900148E+02  0.21077445133E+03  0.25007149541E+03  0.12499797482E+03 0.  0.
          2    1    1    2  501    0 -0.57301352262E+01 -0.21696940302E+02 -0.53603796383E+02  0.58111605165E+02  0.00000000000E+00 0. -1.
          1    1    1    2  502    0  0.30857948606E+02 -0.21360959845E+02  0.54817339881E+03  0.54945662137E+03  0.00000000000E+00 0. -1.
         22    1    3    3    0    0  0.92576996930E+01 -0.39718313658E+02  0.39581793956E+02  0.56832806162E+02  0.00000000000E+00 0.  1.
         22    1    3    3    0    0 -0.34385513073E+02  0.82776213805E+02  0.17119265738E+03  0.19323868925E+03  0.00000000000E+00 0.  1.
</event>
<event>
 7    1  0.6122298E-006  0.2077918E+03  0.7818608E-02  0.1187719E+00
          2   -1    0    0  502    0  0.00000000000E+00  0.00000000000E+00  0.22290360158E+04  0.22290360158E+04  0.00000000000E+00 0. -1.
          1   -1    0    0  501    0 -0.00000000000E+00 -0.00000000000E+00 -0.75800372318E+03  0.75800372318E+03  0.00000000000E+00 0. -1.
         25    2    1    2    0    0 -0.17700781265E+03  0.19580464187E+03 -0.54749618796E+02  0.29714246200E+03  0.12499959380E+03 0.  0.
          2    1    1    2  501    0  0.18999712113E+03 -0.71941740997E+02 -0.56241784408E+03  0.59798691581E+03  0.00000000000E+00 0. -1.
          1    1    1    2  502    0 -0.12989308477E+02 -0.12386290087E+03  0.20881997555E+04  0.20919103612E+04  0.00000000000E+00 0. -1.
         22    1    3    3    0    0 -0.37933859408E+02  0.26237758434E+02 -0.62529080092E+02  0.77699958265E+02  0.00000000000E+00 0. -1.
         22    1    3    3    0    0 -0.13907395324E+03  0.16956688344E+03  0.77794612960E+01  0.21944250374E+03  0.00000000000E+00 0. -1.
</event>
<event>
 7    1  0.6122298E-006  0.1228519E+03  0.7818608E-02  0.1274171E+00
          2   -1    0    0  502    0  0.00000000000E+00  0.00000000000E+00  0.49559291766E+03  0.49559291766E+03  0.00000000000E+00 0. -1.
          1   -1    0    0  501    0 -0.00000000000E+00 -0.00000000000E+00 -0.14491566190E+04  0.14491566190E+04  0.00000000000E+00 0. -1.
         25    2    1    2    0    0  0.58192933065E+02 -0.50293429193E+02 -0.48305079886E+02  0.15451777107E+03  0.12500605727E+03 0.  0.
          2    1    1    2  501    0  0.70546236529E+02  0.49719068938E+02 -0.13369600650E+04  0.13397428756E+04  0.00000000000E+00 0. -1.
          1    1    1    2  502    0 -0.12873916959E+03  0.57436025511E+00  0.43170144353E+03  0.45048889001E+03  0.00000000000E+00 0. -1.
         22    1    3    3    0    0  0.96370109812E+02 -0.49488629248E+02 -0.31691627358E+02  0.11287462839E+03  0.00000000000E+00 0.  1.
         22    1    3    3    0    0 -0.38177176747E+02 -0.80479994499E+00 -0.16613452528E+02  0.41643142679E+02  0.00000000000E+00 0.  1.
</event>
<event>
 7    1  0.6122298E-006  0.8292318E+02  0.7818608E-02  0.1403727E+00
          2   -1    0    0  502    0  0.00000000000E+00  0.00000000000E+00  0.13274061204E+04  0.13274061204E+04  0.00000000000E+00 0. -1.
          1   -1    0    0  501    0 -0.00000000000E+00 -0.00000000000E+00 -0.23238720312E+03  0.23238720312E+03  0.00000000000E+00 0. -1.
         25    2    1    2    0    0 -0.10617361843E+03 -0.39912721293E+02  0.12582613174E+03  0.21053034308E+03  0.12499978943E+03 0.  0.
          2    1    1    2  501    0  0.40420161798E+02 -0.91191180280E+01 -0.18630521852E+03  0.19085749197E+03  0.00000000000E+00 0. -1.
          1    1    1    2  502    0  0.65753456629E+02  0.49031839321E+02  0.11554980040E+04  0.11584054884E+04  0.00000000000E+00 0. -1.
         22    1    3    3    0    0 -0.45968534257E+02 -0.52385268478E+02 -0.87420584329E+00  0.69699976550E+02  0.00000000000E+00 0.  1.
         22    1    3    3    0    0 -0.60205084171E+02  0.12472547185E+02  0.12670033759E+03  0.14083036653E+03  0.00000000000E+00 0.  1.
</event>
<event>
 7    1  0.6122298E-006  0.1200416E+03  0.7818608E-02  0.1287052E+00
          2   -1    0    0  502    0  0.00000000000E+00  0.00000000000E+00  0.83484016290E+03  0.83484016290E+03  0.00000000000E+00 0. -1.
          1   -1    0    0  501    0 -0.00000000000E+00 -0.00000000000E+00 -0.12415137439E+03  0.12415137439E+03  0.00000000000E+00 0. -1.
         25    2    1    2    0    0  0.11253282305E+03  0.21483029343E+02  0.15498321715E+03  0.22969546322E+03  0.12496019931E+03 0.  0.
          2    1    1    2  501    0 -0.30354308302E+02  0.72010812471E+02 -0.61637031365E+02  0.99529215714E+02  0.00000000000E+00 0. -1.
          1    1    1    2  502    0 -0.82178514747E+02 -0.93493841814E+02  0.61734260273E+03  0.62976685836E+03  0.00000000000E+00 0. -1.
         22    1    3    3    0    0  0.16313387932E+02  0.53048089432E+02  0.16049800930E+02  0.57773891406E+02  0.00000000000E+00 0.  1.
         22    1    3    3    0    0  0.96219435117E+02 -0.31565060089E+02  0.13893341622E+03  0.17192157181E+03  0.00000000000E+00 0.  1.
</event>
<event>
 7    1  0.6122298E-006  0.4159385E+02  0.7818608E-02  0.1570458E+00
          2   -1    0    0  502    0  0.00000000000E+00  0.00000000000E+00  0.40281478604E+04  0.40281478604E+04  0.00000000000E+00 0. -1.
          1   -1    0    0  501    0 -0.00000000000E+00 -0.00000000000E+00 -0.59309826687E+01  0.59309826687E+01  0.00000000000E+00 0. -1.
         25    2    1    2    0    0 -0.27544385745E+02  0.13509928511E+02  0.91744842547E+03  0.92642797617E+03  0.12496387592E+03 0.  0.
          2    1    1    2  501    0  0.86005834551E+01  0.24153369012E+02  0.12590044515E+03  0.12848454132E+03  0.00000000000E+00 0. -1.
          1    1    1    2  502    0  0.18943802290E+02 -0.37663297523E+02  0.29788680071E+04  0.29791663256E+04  0.00000000000E+00 0. -1.
         22    1    3    3    0    0  0.15455594372E+02 -0.59422710711E+01  0.79539962183E+03  0.79557196053E+03  0.00000000000E+00 0. -1.
         22    1    3    3    0    0 -0.42999980117E+02  0.19452199582E+02  0.12204880364E+03  0.13085601564E+03  0.00000000000E+00 0. -1.
</event>
<event>
 7    1  0.6122298E-006  0.2972937E+02  0.7818608E-02  0.1604918E+00
          2   -1    0    0  502    0  0.00000000000E+00  0.00000000000E+00  0.11398735917E+04  0.11398735917E+04  0.00000000000E+00 0. -1.
          1   -1    0    0  501    0 -0.00000000000E+00 -0.00000000000E+00 -0.39784665524E+02  0.39784665524E+02  0.00000000000E+00 0. -1.
         25    2    1    2    0    0 -0.33317050814E+02  0.34266102007E+02  0.16750567952E+03  0.21439817142E+03  0.12499692642E+03 0.  0.
          2    1    1    2  501    0  0.28622229463E+02 -0.50061213988E+01 -0.29967757550E+01  0.29210853048E+02  0.00000000000E+00 0. -1.
          1    1    1    2  502    0  0.46948213511E+01 -0.29259980608E+02  0.93558002241E+03  0.93604923276E+03  0.00000000000E+00 0. -1.
         22    1    3    3    0    0 -0.36431701513E+01 -0.41477786874E+02  0.20558255369E+02  0.46436207388E+02  0.00000000000E+00 0. -1.
         22    1    3    3    0    0 -0.29673880663E+02  0.75743888881E+02  0.14694742415E+03  0.16796196403E+03  0.00000000000E+00 0. -1.
</event>
<event>
 7    1  0.6122298E-006  0.7484745E+02  0.7818608E-02  0.1424947E+00
          2   -1    0    0  502    0  0.00000000000E+00  0.00000000000E+00  0.58117130642E+03  0.58117130642E+03  0.00000000000E+00 0. -1.
          1   -1    0    0  501    0 -0.00000000000E+00 -0.00000000000E+00 -0.24011515815E+03  0.24011515815E+03  0.00000000000E+00 0. -1.
         25    2    1    2    0    0  0.68032534672E+02 -0.68945253716E+02  0.44823057695E+03  0.47530766030E+03  0.12499939216E+03 0.  0.
          2    1    1    2  501    0 -0.29091376971E+02  0.68738477842E+02 -0.21698694645E+03  0.22946594841E+03  0.00000000000E+00 0. -1.
          1    1    1    2  502    0 -0.38941157701E+02  0.20677587398E+00  0.10981251777E+03  0.11651285585E+03  0.00000000000E+00 0. -1.
         22    1    3    3    0    0  0.74577253690E+02 -0.65579269694E+02  0.16928244786E+03  0.19626246339E+03  0.00000000000E+00 0.  1.
         22    1    3    3    0    0 -0.65447190179E+01 -0.33659840224E+01  0.27894812909E+03  0.27904519691E+03  0.00000000000E+00 0.  1.
</event>
<event>
 7    1  0.6122298E-006  0.7066190E+02  0.7818608E-02  0.1487696E+00
          2   -1    0    0  502    0  0.00000000000E+00  0.00000000000E+00  0.17441246306E+04  0.17441246306E+04  0.00000000000E+00 0. -1.
          1   -1    0    0  501    0 -0.00000000000E+00 -0.00000000000E+00 -0.18643215127E+03  0.18643215127E+03  0.00000000000E+00 0. -1.
         25    2    1    2    0    0  0.60176617497E+00 -0.48825105840E+02  0.30619874847E+02  0.13763651351E+03  0.12498791954E+03 0.  0.
          2    1    1    2  501    0  0.16715109316E+02 -0.20020989101E+02 -0.13087753427E+03  0.13345097924E+03  0.00000000000E+00 0. -1.
          1    1    1    2  502    0 -0.17316875491E+02  0.68846094940E+02  0.16579501387E+04  0.16594692891E+04  0.00000000000E+00 0. -1.
         22    1    3    3    0    0 -0.19941593715E+02  0.34447908290E+02  0.33194069288E+02  0.51828291321E+02  0.00000000000E+00 0.  1.
         22    1    3    3    0    0  0.20543359890E+02 -0.83273014129E+02 -0.25741944402E+01  0.85808222186E+02  0.00000000000E+00 0.  1.
</event>
<event>
 7    1  0.6122298E-006  0.7085624E+02  0.7818608E-02  0.1375289E+00
          2   -1    0    0  502    0  0.00000000000E+00  0.00000000000E+00  0.41676454035E+03  0.41676454035E+03  0.00000000000E+00 0. -1.
          1   -1    0    0  501    0 -0.00000000000E+00 -0.00000000000E+00 -0.15874797866E+03  0.15874797866E+03  0.00000000000E+00 0. -1.
         25    2    1    2    0    0  0.43260726521E+02 -0.57891360254E+02 -0.34763005222E+02  0.14847850688E+03  0.12495799463E+03 0.  0.
          2    1    1    2  501    0 -0.77245552495E+02  0.72918306254E+01 -0.40985533814E+02  0.87748847036E+02  0.00000000000E+00 0. -1.
          1    1    1    2  502    0  0.33984825975E+02  0.50599529628E+02  0.33376510072E+03  0.33928516510E+03  0.00000000000E+00 0. -1.
         22    1    3    3    0    0  0.71055475470E+02 -0.77609995906E+02 -0.42582246002E+02  0.11351405082E+03  0.00000000000E+00 0. -1.
         22    1    3    3    0    0 -0.27794748949E+02  0.19718635652E+02  0.78192407792E+01  0.34964456059E+02  0.00000000000E+00 0. -1.
</event>
<event>
 7    1  0.6122298E-006  0.1156206E+03  0.7818608E-02  0.1372252E+00
          2   -1    0    0  502    0  0.00000000000E+00  0.00000000000E+00  0.17395923957E+04  0.17395923957E+04  0.00000000000E+00 0. -1.
          1   -1    0    0  501    0 -0.00000000000E+00 -0.00000000000E+00 -0.29695230927E+03  0.29695230927E+03  0.00000000000E+00 0. -1.
         25    2    1    2    0    0 -0.73489191921E+02  0.69548844041E+02 -0.98762975219E+01  0.16112470432E+03  0.12500370416E+03 0.  0.
          2    1    1    2  501    0  0.10770424463E+03 -0.52338266008E+02 -0.19425765376E+03  0.22820064515E+03  0.00000000000E+00 0. -1.
          1    1    1    2  502    0 -0.34215052706E+02 -0.17210578033E+02  0.16467740377E+04  0.16472193555E+04  0.00000000000E+00 0. -1.
         22    1    3    3    0    0 -0.81435997754E+02  0.38757346280E+02 -0.55213033488E+02  0.10574702212E+03  0.00000000000E+00 0. -1.
         22    1    3    3    0    0  0.79468058337E+01  0.30791497761E+02  0.45336735966E+02  0.55377682196E+02  0.00000000000E+00 0. -1.
</event>
<event>
 7    1  0.6122298E-006  0.1323317E+03  0.7818608E-02  0.1423916E+00
          2   -1    0    0  502    0  0.00000000000E+00  0.00000000000E+00  0.20061138037E+03  0.20061138037E+03  0.00000000000E+00 0. -1.
          1   -1    0    0  501    0 -0.00000000000E+00 -0.00000000000E+00 -0.18226505682E+04  0.18226505682E+04  0.00000000000E+00 0. -1.
         25    2    1    2    0    0  0.14177490303E+03  0.37532794410E+02 -0.90655501288E+02  0.21297221973E+03  0.12501964916E+03 0.  0.
          2    1    1    2  501    0 -0.20561158859E+02  0.83708191554E+01 -0.16406278718E+04  0.16407780610E+04  0.00000000000E+00 0. -1.
          1    1    1    2  502    0 -0.12121374417E+03 -0.45903613566E+02  0.10924418525E+03  0.16951166781E+03  0.00000000000E+00 0. -1.
         22    1    3    3    0    0  0.10569971667E+03 -0.33118026065E+02 -0.35358802014E+02  0.11627329287E+03  0.00000000000E+00 0. -1.
         22    1    3    3    0    0  0.36075186355E+02  0.70650820476E+02 -0.55296699274E+02  0.96698926856E+02  0.00000000000E+00 0. -1.
</event>
<event>
 7    1  0.6122298E-006  0.6077403E+02  0.7818608E-02  0.1501227E+00
          2   -1    0    0  502    0  0.00000000000E+00  0.00000000000E+00  0.18095815026E+04  0.18095815026E+04  0.00000000000E+00 0. -1.
          1   -1    0    0  501    0 -0.00000000000E+00 -0.00000000000E+00 -0.78176247063E+03  0.78176247063E+03  0.00000000000E+00 0. -1.
         25    2    1    2    0    0  0.46725661126E+02 -0.74456719051E+02  0.54678283531E+03  0.56773582487E+03  0.12500162971E+03 0.  0.
          2    1    1    2  501    0 -0.35599696547E+02  0.49184602180E+02 -0.76993847563E+03  0.77232876402E+03  0.00000000000E+00 0. -1.
          1    1    1    2  502    0 -0.11125964579E+02  0.25272116871E+02  0.12509746723E+04  0.12512793843E+04  0.00000000000E+00 0. -1.
         22    1    3    3    0    0  0.15338501030E+02  0.17969484247E+02  0.31958915474E+03  0.32046122981E+03  0.00000000000E+00 0.  1.
         22    1    3    3    0    0  0.31387160096E+02 -0.92426203298E+02  0.22719368057E+03  0.24727459506E+03  0.00000000000E+00 0.  1.
</event>
<event>
 7    1  0.6122298E-006  0.1185154E+03  0.7818608E-02  0.1343428E+00
          2   -1    0    0  502    0  0.00000000000E+00  0.00000000000E+00  0.65643483213E+03  0.65643483213E+03  0.00000000000E+00 0. -1.
          1   -1    0    0  501    0 -0.00000000000E+00 -0.00000000000E+00 -0.16371351251E+03  0.16371351251E+03  0.00000000000E+00 0. -1.
         25    2    1    2    0    0  0.40307690736E+01  0.12674955811E+03  0.94218113180E+02  0.20146141137E+03  0.12501179880E+03 0.  0.
          2    1    1    2  501    0 -0.47924048696E+02 -0.10822148925E+03 -0.76741671568E+02  0.14105987854E+03  0.00000000000E+00 0. -1.
          1    1    1    2  502    0  0.43893279623E+02 -0.18528068864E+02  0.47524487801E+03  0.47762705473E+03  0.00000000000E+00 0. -1.
         22    1    3    3    0    0 -0.32443415727E+02  0.10500263038E+02 -0.15541879109E+02  0.37475068434E+02  0.00000000000E+00 0.  1.
         22    1    3    3    0    0  0.36474184800E+02  0.11624929508E+03  0.10975999229E+03  0.16398634294E+03  0.00000000000E+00 0.  1.
</event>
<event>
 7    1  0.6122298E-006  0.1008888E+03  0.7818608E-02  0.1364237E+00
          2   -1    0    0  502    0  0.00000000000E+00  0.00000000000E+00  0.86564805875E+03  0.86564805875E+03  0.00000000000E+00 0. -1.
          1   -1    0    0  501    0 -0.00000000000E+00 -0.00000000000E+00 -0.62853136293E+02  0.62853136293E+02  0.00000000000E+00 0. -1.
         25    2    1    2    0    0  0.99044168117E+02 -0.86044197144E+01  0.21407725845E+03  0.26709158793E+03  0.12500024193E+03 0.  0.
          2    1    1    2  501    0 -0.11762587838E+02 -0.45412791903E+02 -0.14827000330E+02  0.49198781284E+02  0.00000000000E+00 0. -1.
          1    1    1    2  502    0 -0.87281580279E+02  0.54017211618E+02  0.60354466434E+03  0.61221082583E+03  0.00000000000E+00 0. -1.
         22    1    3    3    0    0  0.36387689404E+01  0.33519794208E+02  0.12646936565E+03  0.13088665971E+03  0.00000000000E+00 0.  1.
         22    1    3    3    0    0  0.95405399176E+02 -0.42124213922E+02  0.87607892801E+02  0.13620492822E+03  0.00000000000E+00 0.  1.
</event>
<event>
 7    1  0.6122298E-006  0.1973602E+03  0.7818608E-02  0.1198522E+00
          2   -1    0    0  502    0  0.00000000000E+00  0.00000000000E+00  0.30793204868E+03  0.30793204868E+03  0.00000000000E+00 0. -1.
          1   -1    0    0  501    0 -0.00000000000E+00 -0.00000000000E+00 -0.11200952142E+04  0.11200952142E+04  0.00000000000E+00 0. -1.
         25    2    1    2    0    0  0.36055419983E+02 -0.18995725948E+03  0.68371275973E+02  0.24017442576E+03  0.12500147868E+03 0.  0.
          2    1    1    2  501    0 -0.11591162960E+03 -0.11163118267E+02 -0.95266354718E+03  0.95975411185E+03  0.00000000000E+00 0. -1.
          1    1    1    2  502    0  0.79856209617E+02  0.20112037775E+03  0.72129105722E+02  0.22809872523E+03  0.00000000000E+00 0. -1.
         22    1    3    3    0    0 -0.65413968289E+01 -0.84859877744E+01 -0.28252640688E+02  0.30216114357E+02  0.00000000000E+00 0.  1.
         22    1    3    3    0    0  0.42596816812E+02 -0.18147127171E+03  0.96623916661E+02  0.20995831141E+03  0.00000000000E+00 0.  1.
</event>
<event>
 7    1  0.6122298E-006  0.6224655E+02  0.7818608E-02  0.1459823E+00
          2   -1    0    0  502    0  0.00000000000E+00  0.00000000000E+00  0.17006111895E+04  0.17006111895E+04  0.00000000000E+00 0. -1.
          1   -1    0    0  501    0 -0.00000000000E+00 -0.00000000000E+00 -0.93122726324E+03  0.93122726324E+03  0.00000000000E+00 0. -1.
         25    2    1    2    0    0 -0.61853238410E+02 -0.27743019999E+01  0.12098798166E+03  0.18465477983E+03  0.12500310458E+03 0.  0.
          2    1    1    2  501    0  0.84233362850E+01  0.35116361005E+02 -0.89840091120E+03  0.89912641416E+03  0.00000000000E+00 0. -1.
          1    1    1    2  502    0  0.53429902125E+02 -0.32342059005E+02  0.15467968558E+04  0.15480572588E+04  0.00000000000E+00 0. -1.
         22    1    3    3    0    0 -0.29422693928E+02  0.25867273389E+02  0.13389051820E+03  0.13950441432E+03  0.00000000000E+00 0.  1.
         22    1    3    3    0    0 -0.32430544483E+02 -0.28641575389E+02 -0.12902536546E+02  0.45150365509E+02  0.00000000000E+00 0.  1.
</event>
<event>
 7    1  0.6122298E-006  0.1712863E+03  0.7818608E-02  0.1177363E+00
          2   -1    0    0  502    0  0.00000000000E+00  0.00000000000E+00  0.55504310139E+03  0.55504310139E+03  0.00000000000E+00 0. -1.
          1   -1    0    0  501    0 -0.00000000000E+00 -0.00000000000E+00 -0.58635572424E+03  0.58635572424E+03  0.00000000000E+00 0. -1.
         25    2    1    2    0    0  0.12154872731E+03  0.28141663543E+02 -0.24706669192E+03  0.30369815243E+03  0.12499828477E+03 0.  0.
          2    1    1    2  501    0 -0.26981334925E+03 -0.11059480109E+03 -0.22312607060E+03  0.36717257094E+03  0.00000000000E+00 0. -1.
          1    1    1    2  502    0  0.14826462194E+03  0.82453137551E+02  0.43888013967E+03  0.47052810226E+03  0.00000000000E+00 0. -1.
         22    1    3    3    0    0  0.15980978716E+02  0.27999473601E+02 -0.16990582254E+03  0.17293741856E+03  0.00000000000E+00 0. -1.
         22    1    3    3    0    0  0.10556774859E+03  0.14218994268E+00 -0.77160869380E+02  0.13076073388E+03  0.00000000000E+00 0. -1.
</event>
<event>
 7    1  0.6122298E-006  0.5079209E+02  0.7818608E-02  0.1472236E+00
          2   -1    0    0  502    0  0.00000000000E+00  0.00000000000E+00  0.90133922536E+02  0.90133922536E+02  0.00000000000E+00 0. -1.
          1   -1    0    0  501    0 -0.00000000000E+00 -0.00000000000E+00 -0.15399384028E+04  0.15399384028E+04  0.00000000000E+00 0. -1.
         25    2    1    2    0    0  0.69198783171E+02  0.58316566073E+02 -0.43158100863E+03  0.45834133203E+03  0.12500126466E+03 0.  0.
          2    1    1    2  501    0 -0.30096711862E+02 -0.27057943551E+02 -0.10863974672E+04  0.10871510480E+04  0.00000000000E+00 0. -1.
          1    1    1    2  502    0 -0.39102071309E+02 -0.31258622523E+02  0.68173995624E+02  0.84579945271E+02  0.00000000000E+00 0. -1.
         22    1    3    3    0    0  0.37894270897E+02 -0.16669768469E+02 -0.37138574386E+02  0.55615920877E+02  0.00000000000E+00 0. -1.
         22    1    3    3    0    0  0.31304512274E+02  0.74986334542E+02 -0.39444243425E+03  0.40272541116E+03  0.00000000000E+00 0. -1.
</event>
<event>
 7    1  0.6122298E-006  0.2671673E+02  0.7818608E-02  0.1655251E+00
          2   -1    0    0  502    0  0.00000000000E+00  0.00000000000E+00  0.13653931529E+04  0.13653931529E+04  0.00000000000E+00 0. -1.
          1   -1    0    0  501    0 -0.00000000000E+00 -0.00000000000E+00 -0.30811477857E+03  0.30811477857E+03  0.00000000000E+00 0. -1.
         25    2    1    2    0    0  0.26734290353E+02  0.28447596620E+02  0.11231648868E+04  0.11307731369E+04  0.12499814498E+03 0.  0.
          2    1    1    2  501    0 -0.26484922849E+01 -0.26582906041E+02 -0.30310972335E+03  0.30428468544E+03  0.00000000000E+00 0. -1.
          1    1    1    2  502    0 -0.24085798068E+02 -0.18646905791E+01  0.23722321090E+03  0.23845010910E+03  0.00000000000E+00 0. -1.
         22    1    3    3    0    0  0.52717251916E+02 -0.27368875399E+02  0.76951107008E+03  0.77180013668E+03  0.00000000000E+00 0. -1.
         22    1    3    3    0    0 -0.25982961563E+02  0.55816472018E+02  0.35365381668E+03  0.35897300023E+03  0.00000000000E+00 0. -1.
</event>
<event>
 7    1  0.6122298E-006  0.1124188E+03  0.7818608E-02  0.1312519E+00
          2   -1    0    0  502    0  0.00000000000E+00  0.00000000000E+00  0.24604487479E+04  0.24604487479E+04  0.00000000000E+00 0. -1.
          1   -1    0    0  501    0 -0.00000000000E+00 -0.00000000000E+00 -0.26128999448E+03  0.26128999448E+03  0.00000000000E+00 0. -1.
         25    2    1    2    0    0  0.14953467141E+03 -0.45503983882E+02  0.98716863319E+03  0.10072526829E+04  0.12499930525E+03 0.  0.
          2    1    1    2  501    0 -0.87992179820E+02  0.69291287348E+02 -0.23797879038E+03  0.26301675020E+03  0.00000000000E+00 0. -1.
          1    1    1    2  502    0 -0.61542491593E+02 -0.23787303466E+02  0.14499689106E+04  0.14514693093E+04  0.00000000000E+00 0. -1.
         22    1    3    3    0    0  0.43412959691E+02  0.37572229761E+02  0.44003311094E+03  0.44376288291E+03  0.00000000000E+00 0. -1.
         22    1    3    3    0    0  0.10612171172E+03 -0.83076213643E+02  0.54713552225E+03  0.56348979998E+03  0.00000000000E+00 0. -1.
</event>
<event>
 7    1  0.6340938E-006  0.6554127E+02  0.7818608E-02  0.1377222E+00
          2   -1    0    0  502    0  0.00000000000E+00  0.00000000000E+00  0.11259309673E+04  0.11259309673E+04  0.00000000000E+00 0. -1.
          1   -1    0    0  501    0 -0.00000000000E+00 -0.00000000000E+00 -0.75188468912E+03  0.75188468912E+03  0.00000000000E+00 0. -1.
         25    2    1    2    0    0  0.97692942423E+02  0.63211286225E+02 -0.10609002290E+03  0.20104624696E+03  0.12499969100E+03 0.  0.
          2    1    1    2  501    0 -0.64481298453E+02 -0.69973745794E+01 -0.59556603452E+03  0.59908739143E+03  0.00000000000E+00 0. -1.
          1    1    1    2  502    0 -0.33211643970E+02 -0.56213911646E+02  0.10757023356E+04  0.10776820180E+04  0.00000000000E+00 0. -1.
         22    1    3    3    0    0  0.27457977304E+02  0.12050354938E+02  0.28155808117E+02  0.41132725445E+02  0.00000000000E+00 0. -1.
         22    1    3    3    0    0  0.70234965119E+02  0.51160931287E+02 -0.13424583102E+03  0.15991352151E+03  0.00000000000E+00 0. -1.
</event>
<event>
 7    1  0.6122298E-006  0.2024471E+03  0.7818608E-02  0.1299569E+00
          2   -1    0    0  502    0  0.00000000000E+00  0.00000000000E+00  0.49707118889E+03  0.49707118889E+03  0.00000000000E+00 0. -1.
          1   -1    0    0  501    0 -0.00000000000E+00 -0.00000000000E+00 -0.12137086422E+04  0.12137086422E+04  0.00000000000E+00 0. -1.
         25    2    1    2    0    0 -0.17249782725E+02  0.18953463015E+03  0.66391013474E+02  0.23717841574E+03  0.12499961276E+03 0.  0.
          2    1    1    2  501    0  0.58135096745E+02 -0.19491047803E+03 -0.11178735326E+04  0.11362266582E+04  0.00000000000E+00 0. -1.
          1    1    1    2  502    0 -0.40885314020E+02  0.53758478839E+01  0.33484506584E+03  0.33737475714E+03  0.00000000000E+00 0. -1.
         22    1    3    3    0    0 -0.43108270973E+02  0.15116752074E+02 -0.69533945691E+01  0.46208104436E+02  0.00000000000E+00 0.  1.
         22    1    3    3    0    0  0.25858488248E+02  0.17441787808E+03  0.73344408043E+02  0.19097031130E+03  0.00000000000E+00 0.  1.
</event>
<event>
 7    1  0.6122298E-006  0.2089061E+03  0.7818608E-02  0.1210131E+00
          2   -1    0    0  502    0  0.00000000000E+00  0.00000000000E+00  0.10036995677E+04  0.10036995677E+04  0.00000000000E+00 0. -1.
          1   -1    0    0  501    0 -0.00000000000E+00 -0.00000000000E+00 -0.19789214401E+03  0.19789214401E+03  0.00000000000E+00 0. -1.
         25    2    1    2    0    0  0.12583310422E+03 -0.17803717118E+03  0.42248523913E+03  0.49157875141E+03  0.12499874847E+03 0.  0.
          2    1    1    2  501    0  0.59916978187E+02  0.76372467141E+02 -0.12563284127E+03  0.15876526326E+03  0.00000000000E+00 0. -1.
          1    1    1    2  502    0 -0.18575008240E+03  0.10166470404E+03  0.50895502583E+03  0.55124769702E+03  0.00000000000E+00 0. -1.
         22    1    3    3    0    0  0.11971862261E+03 -0.62074413514E+02  0.23952038725E+03  0.27487414815E+03  0.00000000000E+00 0. -1.
         22    1    3    3    0    0  0.61144816038E+01 -0.11596275767E+03  0.18296485188E+03  0.21670460327E+03  0.00000000000E+00 0. -1.
</event>
<event>
 7    1  0.6122298E-006  0.2327827E+03  0.7818608E-02  0.1138053E+00
          2   -1    0    0  502    0  0.00000000000E+00  0.00000000000E+00  0.47351097201E+03  0.47351097201E+03  0.00000000000E+00 0. -1.
          1   -1    0    0  501    0 -0.00000000000E+00 -0.00000000000E+00 -0.15306988608E+04  0.15306988608E+04  0.00000000000E+00 0. -1.
         25    2    1    2    0    0  0.69089094650E+00  0.41230694328E+03 -0.44157797056E+03  0.61693927025E+03  0.12500186514E+03 0.  0.
          2    1    1    2  501    0  0.38724115290E+02 -0.19381773326E+03 -0.95856258477E+03  0.97872728569E+03  0.00000000000E+00 0. -1.
          1    1    1    2  502    0 -0.39415006236E+02 -0.21848921002E+03  0.34295266653E+03  0.40854327689E+03  0.00000000000E+00 0. -1.
         22    1    3    3    0    0  0.11794707825E+02  0.10497761896E+03 -0.44325393135E+02  0.11456070920E+03  0.00000000000E+00 0. -1.
         22    1    3    3    0    0 -0.11103816879E+02  0.30732932432E+03 -0.39725257743E+03  0.50237856105E+03  0.00000000000E+00 0. -1.
</event>
<event>
 7    1  0.6122298E-006  0.3358765E+03  0.7818608E-02  0.1163769E+00
          2   -1    0    0  502    0  0.00000000000E+00  0.00000000000E+00  0.12106180475E+04  0.12106180475E+04  0.00000000000E+00 0. -1.
          1   -1    0    0  501    0 -0.00000000000E+00 -0.00000000000E+00 -0.67629757028E+03  0.67629757028E+03  0.00000000000E+00 0. -1.
         25    2    1    2    0    0  0.10966936046E+03 -0.25358804318E+03  0.20869909049E+02  0.30396537038E+03  0.12500051607E+03 0.  0.
          2    1    1    2  501    0 -0.45971322628E+02 -0.89991120044E+02 -0.50043606640E+03  0.51053699254E+03  0.00000000000E+00 0. -1.
          1    1    1    2  502    0 -0.63698037837E+02  0.34357916323E+03  0.10138866345E+04  0.10724132548E+04  0.00000000000E+00 0. -1.
         22    1    3    3    0    0  0.93397497117E+02 -0.26556102700E+03  0.11619022444E+02  0.28174590186E+03  0.00000000000E+00 0.  1.
         22    1    3    3    0    0  0.16271863348E+02  0.11972983822E+02  0.92508866046E+01  0.22219468522E+02  0.00000000000E+00 0.  1.
</event>
<event>
 7    1  0.6122298E-006  0.2933623E+03  0.7818608E-02  0.1306817E+00
          2   -1    0    0  502    0  0.00000000000E+00  0.00000000000E+00  0.15375837791E+04  0.15375837791E+04  0.00000000000E+00 0. -1.
          1   -1    0    0  501    0 -0.00000000000E+00 -0.00000000000E+00 -0.15972764020E+04  0.15972764020E+04  0.00000000000E+00 0. -1.
         25    2    1    2    0    0  0.97128441205E+02  0.28801452385E+03 -0.49601727098E+02  0.33237300202E+03  0.12500072442E+03 0.  0.
          2    1    1    2  501    0 -0.70869995084E+02 -0.28359842322E+03 -0.13909685010E+04  0.14213528741E+04  0.00000000000E+00 0. -1.
          1    1    1    2  502    0 -0.26258446120E+02 -0.44161006299E+01  0.13808776052E+04  0.13811343050E+04  0.00000000000E+00 0. -1.
         22    1    3    3    0    0 -0.30399614500E+02  0.63254442711E+02 -0.81849792425E+01  0.70655891259E+02  0.00000000000E+00 0.  1.
         22    1    3    3    0    0  0.12752805571E+03  0.22476008114E+03 -0.41416747855E+02  0.26171711077E+03  0.00000000000E+00 0.  1.
</event>
<event>
 7    1  0.6122298E-006  0.3230852E+03  0.7818608E-02  0.1101424E+00
          2   -1    0    0  502    0  0.00000000000E+00  0.00000000000E+00  0.31740366658E+04  0.31740366658E+04  0.00000000000E+00 0. -1.
          1   -1    0    0  501    0 -0.00000000000E+00 -0.00000000000E+00 -0.68587384948E+03  0.68587384948E+03  0.00000000000E+00 0. -1.
         25    2    1    2    0    0  0.16466103410E+03 -0.52886718402E+02  0.22083492546E+02  0.21452940336E+03  0.12499969251E+03 0.  0.
          2    1    1    2  501    0  0.15965007918E+03  0.15885101051E+03 -0.55819804862E+03  0.60191930756E+03  0.00000000000E+00 0. -1.
          1    1    1    2  502    0 -0.32431111328E+03 -0.10596429211E+03  0.30242773724E+04  0.30434618043E+04  0.00000000000E+00 0. -1.
         22    1    3    3    0    0  0.32796735609E+02  0.36795329200E+02  0.24492463756E+02  0.55040011795E+02  0.00000000000E+00 0.  1.
         22    1    3    3    0    0  0.13186429849E+03 -0.89682047602E+02 -0.24089712100E+01  0.15948939156E+03  0.00000000000E+00 0.  1.
</event>
<event>
 7    1  0.6122298E-006  0.5584494E+02  0.7818608E-02  0.1554527E+00
          2   -1    0    0  502    0  0.00000000000E+00  0.00000000000E+00  0.10041334693E+04  0.10041334693E+04  0.00000000000E+00 0. -1.
          1   -1    0    0  501    0 -0.00000000000E+00 -0.00000000000E+00 -0.51470891343E+02  0.51470891343E+02  0.00000000000E+00 0. -1.
         25    2    1    2    0    0 -0.16064156909E+02 -0.35909234277E+02  0.20132569397E+03  0.24022120512E+03  0.12500664820E+03 0.  0.
          2    1    1    2  501    0  0.65545648049E+01 -0.20075233664E+02 -0.27391427874E+02  0.34587102328E+02  0.00000000000E+00 0. -1.
          1    1    1    2  502    0  0.95095921045E+01  0.55984467941E+02  0.77872831182E+03  0.78079605315E+03  0.00000000000E+00 0. -1.
         22    1    3    3    0    0 -0.21208948125E+02 -0.73208321694E+02  0.69584547699E+02  0.10320507315E+03  0.00000000000E+00 0.  1.
         22    1    3    3    0    0  0.51447912157E+01  0.37299087416E+02  0.13174114627E+03  0.13701613197E+03  0.00000000000E+00 0.  1.
</event>
<event>
 7    1  0.6122298E-006  0.1036256E+03  0.7818608E-02  0.1360332E+00
          2   -1    0    0  502    0  0.00000000000E+00  0.00000000000E+00  0.13896814471E+04  0.13896814471E+04  0.00000000000E+00 0. -1.
          1   -1    0    0  501    0 -0.00000000000E+00 -0.00000000000E+00 -0.63699519427E+03  0.63699519427E+03  0.00000000000E+00 0. -1.
         25    2    1    2    0    0 -0.81511165308E+02 -0.43520438687E+02 -0.78795413062E+02  0.17427256275E+03  0.12499644136E+03 0.  0.
          2    1    1    2  501    0  0.22020304293E+02 -0.41738256980E+02 -0.50735103350E+03  0.50954101610E+03  0.00000000000E+00 0. -1.
          1    1    1    2  502    0  0.59490861015E+02  0.85258695667E+02  0.13388326993E+04  0.13428630625E+04  0.00000000000E+00 0. -1.
         22    1    3    3    0    0 -0.80429188644E+00 -0.45346791631E+02  0.17502021377E+02  0.48613775300E+02  0.00000000000E+00 0.  1.
         22    1    3    3    0    0 -0.80706873422E+02  0.18263529444E+01 -0.96297434439E+02  0.12565878744E+03  0.00000000000E+00 0.  1.
</event>
<event>
 7    1  0.6122298E-006  0.1856367E+03  0.7818608E-02  0.1172808E+00
          2   -1    0    0  502    0  0.00000000000E+00  0.00000000000E+00  0.16805480822E+04  0.16805480822E+04  0.00000000000E+00 0. -1.
          1   -1    0    0  501    0 -0.00000000000E+00 -0.00000000000E+00 -0.52605640173E+03  0.52605640173E+03  0.00000000000E+00 0. -1.
         25    2    1    2    0    0 -0.49217575060E+02  0.55082963562E+02  0.62225217144E+02  0.15796688915E+03  0.12500023140E+03 0.  0.
          2    1    1    2  501    0 -0.15544578629E+03 -0.54822703654E+02 -0.45704889013E+03  0.48586274737E+03  0.00000000000E+00 0. -1.
          1    1    1    2  502    0  0.20466336135E+03 -0.26025990827E+00  0.15493153534E+04  0.15627748474E+04  0.00000000000E+00 0. -1.
         22    1    3    3    0    0 -0.17555236119E+02  0.87339417245E+02  0.68442337428E+02  0.11234194974E+03  0.00000000000E+00 0. -1.
         22    1    3    3    0    0 -0.31662338941E+02 -0.32256453682E+02 -0.62171202843E+01  0.45624939408E+02  0.00000000000E+00 0. -1.
</event>
<event>
 7    1  0.6122298E-006  0.1153059E+03  0.7818608E-02  0.1314801E+00
          2   -1    0    0  502    0  0.00000000000E+00  0.00000000000E+00  0.90185552771E+03  0.90185552771E+03  0.00000000000E+00 0. -1.
          1   -1    0    0  501    0 -0.00000000000E+00 -0.00000000000E+00 -0.11491574896E+04  0.11491574896E+04  0.00000000000E+00 0. -1.
         25    2    1    2    0    0  0.52192453363E+02 -0.83608838500E+01  0.38291766149E+03  0.40625648557E+03  0.12499776006E+03 0.  0.
          2    1    1    2  501    0 -0.11336214386E+03  0.23505078704E+02 -0.11325685829E+04  0.11384704912E+04  0.00000000000E+00 0. -1.
          1    1    1    2  502    0  0.61169690493E+02 -0.15144194854E+02  0.50234895953E+03  0.50628604051E+03  0.00000000000E+00 0. -1.
         22    1    3    3    0    0  0.65963576968E+02  0.26345500070E+02  0.34786444434E+03  0.35504218130E+03  0.00000000000E+00 0.  1.
         22    1    3    3    0    0 -0.13771123606E+02 -0.34706383920E+02  0.35053217150E+02  0.51214304278E+02  0.00000000000E+00 0.  1.
</event>
<event>
 7    1  0.6122298E-006  0.2649190E+02  0.7818608E-02  0.1668722E+00
          2   -1    0    0  502    0  0.00000000000E+00  0.00000000000E+00  0.77996113089E+03  0.77996113089E+03  0.00000000000E+00 0. -1.
          1   -1    0    0  501    0 -0.00000000000E+00 -0.00000000000E+00 -0.77767254983E+03  0.77767254983E+03  0.00000000000E+00 0. -1.
         25    2    1    2    0    0  0.43860665042E+02 -0.18984663971E+02 -0.35301249130E+03  0.37752763582E+03  0.12500048555E+03 0.  0.
          2    1    1    2  501    0 -0.22317069520E+02  0.35890798071E+01 -0.41186416555E+03  0.41248396811E+03  0.00000000000E+00 0. -1.
          1    1    1    2  502    0 -0.21543595523E+02  0.15395584163E+02  0.76716523791E+03  0.76762207679E+03  0.00000000000E+00 0. -1.
         22    1    3    3    0    0  0.83071939238E+02  0.90518113277E+01 -0.25423582763E+03  0.26761677531E+03  0.00000000000E+00 0.  1.
         22    1    3    3    0    0 -0.39211274195E+02 -0.28036475298E+02 -0.98776663675E+02  0.10991086051E+03  0.00000000000E+00 0.  1.
</event>
<event>
 7    1  0.6122298E-006  0.1892367E+03  0.7818608E-02  0.1264435E+00
          2   -1    0    0  502    0  0.00000000000E+00  0.00000000000E+00  0.30643906382E+04  0.30643906382E+04  0.00000000000E+00 0. -1.
          1   -1    0    0  501    0 -0.00000000000E+00 -0.00000000000E+00 -0.19574874078E+04  0.19574874078E+04  0.00000000000E+00 0. -1.
         25    2    1    2    0    0  0.14487273792E+03  0.10949614670E+03 -0.73392858634E+03  0.76632504551E+03  0.12500155678E+03 0.  0.
          2    1    1    2  501    0  0.35044222354E+02 -0.50620622827E+02 -0.12036338797E+04  0.12052074765E+04  0.00000000000E+00 0. -1.
          1    1    1    2  502    0 -0.17991696027E+03 -0.58875523876E+02  0.30444656964E+04  0.30503455241E+04  0.00000000000E+00 0. -1.
         22    1    3    3    0    0  0.92136360524E+02  0.87690164745E+02 -0.26509009235E+03  0.29402624200E+03  0.00000000000E+00 0.  1.
         22    1    3    3    0    0  0.52736377393E+02  0.21805981958E+02 -0.46883849399E+03  0.47229880351E+03  0.00000000000E+00 0.  1.
</event>
<event>
 7    1  0.6122298E-006  0.2022550E+03  0.7818608E-02  0.1228931E+00
          2   -1    0    0  502    0  0.00000000000E+00  0.00000000000E+00  0.22498227700E+04  0.22498227700E+04  0.00000000000E+00 0. -1.
          1   -1    0    0  501    0 -0.00000000000E+00 -0.00000000000E+00 -0.11142156177E+03  0.11142156177E+03  0.00000000000E+00 0. -1.
         25    2    1    2    0    0  0.36387802169E+02  0.16176194066E+03  0.37025462128E+03  0.42450317623E+03  0.12499385768E+03 0.  0.
          2    1    1    2  501    0 -0.66283455167E+02  0.48768508531E+02 -0.56452138792E+02  0.99793325565E+02  0.00000000000E+00 0. -1.
          1    1    1    2  502    0  0.29895652998E+02 -0.21053044919E+03  0.18245987257E+04  0.18369478299E+04  0.00000000000E+00 0. -1.
         22    1    3    3    0    0 -0.23902141566E+02  0.13399568836E+03  0.20149528872E+03  0.24315942969E+03  0.00000000000E+00 0.  1.
         22    1    3    3    0    0  0.60289943735E+02  0.27766252296E+02  0.16875933256E+03  0.18134374654E+03  0.00000000000E+00 0.  1.
</event>
<event>
 7    1  0.6122298E-006  0.7659220E+02  0.7818608E-02  0.1345432E+00
          2   -1    0    0  502    0  0.00000000000E+00  0.00000000000E+00  0.99245189705E+02  0.99245189705E+02  0.00000000000E+00 0. -1.
          1   -1    0    0  501    0 -0.00000000000E+00 -0.00000000000E+00 -0.20755543726E+04  0.20755543726E+04  0.00000000000E+00 0. -1.
         25    2    1    2    0    0  0.27537839281E+02 -0.75884605395E+02 -0.10532147501E+04  0.10636745434E+04  0.12500167412E+03 0.  0.
          2    1    1    2  501    0 -0.76921762226E+02  0.17338948552E+02 -0.99969584860E+03  0.10028007710E+04  0.00000000000E+00 0. -1.
          1    1    1    2  502    0  0.49383922945E+02  0.58545656843E+02  0.76601415793E+02  0.10832424790E+03  0.00000000000E+00 0. -1.
         22    1    3    3    0    0  0.36511713224E+02 -0.34229721321E+02 -0.95862137247E+03  0.95992693200E+03  0.00000000000E+00 0. -1.
         22    1    3    3    0    0 -0.89738739434E+01 -0.41654884075E+02 -0.94593377631E+02  0.10374761141E+03  0.00000000000E+00 0. -1.
</event>
<event>
 7    1  0.6122298E-006  0.1085561E+03  0.7818608E-02  0.1413101E+00
          2   -1    0    0  502    0  0.00000000000E+00  0.00000000000E+00  0.22662941766E+04  0.22662941766E+04  0.00000000000E+00 0. -1.
          1   -1    0    0  501    0 -0.00000000000E+00 -0.00000000000E+00 -0.40765639460E+03  0.40765639460E+03  0.00000000000E+00 0. -1.
         25    2    1    2    0    0  0.40680583371E+02  0.69831879746E+02 -0.26348025111E+03  0.30261939773E+03  0.12500102344E+03 0.  0.
          2    1    1    2  501    0  0.43394303152E+01  0.29092592239E+02 -0.12153668616E+03  0.12504549437E+03  0.00000000000E+00 0. -1.
          1    1    1    2  502    0 -0.45020013686E+02 -0.98924471985E+02  0.22436547193E+04  0.22462856791E+04  0.00000000000E+00 0. -1.
         22    1    3    3    0    0  0.18980200923E+02  0.40000642500E+02 -0.26198505492E+03  0.26569995941E+03  0.00000000000E+00 0. -1.
         22    1    3    3    0    0  0.21700382448E+02  0.29831237246E+02 -0.14951961933E+01  0.36919438317E+02  0.00000000000E+00 0. -1.
</event>
<event>
 7    1  0.6122298E-006  0.8416096E+02  0.7818608E-02  0.1320672E+00
          2   -1    0    0  502    0  0.00000000000E+00  0.00000000000E+00  0.10566881502E+04  0.10566881502E+04  0.00000000000E+00 0. -1.
          1   -1    0    0  501    0 -0.00000000000E+00 -0.00000000000E+00 -0.95190673343E+03  0.95190673343E+03  0.00000000000E+00 0. -1.
         25    2    1    2    0    0 -0.89846591492E+02 -0.72662894664E+02  0.25740122268E+03  0.30859907016E+03  0.12500276157E+03 0.  0.
          2    1    1    2  501    0  0.86875573617E+01  0.83727340751E+02 -0.92221763476E+03  0.92605135230E+03  0.00000000000E+00 0. -1.
          1    1    1    2  502    0  0.81159034131E+02 -0.11064446087E+02  0.76959782885E+03  0.77394446116E+03  0.00000000000E+00 0. -1.
         22    1    3    3    0    0  0.26930798413E+01  0.27206678595E+01  0.14370638101E+03  0.14375736035E+03  0.00000000000E+00 0. -1.
         22    1    3    3    0    0 -0.92539671334E+02 -0.75383562524E+02  0.11369484168E+03  0.16484170981E+03  0.00000000000E+00 0. -1.
</event>
<event>
 7    1  0.6122298E-006  0.5501086E+02  0.7818608E-02  0.1435763E+00
          2   -1    0    0  502    0  0.00000000000E+00  0.00000000000E+00  0.18653433424E+03  0.18653433424E+03  0.00000000000E+00 0. -1.
          1   -1    0    0  501    0 -0.00000000000E+00 -0.00000000000E+00 -0.21782011851E+04  0.21782011851E+04  0.00000000000E+00 0. -1.
         25    2    1    2    0    0 -0.85476057094E+01  0.10206240152E+01 -0.13151655333E+03  0.18165208465E+03  0.12500709109E+03 0.  0.
          2    1    1    2  501    0 -0.39626805632E+02  0.28506251789E+02 -0.20163692618E+04  0.20169600616E+04  0.00000000000E+00 0. -1.
          1    1    1    2  502    0  0.48174411341E+02 -0.29526875804E+02  0.15621896425E+03  0.16612337311E+03  0.00000000000E+00 0. -1.
         22    1    3    3    0    0  0.17798871435E+01 -0.61985742753E+01  0.24394561914E+02  0.25232617230E+02  0.00000000000E+00 0. -1.
         22    1    3    3    0    0 -0.10327492853E+02  0.72191982906E+01 -0.15591111524E+03  0.15641946742E+03  0.00000000000E+00 0. -1.
</event>
<event>
 7    1  0.6122298E-006  0.9489832E+02  0.7818608E-02  0.1421319E+00
          2   -1    0    0  502    0  0.00000000000E+00  0.00000000000E+00  0.33121508327E+02  0.33121508327E+02  0.00000000000E+00 0. -1.
          1   -1    0    0  501    0 -0.00000000000E+00 -0.00000000000E+00 -0.17914206954E+04  0.17914206954E+04  0.00000000000E+00 0. -1.
         25    2    1    2    0    0  0.20327961443E+02 -0.72642410611E+02 -0.51550289377E+03  0.53577935751E+03  0.12500456237E+03 0.  0.
          2    1    1    2  501    0 -0.29113815683E+01  0.98983970443E+02 -0.12519687332E+04  0.12558789797E+04  0.00000000000E+00 0. -1.
          1    1    1    2  502    0 -0.17416579875E+02 -0.26341559832E+02  0.91724398922E+01  0.32883866599E+02  0.00000000000E+00 0. -1.
         22    1    3    3    0    0 -0.49615238336E+02 -0.98977296757E+01 -0.14603671080E+03  0.15455212011E+03  0.00000000000E+00 0. -1.
         22    1    3    3    0    0  0.69943199779E+02 -0.62744680935E+02 -0.36946618297E+03  0.38122723740E+03  0.00000000000E+00 0. -1.
</event>
<event>
 7    1  0.6122298E-006  0.1119008E+03  0.7818608E-02  0.1314252E+00
          2   -1    0    0  502    0  0.00000000000E+00  0.00000000000E+00  0.95581543955E+03  0.95581543955E+03  0.00000000000E+00 0. -1.
          1   -1    0    0  501    0 -0.00000000000E+00 -0.00000000000E+00 -0.34392377232E+03  0.34392377232E+03  0.00000000000E+00 0. -1.
         25    2    1    2    0    0  0.11704306111E+03  0.11649519354E+03 -0.91925949397E+02  0.22659148528E+03  0.12499245080E+03 0.  0.
          2    1    1    2  501    0 -0.64596481235E+02 -0.77665584171E+02 -0.16954103647E+03  0.19735453225E+03  0.00000000000E+00 0. -1.
          1    1    1    2  502    0 -0.52446579879E+02 -0.38829609374E+02  0.87335865310E+03  0.87579319434E+03  0.00000000000E+00 0. -1.
         22    1    3    3    0    0 -0.24752256348E+02  0.32854410647E+02 -0.29087983822E+02  0.50380524969E+02  0.00000000000E+00 0. -1.
         22    1    3    3    0    0  0.14179531746E+03  0.83640782897E+02 -0.62837965575E+02  0.17621096032E+03  0.00000000000E+00 0. -1.
</event>
<event>
 7    1  0.6122298E-006  0.1379145E+03  0.7818608E-02  0.1280233E+00
          2   -1    0    0  502    0  0.00000000000E+00  0.00000000000E+00  0.24998916795E+03  0.24998916795E+03  0.00000000000E+00 0. -1.
          1   -1    0    0  501    0 -0.00000000000E+00 -0.00000000000E+00 -0.26126461916E+04  0.26126461916E+04  0.00000000000E+00 0. -1.
         25    2    1    2    0    0  0.95464455358E+02 -0.12795071234E+03 -0.22911084557E+02  0.20404296523E+03  0.12499506725E+03 0.  0.
          2    1    1    2  501    0 -0.23340565928E+02  0.13582369884E+03 -0.24889084748E+04  0.24927210545E+04  0.00000000000E+00 0. -1.
          1    1    1    2  502    0 -0.72123889430E+02 -0.78729865037E+01  0.14916253571E+03  0.16587133991E+03  0.00000000000E+00 0. -1.
         22    1    3    3    0    0  0.59491926902E+02 -0.13175812820E+03 -0.55985212859E+02  0.15502850632E+03  0.00000000000E+00 0. -1.
         22    1    3    3    0    0  0.35972528456E+02  0.38074158584E+01  0.33074128302E+02  0.49014458907E+02  0.00000000000E+00 0. -1.
</event>
<event>
 7    1  0.6122298E-006  0.1324460E+03  0.7818608E-02  0.1332663E+00
          2   -1    0    0  502    0  0.00000000000E+00  0.00000000000E+00  0.27978751198E+04  0.27978751198E+04  0.00000000000E+00 0. -1.
          1   -1    0    0  501    0 -0.00000000000E+00 -0.00000000000E+00 -0.19457295349E+04  0.19457295349E+04  0.00000000000E+00 0. -1.
         25    2    1    2    0    0  0.12797905977E+02 -0.12893762819E+03  0.84237202014E+02  0.19876929331E+03  0.12499850958E+03 0.  0.
          2    1    1    2  501    0 -0.46808553791E+02  0.60701295871E+00 -0.18865141563E+04  0.18870948760E+04  0.00000000000E+00 0. -1.
          1    1    1    2  502    0  0.34010647814E+02  0.12833061523E+03  0.26544225392E+04  0.26577404854E+04  0.00000000000E+00 0. -1.
         22    1    3    3    0    0  0.20208582104E+02 -0.15265776171E+03  0.80099955368E+02  0.17357644383E+03  0.00000000000E+00 0.  1.
         22    1    3    3    0    0 -0.74106761270E+01  0.23720133523E+02  0.41372466463E+01  0.25192849478E+02  0.00000000000E+00 0.  1.
</event>
<event>
 7    1  0.6122298E-006  0.4813347E+02  0.7818608E-02  0.1463777E+00
          2   -1    0    0  502    0  0.00000000000E+00  0.00000000000E+00  0.44297252455E+03  0.44297252455E+03  0.00000000000E+00 0. -1.
          1   -1    0    0  501    0 -0.00000000000E+00 -0.00000000000E+00 -0.19655064093E+04  0.19655064093E+04  0.00000000000E+00 0. -1.
         25    2    1    2    0    0 -0.61298613448E+01  0.48410156044E+02  0.14340669755E+03  0.19639685934E+03  0.12500050820E+03 0.  0.
          2    1    1    2  501    0 -0.36127349688E+02 -0.31861503850E+02 -0.19368242738E+04  0.19374231877E+04  0.00000000000E+00 0. -1.
          1    1    1    2  502    0  0.42257211032E+02 -0.16548652194E+02  0.27088369148E+03  0.27465888678E+03  0.00000000000E+00 0. -1.
         22    1    3    3    0    0  0.40372502920E+02 -0.20583072954E+02  0.79406468182E+02  0.91427507203E+02  0.00000000000E+00 0. -1.
         22    1    3    3    0    0 -0.46502364264E+02  0.68993228998E+02  0.64000229366E+02  0.10496935214E+03  0.00000000000E+00 0. -1.
</event>
<event>
 7    1  0.6122298E-006  0.7993666E+02  0.7818608E-02  0.1433919E+00
          2   -1    0    0  502    0  0.00000000000E+00  0.00000000000E+00  0.18835617517E+03  0.18835617517E+03  0.00000000000E+00 0. -1.
          1   -1    0    0  501    0 -0.00000000000E+00 -0.00000000000E+00 -0.10439495719E+04  0.10439495719E+04  0.00000000000E+00 0. -1.
         25    2    1    2    0    0 -0.20702388205E+02 -0.43107033493E+02 -0.19641800405E+00  0.13383444497E+03  0.12499925946E+03 0.  0.
          2    1    1    2  501    0  0.44788879251E+02  0.67192922829E+02 -0.97284126703E+03  0.97618700228E+03  0.00000000000E+00 0. -1.
          1    1    1    2  502    0 -0.24086491046E+02 -0.24085889337E+02  0.11744428833E+03  0.12228429980E+03  0.00000000000E+00 0. -1.
         22    1    3    3    0    0 -0.13986752295E+02 -0.83944697532E+02  0.20537515994E+02  0.87545022969E+02  0.00000000000E+00 0.  1.
         22    1    3    3    0    0 -0.67156359103E+01  0.40837664039E+02 -0.20733933998E+02  0.46289421998E+02  0.00000000000E+00 0.  1.
</event>
<event>
 7    1  0.6122298E-006  0.9049551E+02  0.7818608E-02  0.1367835E+00
          2   -1    0    0  502    0  0.00000000000E+00  0.00000000000E+00  0.14729734195E+04  0.14729734195E+04  0.00000000000E+00 0. -1.
          1   -1    0    0  501    0 -0.00000000000E+00 -0.00000000000E+00 -0.17903740760E+03  0.17903740760E+03  0.00000000000E+00 0. -1.
         25    2    1    2    0    0 -0.84539093810E+02  0.71263415679E+02  0.53290937612E+02  0.17519606068E+03  0.12501361066E+03 0.  0.
          2    1    1    2  501    0  0.49345049089E+02  0.11882322075E+02 -0.11105439893E+03  0.12210324717E+03  0.00000000000E+00 0. -1.
          1    1    1    2  502    0  0.35194044721E+02 -0.83145737753E+02  0.13516994732E+04  0.13547115192E+04  0.00000000000E+00 0. -1.
         22    1    3    3    0    0 -0.58876781967E+02  0.10663021245E+03  0.48992852218E+02  0.13128890749E+03  0.00000000000E+00 0. -1.
         22    1    3    3    0    0 -0.25662311842E+02 -0.35366796773E+02  0.42980853942E+01  0.43907153189E+02  0.00000000000E+00 0. -1.
</event>
<event>
 7    1  0.6122298E-006  0.6365354E+02  0.7818608E-02  0.1469175E+00
          2   -1    0    0  502    0  0.00000000000E+00  0.00000000000E+00  0.33091494656E+03  0.33091494656E+03  0.00000000000E+00 0. -1.
          1   -1    0    0  501    0 -0.00000000000E+00 -0.00000000000E+00 -0.18241220278E+03  0.18241220278E+03  0.00000000000E+00 0. -1.
         25    2    1    2    0    0  0.10038888283E+02  0.34741873089E+02  0.15445049128E+02  0.13103055096E+03  0.12499071453E+03 0.  0.
          2    1    1    2  501    0  0.26075959901E+02  0.20239925150E+02 -0.11812112039E+03  0.12264668498E+03  0.00000000000E+00 0. -1.
          1    1    1    2  502    0 -0.36114848184E+02 -0.54981798239E+02  0.25117881504E+03  0.25964991339E+03  0.00000000000E+00 0. -1.
         22    1    3    3    0    0 -0.20701479192E+02  0.67541250414E+02  0.38561615024E+02  0.80482109201E+02  0.00000000000E+00 0. -1.
         22    1    3    3    0    0  0.30740367475E+02 -0.32799377325E+02 -0.23116565896E+02  0.50548441759E+02  0.00000000000E+00 0. -1.
</event>
<event>
 7    1  0.6122298E-006  0.1052085E+03  0.7818608E-02  0.1271642E+00
          2   -1    0    0  502    0  0.00000000000E+00  0.00000000000E+00  0.63237582216E+03  0.63237582216E+03  0.00000000000E+00 0. -1.
          1   -1    0    0  501    0 -0.00000000000E+00 -0.00000000000E+00 -0.64540539082E+02  0.64540539082E+02  0.00000000000E+00 0. -1.
         25    2    1    2    0    0 -0.22418441864E+02  0.91346925525E+02  0.31501859693E+03  0.35172262868E+03  0.12500097509E+03 0.  0.
          2    1    1    2  501    0  0.11258619921E+03 -0.37138119930E+02  0.80509639910E+02  0.14330629548E+03  0.00000000000E+00 0. -1.
          1    1    1    2  502    0 -0.90167757351E+02 -0.54208805594E+02  0.17230704624E+03  0.20188743709E+03  0.00000000000E+00 0. -1.
         22    1    3    3    0    0 -0.51673990555E+02 -0.30069544490E+01  0.66357854270E+02  0.84158231316E+02  0.00000000000E+00 0. -1.
         22    1    3    3    0    0  0.29255548691E+02  0.94353879974E+02  0.24866074266E+03  0.26756439736E+03  0.00000000000E+00 0. -1.
</event>
<event>
 7    1  0.6122298E-006  0.6470630E+02  0.7818608E-02  0.1391923E+00
          2   -1    0    0  502    0  0.00000000000E+00  0.00000000000E+00  0.70079936868E+03  0.70079936868E+03  0.00000000000E+00 0. -1.
          1   -1    0    0  501    0 -0.00000000000E+00 -0.00000000000E+00 -0.10252190946E+04  0.10252190946E+04  0.00000000000E+00 0. -1.
         25    2    1    2    0    0 -0.84617960891E+02  0.36671901718E+02  0.10723970634E+03  0.18875936119E+03  0.12499885655E+03 0.  0.
          2    1    1    2  501    0  0.62319146350E+02  0.17218283139E+02 -0.98185484984E+03  0.98398124547E+03  0.00000000000E+00 0. -1.
          1    1    1    2  502    0  0.22298814541E+02 -0.53890184858E+02  0.55019541756E+03  0.55327785665E+03  0.00000000000E+00 0. -1.
         22    1    3    3    0    0 -0.41843139725E+02 -0.11922978884E+02 -0.18541990406E+02  0.47294938162E+02  0.00000000000E+00 0. -1.
         22    1    3    3    0    0 -0.42774821166E+02  0.48594880603E+02  0.12578169674E+03  0.14146442303E+03  0.00000000000E+00 0. -1.
</event>
<event>
 7    1  0.6122298E-006  0.8422157E+02  0.7818608E-02  0.1382877E+00
          2   -1    0    0  502    0  0.00000000000E+00  0.00000000000E+00  0.18016923460E+04  0.18016923460E+04  0.00000000000E+00 0. -1.
          1   -1    0    0  501    0 -0.00000000000E+00 -0.00000000000E+00 -0.13161799501E+03  0.13161799501E+03  0.00000000000E+00 0. -1.
         25    2    1    2    0    0 -0.67189125538E+02  0.83226547550E+01  0.15660613614E+02  0.14301585867E+03  0.12499854335E+03 0.  0.
          2    1    1    2  501    0 -0.78642194204E+01 -0.47553513442E+02 -0.58211752984E+02  0.75576390316E+02  0.00000000000E+00 0. -1.
          1    1    1    2  502    0  0.75053344958E+02  0.39230858687E+02  0.17126254904E+04  0.17147180921E+04  0.00000000000E+00 0. -1.
         22    1    3    3    0    0 -0.12890226481E+02 -0.45285299670E+02  0.41186795561E+02  0.62556122271E+02  0.00000000000E+00 0.  1.
         22    1    3    3    0    0 -0.54298899057E+02  0.53607954425E+02 -0.25526181948E+02  0.80459736398E+02  0.00000000000E+00 0.  1.
</event>
<event>
 7    1  0.6122298E-006  0.5297496E+02  0.7818608E-02  0.1430404E+00
          2   -1    0    0  502    0  0.00000000000E+00  0.00000000000E+00  0.18389610027E+04  0.18389610027E+04  0.00000000000E+00 0. -1.
          1   -1    0    0  501    0 -0.00000000000E+00 -0.00000000000E+00 -0.10954512308E+04  0.10954512308E+04  0.00000000000E+00 0. -1.
         25    2    1    2    0    0  0.14051143542E+02  0.11657318775E+02  0.44094570013E+03  0.45868548357E+03  0.12500373857E+03 0.  0.
          2    1    1    2  501    0  0.33136712174E+02 -0.41331645779E+02 -0.10853758602E+04  0.10866678907E+04  0.00000000000E+00 0. -1.
          1    1    1    2  502    0 -0.47187855715E+02  0.29674327003E+02  0.13879399320E+04  0.13890588592E+04  0.00000000000E+00 0. -1.
         22    1    3    3    0    0  0.36139283794E+02  0.33715861446E+02  0.41545228382E+03  0.41838189167E+03  0.00000000000E+00 0.  1.
         22    1    3    3    0    0 -0.22088140253E+02 -0.22058542671E+02  0.25493416303E+02  0.40303591892E+02  0.00000000000E+00 0.  1.
</event>
<event>
 7    1  0.6122298E-006  0.1610951E+03  0.7818608E-02  0.1273725E+00
          2   -1    0    0  502    0  0.00000000000E+00  0.00000000000E+00  0.93664225663E+03  0.93664225663E+03  0.00000000000E+00 0. -1.
          1   -1    0    0  501    0 -0.00000000000E+00 -0.00000000000E+00 -0.16065805847E+03  0.16065805847E+03  0.00000000000E+00 0. -1.
         25    2    1    2    0    0  0.59455721891E+02  0.15520698409E+03  0.19402468243E+03  0.28442205359E+03  0.12500454551E+03 0.  0.
          2    1    1    2  501    0  0.53603553831E+02 -0.38677289110E+02 -0.95550022326E+02  0.11618554317E+03  0.00000000000E+00 0. -1.
          1    1    1    2  502    0 -0.11305927572E+03 -0.11652969498E+03  0.67750953805E+03  0.69669271834E+03  0.00000000000E+00 0. -1.
         22    1    3    3    0    0  0.51468278202E+02  0.67996326544E+02  0.17519048489E+03  0.19484401474E+03  0.00000000000E+00 0. -1.
         22    1    3    3    0    0  0.79874436895E+01  0.87210657548E+02  0.18834197543E+02  0.89578038847E+02  0.00000000000E+00 0. -1.
</event>
<event>
 7    1  0.6122298E-006  0.5756819E+02  0.7818608E-02  0.1414097E+00
          2   -1    0    0  502    0  0.00000000000E+00  0.00000000000E+00  0.12425171883E+04  0.12425171883E+04  0.00000000000E+00 0. -1.
          1   -1    0    0  501    0 -0.00000000000E+00 -0.00000000000E+00 -0.26061170256E+03  0.26061170256E+03  0.00000000000E+00 0. -1.
         25    2    1    2    0    0 -0.60827313049E+02 -0.76414022540E+02  0.22513062713E+02  0.16022177322E+03  0.12500045507E+03 0.  0.
          2    1    1    2  501    0  0.51705059909E+02  0.22135763357E+02 -0.18695859876E+03  0.19523555744E+03  0.00000000000E+00 0. -1.
          1    1    1    2  502    0  0.91222531392E+01  0.54278259183E+02  0.11463510218E+04  0.11476715602E+04  0.00000000000E+00 0. -1.
         22    1    3    3    0    0  0.17219475418E+01  0.20903228615E+02  0.38099665702E+02  0.43491316334E+02  0.00000000000E+00 0. -1.
         22    1    3    3    0    0 -0.62549260590E+02 -0.97317251156E+02 -0.15586602989E+02  0.11673045689E+03  0.00000000000E+00 0. -1.
</event>
<event>
 7    1  0.6122298E-006  0.8594842E+02  0.7818608E-02  0.1495321E+00
          2   -1    0    0  502    0  0.00000000000E+00  0.00000000000E+00  0.39164088769E+04  0.39164088769E+04  0.00000000000E+00 0. -1.
          1   -1    0    0  501    0 -0.00000000000E+00 -0.00000000000E+00 -0.48887733022E+03  0.48887733022E+03  0.00000000000E+00 0. -1.
         25    2    1    2    0    0  0.31487973469E+02 -0.75380275188E+02 -0.37235265399E+03  0.40117416345E+03  0.12498212724E+03 0.  0.
          2    1    1    2  501    0 -0.17976115229E+02 -0.95075283735E+01 -0.10062326916E+03  0.10265756723E+03  0.00000000000E+00 0. -1.
          1    1    1    2  502    0 -0.13511858240E+02  0.84887803562E+02  0.39005074698E+04  0.39014544764E+04  0.00000000000E+00 0. -1.
         22    1    3    3    0    0  0.45439145913E+02  0.15896356510E+02 -0.69394761235E+02  0.84457344372E+02  0.00000000000E+00 0. -1.
         22    1    3    3    0    0 -0.13951172444E+02 -0.91276631698E+02 -0.30295789275E+03  0.31671681908E+03  0.00000000000E+00 0. -1.
</event>
<event>
 7    1  0.6122298E-006  0.1139270E+03  0.7818608E-02  0.1278072E+00
          2   -1    0    0  502    0  0.00000000000E+00  0.00000000000E+00  0.11549641258E+04  0.11549641258E+04  0.00000000000E+00 0. -1.
          1   -1    0    0  501    0 -0.00000000000E+00 -0.00000000000E+00 -0.28378144161E+03  0.28378144161E+03  0.00000000000E+00 0. -1.
         25    2    1    2    0    0  0.13611882888E+03 -0.19381017285E+01  0.40730578562E+03  0.44727522334E+03  0.12500012243E+03 0.  0.
          2    1    1    2  501    0 -0.85385929878E+02  0.75859088511E+02 -0.24849069981E+03  0.27348306386E+03  0.00000000000E+00 0. -1.
          1    1    1    2  502    0 -0.50732898999E+02 -0.73920986782E+02  0.71236759836E+03  0.71798728019E+03  0.00000000000E+00 0. -1.
         22    1    3    3    0    0  0.15177916675E+03  0.23438227842E+01  0.27617206077E+03  0.31514031179E+03  0.00000000000E+00 0.  1.
         22    1    3    3    0    0 -0.15660337869E+02 -0.42819245127E+01  0.13113372485E+03  0.13213491156E+03  0.00000000000E+00 0.  1.
</event>
<event>
 7    1  0.6122298E-006  0.9700765E+02  0.7818608E-02  0.1388036E+00
          2   -1    0    0  502    0  0.00000000000E+00  0.00000000000E+00  0.63042616809E+03  0.63042616809E+03  0.00000000000E+00 0. -1.
          1   -1    0    0  501    0 -0.00000000000E+00 -0.00000000000E+00 -0.10930990475E+04  0.10930990475E+04  0.00000000000E+00 0. -1.
         25    2    1    2    0    0 -0.32206795683E+02 -0.11347544345E+03 -0.24983113521E+03  0.30323952476E+03  0.12499863721E+03 0.  0.
          2    1    1    2  501    0  0.36463143157E+02  0.16772620782E+02 -0.81218507252E+03  0.81317616397E+03  0.00000000000E+00 0. -1.
          1    1    1    2  502    0 -0.42563474745E+01  0.96702822669E+02  0.59934332831E+03  0.60710952686E+03  0.00000000000E+00 0. -1.
         22    1    3    3    0    0  0.37974781281E+02 -0.65695629263E+02 -0.17227716127E+03  0.18824829352E+03  0.00000000000E+00 0. -1.
         22    1    3    3    0    0 -0.70181576964E+02 -0.47779814188E+02 -0.77553973934E+02  0.11499123124E+03  0.00000000000E+00 0. -1.
</event>
<event>
 7    1  0.6122298E-006  0.4843681E+02  0.7818608E-02  0.1503941E+00
          2   -1    0    0  502    0  0.00000000000E+00  0.00000000000E+00  0.38173556511E+03  0.38173556511E+03  0.00000000000E+00 0. -1.
          1   -1    0    0  501    0 -0.00000000000E+00 -0.00000000000E+00 -0.13769996193E+03  0.13769996193E+03  0.00000000000E+00 0. -1.
         25    2    1    2    0    0  0.21133205721E+02 -0.25571594959E+02  0.94252338726E+02  0.16002794142E+03  0.12499967931E+03 0.  0.
          2    1    1    2  501    0  0.28584016595E+02  0.18425648080E+02 -0.99480846925E+02  0.10513319845E+03  0.00000000000E+00 0. -1.
          1    1    1    2  502    0 -0.49717222316E+02  0.71459468785E+01  0.24926411137E+03  0.25427438717E+03  0.00000000000E+00 0. -1.
         22    1    3    3    0    0  0.17919412591E+02  0.44027921716E+02  0.73132861920E+02  0.87223728027E+02  0.00000000000E+00 0.  1.
         22    1    3    3    0    0  0.32137931301E+01 -0.69599516675E+02  0.21119476806E+02  0.72804213396E+02  0.00000000000E+00 0.  1.
</event>
<event>
 7    1  0.6122298E-006  0.9153959E+02  0.7818608E-02  0.1401608E+00
          2   -1    0    0  502    0  0.00000000000E+00  0.00000000000E+00  0.10452474855E+03  0.10452474855E+03  0.00000000000E+00 0. -1.
          1   -1    0    0  501    0 -0.00000000000E+00 -0.00000000000E+00 -0.84451411747E+03  0.84451411747E+03  0.00000000000E+00 0. -1.
         25    2    1    2    0    0  0.29656196234E+02  0.88277254884E+02 -0.45532345524E+03  0.48126632427E+03  0.12500184910E+03 0.  0.
          2    1    1    2  501    0  0.32238791208E+02 -0.20432087016E+02 -0.35189455477E+03  0.35395845450E+03  0.00000000000E+00 0. -1.
          1    1    1    2  502    0 -0.61894987442E+02 -0.67845167867E+02  0.67228641087E+02  0.11381408725E+03  0.00000000000E+00 0. -1.
         22    1    3    3    0    0  0.69587136779E+02  0.84836947788E+02 -0.38492473256E+03  0.40025832540E+03  0.00000000000E+00 0.  1.
         22    1    3    3    0    0 -0.39930940545E+02  0.34403070955E+01 -0.70398722680E+02  0.81007998869E+02  0.00000000000E+00 0.  1.
</event>
<event>
 7    1  0.6122298E-006  0.4081271E+02  0.7818608E-02  0.1570564E+00
          2   -1    0    0  502    0  0.00000000000E+00  0.00000000000E+00  0.26398931197E+04  0.26398931197E+04  0.00000000000E+00 0. -1.
          1   -1    0    0  501    0 -0.00000000000E+00 -0.00000000000E+00 -0.95949822750E+03  0.95949822750E+03  0.00000000000E+00 0. -1.
         25    2    1    2    0    0  0.25611052074E+02  0.48483522896E+02  0.59027487333E+03  0.60585130163E+03  0.12499918250E+03 0.  0.
          2    1    1    2  501    0  0.75111711287E+01 -0.25008608988E+02 -0.95132904778E+03  0.95168734643E+03  0.00000000000E+00 0. -1.
          1    1    1    2  502    0 -0.33122223202E+02 -0.23474913908E+02  0.20414490666E+04  0.20418526991E+04  0.00000000000E+00 0. -1.
         22    1    3    3    0    0  0.60386882871E+02  0.31104259149E+02  0.52859612568E+03  0.53294269358E+03  0.00000000000E+00 0.  1.
         22    1    3    3    0    0 -0.34775830797E+02  0.17379263747E+02  0.61678747650E+02  0.72908608050E+02  0.00000000000E+00 0.  1.
</event>
<event>
 7    1  0.6122298E-006  0.3376953E+02  0.7818608E-02  0.1570105E+00
          2   -1    0    0  502    0  0.00000000000E+00  0.00000000000E+00  0.26654634898E+04  0.26654634898E+04  0.00000000000E+00 0. -1.
          1   -1    0    0  501    0 -0.00000000000E+00 -0.00000000000E+00 -0.23678012795E+02  0.23678012795E+02  0.00000000000E+00 0. -1.
         25    2    1    2    0    0 -0.33287572527E+02 -0.34017081926E+02  0.26760856783E+03  0.29917371047E+03  0.12500135645E+03 0.  0.
          2    1    1    2  501    0  0.16467844976E+01  0.33287972597E+02  0.27865448995E+02  0.43442885108E+02  0.00000000000E+00 0. -1.
          1    1    1    2  502    0  0.31640788029E+02  0.72910932845E+00  0.23463114602E+04  0.23465249071E+04  0.00000000000E+00 0. -1.
         22    1    3    3    0    0  0.19034987465E+02 -0.55804018895E+02  0.60616230328E+02  0.84562087556E+02  0.00000000000E+00 0. -1.
         22    1    3    3    0    0 -0.52322559992E+02  0.21786936969E+02  0.20699233750E+03  0.21461162292E+03  0.00000000000E+00 0. -1.
</event>
<event>
 7    1  0.6122298E-006  0.1068957E+03  0.7818608E-02  0.1430251E+00
          2   -1    0    0  502    0  0.00000000000E+00  0.00000000000E+00  0.64177729678E+03  0.64177729678E+03  0.00000000000E+00 0. -1.
          1   -1    0    0  501    0 -0.00000000000E+00 -0.00000000000E+00 -0.12250221095E+04  0.12250221095E+04  0.00000000000E+00 0. -1.
         25    2    1    2    0    0  0.57276221226E+01  0.11110274440E+03 -0.13048833920E+03  0.21220024032E+03  0.12500043943E+03 0.  0.
          2    1    1    2  501    0 -0.30419644564E+02 -0.10237685225E+03 -0.10506841408E+04  0.10560982617E+04  0.00000000000E+00 0. -1.
          1    1    1    2  502    0  0.24692022441E+02 -0.87258921542E+01  0.59792766725E+03  0.59850090428E+03  0.00000000000E+00 0. -1.
         22    1    3    3    0    0 -0.54324224946E+02  0.28545271074E+02 -0.27698078559E+02  0.67328578424E+02  0.00000000000E+00 0. -1.
         22    1    3    3    0    0  0.60051847068E+02  0.82557473325E+02 -0.10279026064E+03  0.14487166190E+03  0.00000000000E+00 0. -1.
</event>
<event>
 7    1  0.6122298E-006  0.1801039E+03  0.7818608E-02  0.1277298E+00
          2   -1    0    0  502    0  0.00000000000E+00  0.00000000000E+00  0.76556874510E+03  0.76556874510E+03  0.00000000000E+00 0. -1.
          1   -1    0    0  501    0 -0.00000000000E+00 -0.00000000000E+00 -0.23195157104E+03  0.23195157104E+03  0.00000000000E+00 0. -1.
         25    2    1    2    0    0  0.16780490474E+03 -0.10771824231E+03 -0.70855368186E+01  0.23545031051E+03  0.12499975242E+03 0.  0.
          2    1    1    2  501    0 -0.50289352784E+02 -0.27114995505E+02 -0.89941267313E+02  0.10655361820E+03  0.00000000000E+00 0. -1.
          1    1    1    2  502    0 -0.11751555196E+03  0.13483323782E+03  0.63064397819E+03  0.65551638744E+03  0.00000000000E+00 0. -1.
         22    1    3    3    0    0 -0.20580031539E+02 -0.75340140274E+01  0.88793472716E+00  0.21933706791E+02  0.00000000000E+00 0. -1.
         22    1    3    3    0    0  0.18838493628E+03 -0.10018422828E+03 -0.79734715458E+01  0.21351660372E+03  0.00000000000E+00 0. -1.
</event>
<event>
 7    1  0.6122298E-006  0.1100173E+03  0.7818608E-02  0.1284422E+00
          2   -1    0    0  502    0  0.00000000000E+00  0.00000000000E+00  0.23132624743E+04  0.23132624743E+04  0.00000000000E+00 0. -1.
          1   -1    0    0  501    0 -0.00000000000E+00 -0.00000000000E+00 -0.11397259430E+04  0.11397259430E+04  0.00000000000E+00 0. -1.
         25    2    1    2    0    0 -0.14528799004E+03  0.12855119583E+03  0.33573100811E+03  0.40740034455E+03  0.12500288372E+03 0.  0.
          2    1    1    2  501    0  0.65540811741E+02 -0.57833140037E+02 -0.11006946439E+04  0.11041598476E+04  0.00000000000E+00 0. -1.
          1    1    1    2  502    0  0.79747178295E+02 -0.70718055788E+02  0.19385001671E+04  0.19414282252E+04  0.00000000000E+00 0. -1.
         22    1    3    3    0    0 -0.13787755628E+03  0.12556497487E+03  0.34679353169E+03  0.39375441212E+03  0.00000000000E+00 0. -1.
         22    1    3    3    0    0 -0.74104337527E+01  0.29862209510E+01 -0.11062523580E+02  0.13645932432E+02  0.00000000000E+00 0. -1.
</event>
<event>
 7    1  0.6122298E-006  0.6831478E+02  0.7818608E-02  0.1425576E+00
          2   -1    0    0  502    0  0.00000000000E+00  0.00000000000E+00  0.15974529335E+03  0.15974529335E+03  0.00000000000E+00 0. -1.
          1   -1    0    0  501    0 -0.00000000000E+00 -0.00000000000E+00 -0.23238735223E+03  0.23238735223E+03  0.00000000000E+00 0. -1.
         25    2    1    2    0    0 -0.36069702026E+02 -0.66071541771E+01  0.59731482267E+01  0.13040163103E+03  0.12499691590E+03 0.  0.
          2    1    1    2  501    0  0.58509821955E+02  0.42654434643E+02 -0.15682754971E+03  0.17273586891E+03  0.00000000000E+00 0. -1.
          1    1    1    2  502    0 -0.22440119929E+02 -0.36047280466E+02  0.78212342604E+02  0.88995145638E+02  0.00000000000E+00 0. -1.
         22    1    3    3    0    0 -0.37246033537E+01  0.28339870059E+02  0.55044808195E+02  0.62023800386E+02  0.00000000000E+00 0.  1.
         22    1    3    3    0    0 -0.32345098672E+02 -0.34947024237E+02 -0.49071659968E+02  0.68377830641E+02  0.00000000000E+00 0.  1.
</event>
<event>
 7    1  0.6122298E-006  0.7170696E+02  0.7818608E-02  0.1371089E+00
          2   -1    0    0  502    0  0.00000000000E+00  0.00000000000E+00  0.12019614284E+04  0.12019614284E+04  0.00000000000E+00 0. -1.
          1   -1    0    0  501    0 -0.00000000000E+00 -0.00000000000E+00 -0.50423868323E+02  0.50423868323E+02  0.00000000000E+00 0. -1.
         25    2    1    2    0    0 -0.50458297839E+02 -0.11287681661E+03  0.25794219074E+03  0.31216753906E+03  0.12500873222E+03 0.  0.
          2    1    1    2  501    0  0.44417550994E+02  0.43757390637E+02  0.22382642582E+02  0.66246590558E+02  0.00000000000E+00 0. -1.
          1    1    1    2  502    0  0.60407468453E+01  0.69119425977E+02  0.87121272680E+03  0.87397116715E+03  0.00000000000E+00 0. -1.
         22    1    3    3    0    0 -0.11044287164E+02  0.14918457709E+02 -0.31409594659E+01  0.18825575309E+02  0.00000000000E+00 0.  1.
         22    1    3    3    0    0 -0.39414010675E+02 -0.12779527432E+03  0.26108315021E+03  0.29334196375E+03  0.00000000000E+00 0.  1.
</event>
<event>
 7    1  0.6122298E-006  0.1263984E+03  0.7818608E-02  0.1237309E+00
          2   -1    0    0  502    0  0.00000000000E+00  0.00000000000E+00  0.47219680102E+03  0.47219680102E+03  0.00000000000E+00 0. -1.
          1   -1    0    0  501    0 -0.00000000000E+00 -0.00000000000E+00 -0.70800325773E+03  0.70800325773E+03  0.00000000000E+00 0. -1.
         25    2    1    2    0    0  0.39662179857E+02  0.40333356106E+02 -0.90224227216E+02  0.16421168685E+03  0.12500079519E+03 0.  0.
          2    1    1    2  501    0 -0.10463435895E+03  0.70909779111E+02 -0.56410205720E+03  0.57808967884E+03  0.00000000000E+00 0. -1.
          1    1    1    2  502    0  0.64972179088E+02 -0.11124313522E+03  0.41851982771E+03  0.43789869305E+03  0.00000000000E+00 0. -1.
         22    1    3    3    0    0  0.63543737825E+02  0.27746525486E+02 -0.11049795488E+03  0.13045104187E+03  0.00000000000E+00 0.  1.
         22    1    3    3    0    0 -0.23881557968E+02  0.12586830621E+02  0.20273727664E+02  0.33760644980E+02  0.00000000000E+00 0.  1.
</event>
<event>
 7    1  0.6122298E-006  0.4848819E+02  0.7818608E-02  0.1493301E+00
          2   -1    0    0  502    0  0.00000000000E+00  0.00000000000E+00  0.10962081103E+04  0.10962081103E+04  0.00000000000E+00 0. -1.
          1   -1    0    0  501    0 -0.00000000000E+00 -0.00000000000E+00 -0.80462477187E+02  0.80462477187E+02  0.00000000000E+00 0. -1.
         25    2    1    2    0    0 -0.12449262117E+02 -0.53297446413E+02  0.28374990583E+03  0.31485601543E+03  0.12499879789E+03 0.  0.
          2    1    1    2  501    0  0.39404782133E+02  0.28607489712E+02 -0.55292851950E+02  0.73677844698E+02  0.00000000000E+00 0. -1.
          1    1    1    2  502    0 -0.26955520016E+02  0.24689956701E+02  0.78728857925E+03  0.78813672738E+03  0.00000000000E+00 0. -1.
         22    1    3    3    0    0 -0.48515188836E+02  0.86049095635E+01  0.49287964697E+02  0.69692693163E+02  0.00000000000E+00 0.  1.
         22    1    3    3    0    0  0.36065926719E+02 -0.61902355976E+02  0.23446194113E+03  0.24516332227E+03  0.00000000000E+00 0.  1.
</event>
<event>
 7    1  0.6122298E-006  0.1139946E+03  0.7818608E-02  0.1312875E+00
          2   -1    0    0  502    0  0.00000000000E+00  0.00000000000E+00  0.47703712985E+03  0.47703712985E+03  0.00000000000E+00 0. -1.
          1   -1    0    0  501    0 -0.00000000000E+00 -0.00000000000E+00 -0.34615434089E+03  0.34615434089E+03  0.00000000000E+00 0. -1.
         25    2    1    2    0    0 -0.12264860405E+03  0.91922487718E+01  0.37042009480E+02  0.17923390109E+03  0.12500201326E+03 0.  0.
          2    1    1    2  501    0  0.20398715071E+02 -0.61567430502E+02 -0.26206382138E+03  0.26997055868E+03  0.00000000000E+00 0. -1.
          1    1    1    2  502    0  0.10224988897E+03  0.52375181730E+02  0.35590460086E+03  0.37398701097E+03  0.00000000000E+00 0. -1.
         22    1    3    3    0    0 -0.10988102431E+03  0.38924970891E+02  0.67577183804E+02  0.13474297248E+03  0.00000000000E+00 0.  1.
         22    1    3    3    0    0 -0.12767579732E+02 -0.29732722119E+02 -0.30535174324E+02  0.44490928601E+02  0.00000000000E+00 0.  1.
</event>
<event>
 7    1  0.6122298E-006  0.9713827E+02  0.7818608E-02  0.1315730E+00
          2   -1    0    0  502    0  0.00000000000E+00  0.00000000000E+00  0.23827869584E+04  0.23827869584E+04  0.00000000000E+00 0. -1.
          1   -1    0    0  501    0 -0.00000000000E+00 -0.00000000000E+00 -0.66073814914E+03  0.66073814914E+03  0.00000000000E+00 0. -1.
         25    2    1    2    0    0 -0.10525481478E+03 -0.20925348376E+02  0.35162383492E+02  0.16845367065E+03  0.12499519872E+03 0.  0.
          2    1    1    2  501    0  0.21671650273E+02  0.70943608456E+02 -0.59073190918E+03  0.59537118215E+03  0.00000000000E+00 0. -1.
          1    1    1    2  502    0  0.83583164511E+02 -0.50018260080E+02  0.22776183349E+04  0.22797002547E+04  0.00000000000E+00 0. -1.
         22    1    3    3    0    0 -0.38983403846E+02 -0.19901548533E+02  0.78066741090E+02  0.89499684211E+02  0.00000000000E+00 0.  1.
         22    1    3    3    0    0 -0.66271410937E+02 -0.10237998430E+01 -0.42904357598E+02  0.78953986439E+02  0.00000000000E+00 0.  1.
</event>
<event>
 7    1  0.6122298E-006  0.6707428E+02  0.7818608E-02  0.1425822E+00
          2   -1    0    0  502    0  0.00000000000E+00  0.00000000000E+00  0.16089137496E+04  0.16089137496E+04  0.00000000000E+00 0. -1.
          1   -1    0    0  501    0 -0.00000000000E+00 -0.00000000000E+00 -0.37164041263E+02  0.37164041263E+02  0.00000000000E+00 0. -1.
         25    2    1    2    0    0  0.26761387055E+02  0.35018079139E+02  0.34965413026E+03  0.37393883059E+03  0.12501920056E+03 0.  0.
          2    1    1    2  501    0 -0.67920468639E+02 -0.22010837721E+02  0.27106221237E+02  0.76370244644E+02  0.00000000000E+00 0. -1.
          1    1    1    2  502    0  0.41159081584E+02 -0.13007241417E+02  0.11949893569E+04  0.11957687157E+04  0.00000000000E+00 0. -1.
         22    1    3    3    0    0  0.64624791683E+02 -0.16970513939E+02  0.20546562784E+03  0.21605667373E+03  0.00000000000E+00 0.  1.
         22    1    3    3    0    0 -0.37863404628E+02  0.51988593078E+02  0.14418850243E+03  0.15788215685E+03  0.00000000000E+00 0.  1.
</event>
<event>
 7    1  0.6122298E-006  0.6997094E+02  0.7818608E-02  0.1391859E+00
          2   -1    0    0  502    0  0.00000000000E+00  0.00000000000E+00  0.97846275434E+03  0.97846275434E+03  0.00000000000E+00 0. -1.
          1   -1    0    0  501    0 -0.00000000000E+00 -0.00000000000E+00 -0.45647453016E+02  0.45647453016E+02  0.00000000000E+00 0. -1.
         25    2    1    2    0    0 -0.31531851521E+02  0.25452337264E+01  0.10832695976E+03  0.16840268381E+03  0.12499599125E+03 0.  0.
          2    1    1    2  501    0 -0.17338647088E+02  0.51099282378E+02  0.38286168654E+02  0.66163404180E+02  0.00000000000E+00 0. -1.
          1    1    1    2  502    0  0.48870498609E+02 -0.53644516105E+02  0.78620217291E+03  0.78954411937E+03  0.00000000000E+00 0. -1.
         22    1    3    3    0    0 -0.32292664668E+02  0.54181545111E+02  0.96724717405E+02  0.11547349037E+03  0.00000000000E+00 0.  1.
         22    1    3    3    0    0  0.76081314635E+00 -0.51636311385E+02  0.11602242356E+02  0.52929193436E+02  0.00000000000E+00 0.  1.
</event>
<event>
 7    1  0.6122298E-006  0.1124327E+03  0.7818608E-02  0.1286644E+00
          2   -1    0    0  502    0  0.00000000000E+00  0.00000000000E+00  0.10559373472E+04  0.10559373472E+04  0.00000000000E+00 0. -1.
          1   -1    0    0  501    0 -0.00000000000E+00 -0.00000000000E+00 -0.77338886303E+03  0.77338886303E+03  0.00000000000E+00 0. -1.
         25    2    1    2    0    0  0.10938403805E+03 -0.14814496470E+03 -0.31310559514E+03  0.38414975683E+03  0.12499649444E+03 0.  0.
          2    1    1    2  501    0 -0.58871797368E+02  0.81334621326E+02 -0.41707469887E+03  0.42899010897E+03  0.00000000000E+00 0. -1.
          1    1    1    2  502    0 -0.50512240677E+02  0.66810343369E+02  0.10127287782E+04  0.10161863444E+04  0.00000000000E+00 0. -1.
         22    1    3    3    0    0  0.55998966489E+02  0.59800659901E+01 -0.11070551905E+03  0.12420691359E+03  0.00000000000E+00 0. -1.
         22    1    3    3    0    0  0.53385071557E+02 -0.15412503069E+03 -0.20240007610E+03  0.25994284324E+03  0.00000000000E+00 0. -1.
</event>
<event>
 7    1  0.6122298E-006  0.1110972E+03  0.7818608E-02  0.1434969E+00
          2   -1    0    0  502    0  0.00000000000E+00  0.00000000000E+00  0.59697113037E+03  0.59697113037E+03  0.00000000000E+00 0. -1.
          1   -1    0    0  501    0 -0.00000000000E+00 -0.00000000000E+00 -0.18869676384E+03  0.18869676384E+03  0.00000000000E+00 0. -1.
         25    2    1    2    0    0  0.38001641004E+02  0.99089303019E+02  0.26170642647E+03  0.30883426126E+03  0.12500213029E+03 0.  0.
          2    1    1    2  501    0 -0.61559875688E+02 -0.93066015114E+02 -0.14572036198E+03  0.18353562422E+03  0.00000000000E+00 0. -1.
          1    1    1    2  502    0  0.23558234684E+02 -0.60232879048E+01  0.29228830203E+03  0.29329800873E+03  0.00000000000E+00 0. -1.
         22    1    3    3    0    0  0.10904787873E+02  0.74086070549E+02  0.26145054087E+03  0.27196331658E+03  0.00000000000E+00 0.  1.
         22    1    3    3    0    0  0.27096853131E+02  0.25003232470E+02  0.25588560696E+00  0.36870944672E+02  0.00000000000E+00 0.  1.
</event>
<event>
 7    1  0.6122298E-006  0.3071439E+02  0.7818608E-02  0.1602512E+00
          2   -1    0    0  502    0  0.00000000000E+00  0.00000000000E+00  0.53693906263E+03  0.53693906263E+03  0.00000000000E+00 0. -1.
          1   -1    0    0  501    0 -0.00000000000E+00 -0.00000000000E+00 -0.20996854437E+02  0.20996854437E+02  0.00000000000E+00 0. -1.
         25    2    1    2    0    0 -0.23082076834E+02  0.41248602653E+02  0.42687486756E+03  0.44730480771E+03  0.12500083580E+03 0.  0.
          2    1    1    2  501    0 -0.31329245203E+01 -0.29983153242E+02  0.20757604553E+02  0.36601678119E+02  0.00000000000E+00 0. -1.
          1    1    1    2  502    0  0.26215001354E+02 -0.11265449411E+02  0.68309736082E+02  0.74029431242E+02  0.00000000000E+00 0. -1.
         22    1    3    3    0    0 -0.67928159213E+02  0.27853859237E+02  0.15595502681E+03  0.17237181520E+03  0.00000000000E+00 0. -1.
         22    1    3    3    0    0  0.44846082380E+02  0.13394743416E+02  0.27091984075E+03  0.27493299251E+03  0.00000000000E+00 0. -1.
</event>
<event>
 7    1  0.6122298E-006  0.1065655E+03  0.7818608E-02  0.1366638E+00
          2   -1    0    0  502    0  0.00000000000E+00  0.00000000000E+00  0.90246593794E+03  0.90246593794E+03  0.00000000000E+00 0. -1.
          1   -1    0    0  501    0 -0.00000000000E+00 -0.00000000000E+00 -0.29586339267E+03  0.29586339267E+03  0.00000000000E+00 0. -1.
         25    2    1    2    0    0  0.13660269393E+03  0.33107367378E+02 -0.76987904272E+02  0.20324507780E+03  0.12500012192E+03 0.  0.
          2    1    1    2  501    0 -0.30800026272E+02 -0.30764446973E+02 -0.14928985031E+03  0.15550740247E+03  0.00000000000E+00 0. -1.
          1    1    1    2  502    0 -0.10580266766E+03 -0.23429204054E+01  0.83288029985E+03  0.83957685035E+03  0.00000000000E+00 0. -1.
         22    1    3    3    0    0  0.11441303290E+03  0.77572416426E+02 -0.52738274212E+02  0.14794981397E+03  0.00000000000E+00 0.  1.
         22    1    3    3    0    0  0.22189661034E+02 -0.44465049047E+02 -0.24249630060E+02  0.55295263826E+02  0.00000000000E+00 0.  1.
</event>
<event>
 7    1  0.6122298E-006  0.8276401E+02  0.7818608E-02  0.1390000E+00
          2   -1    0    0  502    0  0.00000000000E+00  0.00000000000E+00  0.13895886291E+04  0.13895886291E+04  0.00000000000E+00 0. -1.
          1   -1    0    0  501    0 -0.00000000000E+00 -0.00000000000E+00 -0.51838838952E+03  0.51838838952E+03  0.00000000000E+00 0. -1.
         25    2    1    2    0    0 -0.97913454872E+02 -0.73930261750E+02 -0.50881593000E+02  0.18239166120E+03  0.12500021329E+03 0.  0.
          2    1    1    2  501    0  0.53821790328E+02  0.59783876097E+02 -0.39731485309E+03  0.40537635530E+03  0.00000000000E+00 0. -1.
          1    1    1    2  502    0  0.44091664543E+02  0.14146385653E+02  0.13193966857E+04  0.13202090021E+04  0.00000000000E+00 0. -1.
         22    1    3    3    0    0 -0.32892700273E+01 -0.47969686272E+02  0.28751365292E+02  0.56022773088E+02  0.00000000000E+00 0. -1.
         22    1    3    3    0    0 -0.94624184845E+02 -0.25960575478E+02 -0.79632958292E+02  0.12636888811E+03  0.00000000000E+00 0. -1.
</event>
<event>
 7    1  0.6122298E-006  0.6568513E+02  0.7818608E-02  0.1397081E+00
          2   -1    0    0  502    0  0.00000000000E+00  0.00000000000E+00  0.27909075668E+03  0.27909075668E+03  0.00000000000E+00 0. -1.
          1   -1    0    0  501    0 -0.00000000000E+00 -0.00000000000E+00 -0.14797833608E+03  0.14797833608E+03  0.00000000000E+00 0. -1.
         25    2    1    2    0    0  0.10964328443E+02  0.31160320496E+02  0.40630794863E+01  0.12935230131E+03  0.12499730864E+03 0.  0.
          2    1    1    2  501    0  0.54684044867E+02 -0.70349137374E+01 -0.69720554761E+02  0.88886391143E+02  0.00000000000E+00 0. -1.
          1    1    1    2  502    0 -0.65648373310E+02 -0.24125406759E+02  0.19676989587E+03  0.20883040030E+03  0.00000000000E+00 0. -1.
         22    1    3    3    0    0  0.59221089202E+02  0.48518825735E+02 -0.70358138747E+01  0.76881184525E+02  0.00000000000E+00 0.  1.
         22    1    3    3    0    0 -0.48256760759E+02 -0.17358505239E+02  0.11098893361E+02  0.52471116788E+02  0.00000000000E+00 0.  1.
</event>
<event>
 7    1  0.6122298E-006  0.1325560E+03  0.7818608E-02  0.1337281E+00
          2   -1    0    0  502    0  0.00000000000E+00  0.00000000000E+00  0.13851882174E+04  0.13851882174E+04  0.00000000000E+00 0. -1.
          1   -1    0    0  501    0 -0.00000000000E+00 -0.00000000000E+00 -0.77605632696E+03  0.77605632696E+03  0.00000000000E+00 0. -1.
         25    2    1    2    0    0 -0.19879169625E+01 -0.17632983952E+03  0.27113446838E+03  0.34674929695E+03  0.12500004348E+03 0.  0.
          2    1    1    2  501    0  0.60316412683E+01  0.13158648432E+03 -0.73189789169E+03  0.74365711683E+03  0.00000000000E+00 0. -1.
          1    1    1    2  502    0 -0.40437243058E+01  0.44743355208E+02  0.10698953137E+04  0.10708381306E+04  0.00000000000E+00 0. -1.
         22    1    3    3    0    0 -0.48611869213E+02 -0.10179472559E+03  0.86165511107E+02  0.14194990416E+03  0.00000000000E+00 0.  1.
         22    1    3    3    0    0  0.46623952251E+02 -0.74535113932E+02  0.18496895727E+03  0.20479939279E+03  0.00000000000E+00 0.  1.
</event>
<event>
 7    1  0.6122298E-006  0.1256435E+03  0.7818608E-02  0.1276397E+00
          2   -1    0    0  502    0  0.00000000000E+00  0.00000000000E+00  0.72312720187E+03  0.72312720187E+03  0.00000000000E+00 0. -1.
          1   -1    0    0  501    0 -0.00000000000E+00 -0.00000000000E+00 -0.77479207579E+03  0.77479207579E+03  0.00000000000E+00 0. -1.
         25    2    1    2    0    0  0.36609369886E+02 -0.17558684422E+03 -0.24886694766E+03  0.33125433532E+03  0.12499476469E+03 0.  0.
          2    1    1    2  501    0 -0.62928853491E+02  0.53515071800E+02 -0.47542284889E+03  0.48254615195E+03  0.00000000000E+00 0. -1.
          1    1    1    2  502    0  0.26319483605E+02  0.12207177242E+03  0.67262492263E+03  0.68411879041E+03  0.00000000000E+00 0. -1.
         22    1    3    3    0    0  0.29495234888E+01 -0.14422520682E+03 -0.24597849907E+03  0.28515790709E+03  0.00000000000E+00 0.  1.
         22    1    3    3    0    0  0.33659846397E+02 -0.31361637398E+02 -0.28884485898E+01  0.46096428224E+02  0.00000000000E+00 0.  1.
</event>
<event>
 7    1  0.6122298E-006  0.8097393E+02  0.7818608E-02  0.1395185E+00
          2   -1    0    0  502    0  0.00000000000E+00  0.00000000000E+00  0.13471541587E+04  0.13471541587E+04  0.00000000000E+00 0. -1.
          1   -1    0    0  501    0 -0.00000000000E+00 -0.00000000000E+00 -0.20794033796E+03  0.20794033796E+03  0.00000000000E+00 0. -1.
         25    2    1    2    0    0  0.76135982061E+02 -0.88079188234E+02  0.31389185103E+02  0.17368756411E+03  0.12500983090E+03 0.  0.
          2    1    1    2  501    0 -0.84927878826E+01  0.44603729705E+02 -0.13168437717E+03  0.13929248128E+03  0.00000000000E+00 0. -1.
          1    1    1    2  502    0 -0.67643194178E+02  0.43475458528E+02  0.12395090128E+04  0.12421144512E+04  0.00000000000E+00 0. -1.
         22    1    3    3    0    0 -0.16389692536E+02  0.18668153357E+02  0.20129742683E+02  0.31973872328E+02  0.00000000000E+00 0.  1.
         22    1    3    3    0    0  0.92525674597E+02 -0.10674734159E+03  0.11259442420E+02  0.14171369179E+03  0.00000000000E+00 0.  1.
</event>
<event>
 7    1  0.6122298E-006  0.9439767E+02  0.7818608E-02  0.1367592E+00
          2   -1    0    0  502    0  0.00000000000E+00  0.00000000000E+00  0.20779929773E+04  0.20779929773E+04  0.00000000000E+00 0. -1.
          1   -1    0    0  501    0 -0.00000000000E+00 -0.00000000000E+00 -0.16137784465E+03  0.16137784465E+03  0.00000000000E+00 0. -1.
         25    2    1    2    0    0 -0.45612134838E+02  0.14638678602E+02  0.10118892153E+03  0.16780523158E+03  0.12499856059E+03 0.  0.
          2    1    1    2  501    0 -0.42026383652E+02  0.24716156375E+02 -0.12219583555E+03  0.13156339740E+03  0.00000000000E+00 0. -1.
          1    1    1    2  502    0  0.87638518489E+02 -0.39354834976E+02  0.19376220466E+04  0.19400021929E+04  0.00000000000E+00 0. -1.
         22    1    3    3    0    0 -0.76818450721E+02  0.23427082306E+02  0.10808854761E+03  0.13465896435E+03  0.00000000000E+00 0.  1.
         22    1    3    3    0    0  0.31206315883E+02 -0.87884037043E+01 -0.68996260838E+01  0.33146267222E+02  0.00000000000E+00 0.  1.
</event>
<event>
 7    1  0.6292154E-006  0.4564790E+02  0.7818608E-02  0.1485067E+00
          2   -1    0    0  502    0  0.00000000000E+00  0.00000000000E+00  0.10608275908E+04  0.10608275908E+04  0.00000000000E+00 0. -1.
          1   -1    0    0  501    0 -0.00000000000E+00 -0.00000000000E+00 -0.70263536041E+03  0.70263536041E+03  0.00000000000E+00 0. -1.
         25    2    1    2    0    0  0.75170100055E+02 -0.38552274460E+02 -0.48429885262E+02  0.15845276306E+03  0.12500001011E+03 0.  0.
          2    1    1    2  501    0 -0.39932462304E+02  0.98244373591E+01 -0.59797373093E+03  0.59938610594E+03  0.00000000000E+00 0. -1.
          1    1    1    2  502    0 -0.35237637751E+02  0.28727837101E+02  0.10045958466E+04  0.10056240822E+04  0.00000000000E+00 0. -1.
         22    1    3    3    0    0 -0.31568838987E+02 -0.15364083682E+02  0.72521136168E+01  0.35850241481E+02  0.00000000000E+00 0. -1.
         22    1    3    3    0    0  0.10673893904E+03 -0.23188190778E+02 -0.55681998879E+02  0.12260252158E+03  0.00000000000E+00 0. -1.
</event>
<event>
 7    1  0.6122298E-006  0.6290536E+02  0.7818608E-02  0.1491465E+00
          2   -1    0    0  502    0  0.00000000000E+00  0.00000000000E+00  0.40808247951E+02  0.40808247951E+02  0.00000000000E+00 0. -1.
          1   -1    0    0  501    0 -0.00000000000E+00 -0.00000000000E+00 -0.80738052487E+03  0.80738052487E+03  0.00000000000E+00 0. -1.
         25    2    1    2    0    0 -0.15395382760E+02  0.35629829047E+02 -0.26569055785E+03  0.29617987394E+03  0.12499817067E+03 0.  0.
          2    1    1    2  501    0  0.35115986706E+02 -0.56257394408E+02 -0.51563573096E+03  0.51988290412E+03  0.00000000000E+00 0. -1.
          1    1    1    2  502    0 -0.19720603946E+02  0.20627565362E+02  0.14754011889E+02  0.32125994764E+02  0.00000000000E+00 0. -1.
         22    1    3    3    0    0 -0.29148144365E+02  0.56211771869E+02 -0.54501808263E+02  0.83545345296E+02  0.00000000000E+00 0. -1.
         22    1    3    3    0    0  0.13752761605E+02 -0.20581942823E+02 -0.21118874958E+03  0.21263452865E+03  0.00000000000E+00 0. -1.
</event>
<event>
 7    1  0.6122298E-006  0.4033144E+02  0.7818608E-02  0.1583772E+00
          2   -1    0    0  502    0  0.00000000000E+00  0.00000000000E+00  0.67525092881E+02  0.67525092881E+02  0.00000000000E+00 0. -1.
          1   -1    0    0  501    0 -0.00000000000E+00 -0.00000000000E+00 -0.28860295952E+03  0.28860295952E+03  0.00000000000E+00 0. -1.
         25    2    1    2    0    0 -0.43652703549E+02  0.15705647510E+02 -0.41435370797E+02  0.13962402294E+03  0.12500300772E+03 0.  0.
          2    1    1    2  501    0  0.39495015713E+02  0.82839224727E+01 -0.18681379843E+03  0.19112266982E+03  0.00000000000E+00 0. -1.
          1    1    1    2  502    0  0.41576878360E+01 -0.23989569982E+02  0.71713025882E+01  0.25381359635E+02  0.00000000000E+00 0. -1.
         22    1    3    3    0    0  0.82896655037E+01 -0.19988835692E+02  0.34633741396E+02  0.40838317174E+02  0.00000000000E+00 0.  1.
         22    1    3    3    0    0 -0.51942369053E+02  0.35694483201E+02 -0.76069112194E+02  0.98785705766E+02  0.00000000000E+00 0.  1.
</event>
<event>
 7    1  0.6122298E-006  0.7554011E+02  0.7818608E-02  0.1391325E+00
          2   -1    0    0  502    0  0.00000000000E+00  0.00000000000E+00  0.18427462661E+03  0.18427462661E+03  0.00000000000E+00 0. -1.
          1   -1    0    0  501    0 -0.00000000000E+00 -0.00000000000E+00 -0.14289562033E+04  0.14289562033E+04  0.00000000000E+00 0. -1.
         25    2    1    2    0    0  0.90618620041E+01  0.52557670699E+02 -0.90755620380E+02  0.16341970314E+03  0.12499996260E+03 0.  0.
          2    1    1    2  501    0  0.39374833391E+02 -0.65735275109E+02 -0.12964464808E+04  0.12987089672E+04  0.00000000000E+00 0. -1.
          1    1    1    2  502    0 -0.48436695395E+02  0.13177604410E+02  0.14252052450E+03  0.15110215956E+03  0.00000000000E+00 0. -1.
         22    1    3    3    0    0 -0.85497735544E+01  0.70655115545E+02 -0.11045079846E+03  0.13139491185E+03  0.00000000000E+00 0. -1.
         22    1    3    3    0    0  0.17611635558E+02 -0.18097444846E+02  0.19695178080E+02  0.32024791281E+02  0.00000000000E+00 0. -1.
</event>
<event>
 7    1  0.6122298E-006  0.4189334E+02  0.7818608E-02  0.1554529E+00
          2   -1    0    0  502    0  0.00000000000E+00  0.00000000000E+00  0.21047485371E+04  0.21047485371E+04  0.00000000000E+00 0. -1.
          1   -1    0    0  501    0 -0.00000000000E+00 -0.00000000000E+00 -0.73993065258E+02  0.73993065258E+02  0.00000000000E+00 0. -1.
         25    2    1    2    0    0  0.25691688110E+01  0.20163197465E+02  0.58430082954E+03  0.59786732432E+03  0.12499889172E+03 0.  0.
          2    1    1    2  501    0 -0.21077134749E+02  0.18660557785E+02 -0.63942493243E+02  0.69864901547E+02  0.00000000000E+00 0. -1.
          1    1    1    2  502    0  0.18507965938E+02 -0.38823755250E+02  0.15103971356E+04  0.15110093765E+04  0.00000000000E+00 0. -1.
         22    1    3    3    0    0  0.33843722225E+01  0.72811466824E+02  0.37716879162E+03  0.38414744701E+03  0.00000000000E+00 0. -1.
         22    1    3    3    0    0 -0.81520341153E+00 -0.52648269359E+02  0.20713203792E+03  0.21371987731E+03  0.00000000000E+00 0. -1.
</event>
<event>
 7    1  0.6122298E-006  0.7206897E+02  0.7818608E-02  0.1471781E+00
          2   -1    0    0  502    0  0.00000000000E+00  0.00000000000E+00  0.43849879518E+03  0.43849879518E+03  0.00000000000E+00 0. -1.
          1   -1    0    0  501    0 -0.00000000000E+00 -0.00000000000E+00 -0.32970030803E+03  0.32970030803E+03  0.00000000000E+00 0. -1.
         25    2    1    2    0    0  0.94032512038E+02  0.26971218874E+02  0.16751149023E+02  0.15961035998E+03  0.12500122420E+03 0.  0.
          2    1    1    2  501    0 -0.24200404533E+02 -0.15271294921E+02 -0.25388090780E+03  0.25548852689E+03  0.00000000000E+00 0. -1.
          1    1    1    2  502    0 -0.69832107505E+02 -0.11699923953E+02  0.34592824592E+03  0.35310021634E+03  0.00000000000E+00 0. -1.
         22    1    3    3    0    0  0.10216022892E+03  0.47472758819E+02 -0.22229121326E+02  0.11482381738E+03  0.00000000000E+00 0.  1.
         22    1    3    3    0    0 -0.81277168807E+01 -0.20501539945E+02  0.38980270348E+02  0.44786542602E+02  0.00000000000E+00 0.  1.
</event>
<event>
 7    1  0.6122298E-006  0.5145565E+02  0.7818608E-02  0.1452692E+00
          2   -1    0    0  502    0  0.00000000000E+00  0.00000000000E+00  0.81820119288E+02  0.81820119288E+02  0.00000000000E+00 0. -1.
          1   -1    0    0  501    0 -0.00000000000E+00 -0.00000000000E+00 -0.59974536639E+03  0.59974536639E+03  0.00000000000E+00 0. -1.
         25    2    1    2    0    0 -0.25104229473E+02 -0.75265550338E+01 -0.21245813870E+03  0.24789276812E+03  0.12500196965E+03 0.  0.
          2    1    1    2  501    0  0.12499386491E+02 -0.44291123487E+02 -0.35673863565E+03  0.35969486020E+03  0.00000000000E+00 0. -1.
          1    1    1    2  502    0  0.12604842982E+02  0.51817678521E+02  0.51271527251E+02  0.73977857366E+02  0.00000000000E+00 0. -1.
         22    1    3    3    0    0 -0.67056545868E+02 -0.32101399239E+02 -0.15964815150E+03  0.17610966030E+03  0.00000000000E+00 0.  1.
         22    1    3    3    0    0  0.41952316395E+02  0.24574844205E+02 -0.52809987203E+02  0.71783107810E+02  0.00000000000E+00 0.  1.
</event>
<event>
 7    1  0.6122298E-006  0.1168854E+03  0.7818608E-02  0.1445877E+00
          2   -1    0    0  502    0  0.00000000000E+00  0.00000000000E+00  0.22512125833E+03  0.22512125833E+03  0.00000000000E+00 0. -1.
          1   -1    0    0  501    0 -0.00000000000E+00 -0.00000000000E+00 -0.12327521661E+04  0.12327521661E+04  0.00000000000E+00 0. -1.
         25    2    1    2    0    0  0.12664549221E+03 -0.49003522167E+02 -0.36694271003E+03  0.41074591386E+03  0.12499930971E+03 0.  0.
          2    1    1    2  501    0 -0.21302606384E+02  0.22048926682E+00 -0.82718027531E+03  0.82745456523E+03  0.00000000000E+00 0. -1.
          1    1    1    2  502    0 -0.10534288583E+03  0.48783032900E+02  0.18649207760E+03  0.21967294531E+03  0.00000000000E+00 0. -1.
         22    1    3    3    0    0  0.81809690245E+02 -0.62758554519E+02 -0.34285419884E+03  0.35802299262E+03  0.00000000000E+00 0.  1.
         22    1    3    3    0    0  0.44835801965E+02  0.13755032352E+02 -0.24088511194E+02  0.52722921243E+02  0.00000000000E+00 0.  1.
</event>
<event>
 7    1  0.6122298E-006  0.9785703E+02  0.7818608E-02  0.1458687E+00
          2   -1    0    0  502    0  0.00000000000E+00  0.00000000000E+00  0.63044210738E+03  0.63044210738E+03  0.00000000000E+00 0. -1.
          1   -1    0    0  501    0 -0.00000000000E+00 -0.00000000000E+00 -0.69784998488E+03  0.69784998488E+03  0.00000000000E+00 0. -1.
         25    2    1    2    0    0  0.94883471340E+02 -0.72763015675E+02 -0.76669402954E+02  0.18920897656E+03  0.12499803950E+03 0.  0.
          2    1    1    2  501    0 -0.14607858750E+02  0.17974322612E+02 -0.56055706186E+03  0.56103536913E+03  0.00000000000E+00 0. -1.
          1    1    1    2  502    0 -0.80275612590E+02  0.54788693062E+02  0.56981858731E+03  0.57804774656E+03  0.00000000000E+00 0. -1.
         22    1    3    3    0    0  0.78737549453E+02 -0.93257739354E+02 -0.97185542325E+02  0.15601806716E+03  0.00000000000E+00 0. -1.
         22    1    3    3    0    0  0.16145921886E+02  0.20494723679E+02  0.20516139371E+02  0.33190909403E+02  0.00000000000E+00 0. -1.
</event>
<event>
 7    1  0.6122298E-006  0.3988073E+02  0.7818608E-02  0.1610830E+00
          2   -1    0    0  502    0  0.00000000000E+00  0.00000000000E+00  0.76941574520E+03  0.76941574520E+03  0.00000000000E+00 0. -1.
          1   -1    0    0  501    0 -0.00000000000E+00 -0.00000000000E+00 -0.12850517614E+03  0.12850517614E+03  0.00000000000E+00 0. -1.
         25    2    1    2    0    0 -0.53264115792E+02 -0.27645921642E+02  0.16837725060E+03  0.21812172783E+03  0.12499930646E+03 0.  0.
          2    1    1    2  501    0  0.17245318940E+02  0.11826817820E+02 -0.10189843461E+03  0.10402194779E+03  0.00000000000E+00 0. -1.
          1    1    1    2  502    0  0.36018796852E+02  0.15819103822E+02  0.57443175306E+03  0.57577724573E+03  0.00000000000E+00 0. -1.
         22    1    3    3    0    0  0.18535455154E+02  0.13998918679E+02 -0.68609620638E+01  0.24219942658E+02  0.00000000000E+00 0.  1.
         22    1    3    3    0    0 -0.71799570946E+02 -0.41644840321E+02  0.17523821267E+03  0.19390178517E+03  0.00000000000E+00 0.  1.
</event>
<event>
 7    1  0.6122298E-006  0.7431455E+02  0.7818608E-02  0.1404833E+00
          2   -1    0    0  502    0  0.00000000000E+00  0.00000000000E+00  0.68580562961E+03  0.68580562961E+03  0.00000000000E+00 0. -1.
          1   -1    0    0  501    0 -0.00000000000E+00 -0.00000000000E+00 -0.31305466490E+03  0.31305466490E+03  0.00000000000E+00 0. -1.
         25    2    1    2    0    0  0.29156860623E+02  0.38703235958E+02 -0.19737749056E+02  0.13550695293E+03  0.12499797022E+03 0.  0.
          2    1    1    2  501    0 -0.27574933703E+02  0.36612896187E+02 -0.23091215850E+03  0.23541730200E+03  0.00000000000E+00 0. -1.
          1    1    1    2  502    0 -0.15819269201E+01 -0.75316132145E+02  0.62340087227E+03  0.62793603957E+03  0.00000000000E+00 0. -1.
         22    1    3    3    0    0 -0.19036132739E+02  0.23167922459E+02 -0.62441824247E+02  0.69268379482E+02  0.00000000000E+00 0.  1.
         22    1    3    3    0    0  0.48192993362E+02  0.15535313499E+02  0.42704075192E+02  0.66238573450E+02  0.00000000000E+00 0.  1.
</event>
<event>
 7    1  0.6122298E-006  0.1840550E+03  0.7818608E-02  0.1197473E+00
          2   -1    0    0  502    0  0.00000000000E+00  0.00000000000E+00  0.40503188862E+02  0.40503188862E+02  0.00000000000E+00 0. -1.
          1   -1    0    0  501    0 -0.00000000000E+00 -0.00000000000E+00 -0.36442795946E+04  0.36442795946E+04  0.00000000000E+00 0. -1.
         25    2    1    2    0    0  0.22178917130E+03  0.76525450183E+01 -0.23122819541E+04  0.23262676116E+04  0.12499666956E+03 0.  0.
          2    1    1    2  501    0 -0.13502676391E+03 -0.99436377120E+02 -0.11743154827E+04  0.11862279178E+04  0.00000000000E+00 0. -1.
          1    1    1    2  502    0 -0.86762407388E+02  0.91783832101E+02 -0.11717896901E+03  0.17228725417E+03  0.00000000000E+00 0. -1.
         22    1    3    3    0    0 -0.83408550927E+01  0.98273271973E+00 -0.12928155849E+02  0.15416641688E+02  0.00000000000E+00 0. -1.
         22    1    3    3    0    0  0.23013002639E+03  0.66698122986E+01 -0.22993537983E+04  0.23108509699E+04  0.00000000000E+00 0. -1.
</event>
<event>
 7    1  0.6122298E-006  0.7968455E+02  0.7818608E-02  0.1380938E+00
          2   -1    0    0  502    0  0.00000000000E+00  0.00000000000E+00  0.33748704234E+04  0.33748704234E+04  0.00000000000E+00 0. -1.
          1   -1    0    0  501    0 -0.00000000000E+00 -0.00000000000E+00 -0.16584335480E+03  0.16584335480E+03  0.00000000000E+00 0. -1.
         25    2    1    2    0    0 -0.51533656627E+02  0.69374412366E+00  0.36129277196E+03  0.38576674492E+03  0.12500926113E+03 0.  0.
          2    1    1    2  501    0 -0.11914663307E+02  0.50362948287E+02 -0.14867817358E+03  0.15742803137E+03  0.00000000000E+00 0. -1.
          1    1    1    2  502    0  0.63448319935E+02 -0.51056692411E+02  0.29964124702E+04  0.29975190019E+04  0.00000000000E+00 0. -1.
         22    1    3    3    0    0  0.56094960276E+01 -0.32935957981E+02  0.21877456116E+02  0.39935784203E+02  0.00000000000E+00 0.  1.
         22    1    3    3    0    0 -0.57143152655E+02  0.33629702105E+02  0.33941531585E+03  0.34583096072E+03  0.00000000000E+00 0.  1.
</event>
<event>
 7    1  0.6122298E-006  0.5208398E+02  0.7818608E-02  0.1439393E+00
          2   -1    0    0  502    0  0.00000000000E+00  0.00000000000E+00  0.92240897204E+03  0.92240897204E+03  0.00000000000E+00 0. -1.
          1   -1    0    0  501    0 -0.00000000000E+00 -0.00000000000E+00 -0.48351255432E+03  0.48351255432E+03  0.00000000000E+00 0. -1.
         25    2    1    2    0    0 -0.24175299681E+02  0.48751611248E+02 -0.15122729417E+03  0.20361572914E+03  0.12501402296E+03 0.  0.
          2    1    1    2  501    0 -0.25973375394E+02 -0.47167481778E+02 -0.30301341103E+03  0.30776048289E+03  0.00000000000E+00 0. -1.
          1    1    1    2  502    0  0.50148675075E+02 -0.15841294705E+01  0.89313712291E+03  0.89454531434E+03  0.00000000000E+00 0. -1.
         22    1    3    3    0    0 -0.61609527514E+02 -0.73282105466E+01 -0.10467287165E+03  0.12167927765E+03  0.00000000000E+00 0. -1.
         22    1    3    3    0    0  0.37434227834E+02  0.56079821795E+02 -0.46554422522E+02  0.81936451488E+02  0.00000000000E+00 0. -1.
</event>
<event>
 7    1  0.1120242E-005  0.6797809E+02  0.7818608E-02  0.1381172E+00
          2   -1    0    0  502    0  0.00000000000E+00  0.00000000000E+00  0.10010889223E+04  0.10010889223E+04  0.00000000000E+00 0. -1.
          1   -1    0    0  501    0 -0.00000000000E+00 -0.00000000000E+00 -0.13430723995E+04  0.13430723995E+04  0.00000000000E+00 0. -1.
         25    2    1    2    0    0 -0.89139783538E+02 -0.91904685394E+02 -0.41904375852E+03  0.45564818914E+03  0.12500091401E+03 0.  0.
          2    1    1    2  501    0  0.45357250857E+02  0.40112985168E+02 -0.90354195981E+03  0.90556855341E+03  0.00000000000E+00 0. -1.
          1    1    1    2  502    0  0.43782532681E+02  0.51791700226E+02  0.98060224115E+03  0.98294457918E+03  0.00000000000E+00 0. -1.
         22    1    3    3    0    0 -0.10691018158E+03 -0.30048503454E+02 -0.21968992317E+03  0.24616328285E+03  0.00000000000E+00 0. -1.
         22    1    3    3    0    0  0.17770398038E+02 -0.61856181940E+02 -0.19935383535E+03  0.20948490628E+03  0.00000000000E+00 0. -1.
</event>
<event>
 7    1  0.6122298E-006  0.9493693E+02  0.7818608E-02  0.1327217E+00
          2   -1    0    0  502    0  0.00000000000E+00  0.00000000000E+00  0.21010293971E+03  0.21010293971E+03  0.00000000000E+00 0. -1.
          1   -1    0    0  501    0 -0.00000000000E+00 -0.00000000000E+00 -0.16635660089E+03  0.16635660089E+03  0.00000000000E+00 0. -1.
         25    2    1    2    0    0 -0.57428332454E+01  0.43898461207E+02  0.12293979628E+03  0.18083075839E+03  0.12500205855E+03 0.  0.
          2    1    1    2  501    0 -0.34698594673E+02 -0.99202732603E+02 -0.70532635343E+02  0.12657024641E+03  0.00000000000E+00 0. -1.
          1    1    1    2  502    0  0.40441427918E+02  0.55304271396E+02 -0.86608221218E+01  0.69058535798E+02  0.00000000000E+00 0. -1.
         22    1    3    3    0    0  0.24641376707E+02  0.36936559044E+02 -0.89608322710E+01  0.45296836037E+02  0.00000000000E+00 0. -1.
         22    1    3    3    0    0 -0.30384209952E+02  0.69619021632E+01  0.13190062855E+03  0.13553392235E+03  0.00000000000E+00 0. -1.
</event>
<event>
 7    1  0.6122298E-006  0.5066617E+02  0.7818608E-02  0.1449639E+00
          2   -1    0    0  502    0  0.00000000000E+00  0.00000000000E+00  0.62652019114E+03  0.62652019114E+03  0.00000000000E+00 0. -1.
          1   -1    0    0  501    0 -0.00000000000E+00 -0.00000000000E+00 -0.13248119935E+03  0.13248119935E+03  0.00000000000E+00 0. -1.
         25    2    1    2    0    0  0.31166562112E+01 -0.18445729786E+02  0.30317845487E+02  0.12997145516E+03  0.12499379548E+03 0.  0.
          2    1    1    2  501    0  0.40695056840E+02  0.37559325514E+02 -0.72193787833E+02  0.90987546323E+02  0.00000000000E+00 0. -1.
          1    1    1    2  502    0 -0.43811713051E+02 -0.19113595728E+02  0.53591493413E+03  0.53804238901E+03  0.00000000000E+00 0. -1.
         22    1    3    3    0    0 -0.47179518450E+02  0.28182043898E+02 -0.71206760846E-01  0.54955797055E+02  0.00000000000E+00 0. -1.
         22    1    3    3    0    0  0.50296174662E+02 -0.46627773684E+02  0.30389052248E+02  0.75015658104E+02  0.00000000000E+00 0. -1.
</event>
<event>
 7    1  0.6122298E-006  0.1111949E+03  0.7818608E-02  0.1424760E+00
          2   -1    0    0  502    0  0.00000000000E+00  0.00000000000E+00  0.11805923859E+03  0.11805923859E+03  0.00000000000E+00 0. -1.
          1   -1    0    0  501    0 -0.00000000000E+00 -0.00000000000E+00 -0.58161108672E+03  0.58161108672E+03  0.00000000000E+00 0. -1.
         25    2    1    2    0    0  0.11330629737E+03  0.11535924509E+02 -0.13142315320E+03  0.21416910808E+03  0.12499986834E+03 0.  0.
          2    1    1    2  501    0 -0.83054910961E+01  0.24901318367E+02 -0.36782938034E+03  0.36876484361E+03  0.00000000000E+00 0. -1.
          1    1    1    2  502    0 -0.10500080627E+03 -0.36437242876E+02  0.35700685410E+02  0.11673637361E+03  0.00000000000E+00 0. -1.
         22    1    3    3    0    0  0.12642417317E+02  0.49643846309E+02 -0.79716750882E+02  0.94758126634E+02  0.00000000000E+00 0. -1.
         22    1    3    3    0    0  0.10066388005E+03 -0.38107921800E+02 -0.51706402314E+02  0.11941098145E+03  0.00000000000E+00 0. -1.
</event>
<event>
 7    1  0.6122298E-006  0.5965606E+02  0.7818608E-02  0.1403023E+00
          2   -1    0    0  502    0  0.00000000000E+00  0.00000000000E+00  0.16738665957E+04  0.16738665957E+04  0.00000000000E+00 0. -1.
          1   -1    0    0  501    0 -0.00000000000E+00 -0.00000000000E+00 -0.34320661793E+02  0.34320661793E+02  0.00000000000E+00 0. -1.
         25    2    1    2    0    0  0.18938812805E+02  0.15932822755E+02  0.27282129710E+03  0.30111294399E+03  0.12500004565E+03 0.  0.
          2    1    1    2  501    0 -0.67200201200E+02  0.16086858423E+02  0.41538634862E+02  0.80623273572E+02  0.00000000000E+00 0. -1.
          1    1    1    2  502    0  0.48261388395E+02 -0.32019681178E+02  0.13251860020E+04  0.13264510400E+04  0.00000000000E+00 0. -1.
         22    1    3    3    0    0  0.62268997452E+02 -0.13242293261E+02  0.20985918553E+03  0.21930267697E+03  0.00000000000E+00 0.  1.
         22    1    3    3    0    0 -0.43330184647E+02  0.29175116016E+02  0.62962111566E+02  0.81810267014E+02  0.00000000000E+00 0.  1.
</event>
<event>
 7    1  0.6122298E-006  0.6545928E+02  0.7818608E-02  0.1450606E+00
          2   -1    0    0  502    0  0.00000000000E+00  0.00000000000E+00  0.84238786542E+03  0.84238786542E+03  0.00000000000E+00 0. -1.
          1   -1    0    0  501    0 -0.00000000000E+00 -0.00000000000E+00 -0.86577702885E+03  0.86577702885E+03  0.00000000000E+00 0. -1.
         25    2    1    2    0    0  0.83006066652E+02  0.22724161088E+02  0.50715702996E+01  0.15184579552E+03  0.12500012078E+03 0.  0.
          2    1    1    2  501    0 -0.18438512037E+02 -0.31771964916E+02 -0.79057153314E+03  0.79142452925E+03  0.00000000000E+00 0. -1.
          1    1    1    2  502    0 -0.64567554615E+02  0.90478038282E+01  0.76211079941E+03  0.76489456949E+03  0.00000000000E+00 0. -1.
         22    1    3    3    0    0  0.18539005786E+02 -0.50664228266E+02  0.48032496306E+01  0.54162994455E+02  0.00000000000E+00 0.  1.
         22    1    3    3    0    0  0.64467060866E+02  0.73388389354E+02  0.26832066903E+00  0.97682801069E+02  0.00000000000E+00 0.  1.
</event>
<event>
 7    1  0.6122298E-006  0.4216825E+02  0.7818608E-02  0.1519949E+00
          2   -1    0    0  502    0  0.00000000000E+00  0.00000000000E+00  0.11292589556E+04  0.11292589556E+04  0.00000000000E+00 0. -1.
          1   -1    0    0  501    0 -0.00000000000E+00 -0.00000000000E+00 -0.76661999573E+03  0.76661999573E+03  0.00000000000E+00 0. -1.
         25    2    1    2    0    0  0.22578774561E+01 -0.23094158941E+02  0.85020402591E+02  0.15293992450E+03  0.12499485374E+03 0.  0.
          2    1    1    2  501    0  0.32580018451E+02  0.27006590565E+02 -0.73174461071E+03  0.73296724950E+03  0.00000000000E+00 0. -1.
          1    1    1    2  502    0 -0.34837895908E+02 -0.39124316239E+01  0.10093631680E+04  0.10099717773E+04  0.00000000000E+00 0. -1.
         22    1    3    3    0    0  0.30006307427E+02 -0.53709675056E+02  0.35920133353E+01  0.61627998830E+02  0.00000000000E+00 0. -1.
         22    1    3    3    0    0 -0.27748429971E+02  0.30615516114E+02  0.81428389256E+02  0.91311925670E+02  0.00000000000E+00 0. -1.
</event>
<event>
 7    1  0.6122298E-006  0.3297748E+03  0.7818608E-02  0.1217957E+00
          2   -1    0    0  502    0  0.00000000000E+00  0.00000000000E+00  0.26451474513E+03  0.26451474513E+03  0.00000000000E+00 0. -1.
          1   -1    0    0  501    0 -0.00000000000E+00 -0.00000000000E+00 -0.21745082378E+04  0.21745082378E+04  0.00000000000E+00 0. -1.
         25    2    1    2    0    0  0.23834027304E+03 -0.29266476018E+03 -0.32262967377E+03  0.51202741441E+03  0.12499367630E+03 0.  0.
          2    1    1    2  501    0 -0.19412242257E+03  0.25734019101E+03 -0.17371862572E+04  0.17668399987E+04  0.00000000000E+00 0. -1.
          1    1    1    2  502    0 -0.44217850462E+02  0.35324569170E+02  0.14982243836E+03  0.16015556975E+03  0.00000000000E+00 0. -1.
         22    1    3    3    0    0  0.24378911700E+03 -0.23376975934E+03 -0.28491121318E+03  0.44187762259E+03  0.00000000000E+00 0. -1.
         22    1    3    3    0    0 -0.54488439597E+01 -0.58895000836E+02 -0.37718460589E+02  0.70149791826E+02  0.00000000000E+00 0. -1.
</event>
<event>
 7    1  0.6122298E-006  0.7412624E+02  0.7818608E-02  0.1393434E+00
          2   -1    0    0  502    0  0.00000000000E+00  0.00000000000E+00  0.17482020542E+04  0.17482020542E+04  0.00000000000E+00 0. -1.
          1   -1    0    0  501    0 -0.00000000000E+00 -0.00000000000E+00 -0.37638377307E+02  0.37638377307E+02  0.00000000000E+00 0. -1.
         25    2    1    2    0    0  0.86235714905E+00 -0.66593499121E+02  0.62007350999E+03  0.63604429097E+03  0.12500297797E+03 0.  0.
          2    1    1    2  501    0  0.48732295371E+02  0.58211473425E+02  0.20516042326E+02  0.78640449154E+02  0.00000000000E+00 0. -1.
          1    1    1    2  502    0 -0.49594652520E+02  0.83820256954E+01  0.10699741245E+04  0.10711556913E+04  0.00000000000E+00 0. -1.
         22    1    3    3    0    0  0.10115940156E+02 -0.57069670468E+02  0.98393273555E+02  0.11419507789E+03  0.00000000000E+00 0. -1.
         22    1    3    3    0    0 -0.92535830072E+01 -0.95238286527E+01  0.52168023644E+03  0.52184921309E+03  0.00000000000E+00 0. -1.
</event>
<event>
 7    1  0.6122298E-006  0.7241903E+02  0.7818608E-02  0.1479312E+00
          2   -1    0    0  502    0  0.00000000000E+00  0.00000000000E+00  0.42856191056E+02  0.42856191056E+02  0.00000000000E+00 0. -1.
          1   -1    0    0  501    0 -0.00000000000E+00 -0.00000000000E+00 -0.16831292305E+04  0.16831292305E+04  0.00000000000E+00 0. -1.
         25    2    1    2    0    0  0.54284968231E+01  0.63155754943E+02 -0.74743277938E+03  0.76045928034E+03  0.12499775762E+03 0.  0.
          2    1    1    2  501    0 -0.26089098759E+02  0.69281534608E+01 -0.89204770305E+03  0.89245601847E+03  0.00000000000E+00 0. -1.
          1    1    1    2  502    0  0.20660601936E+02 -0.70083908404E+02 -0.79255700550E+00  0.73070122733E+02  0.00000000000E+00 0. -1.
         22    1    3    3    0    0 -0.60751410750E+01  0.10005185302E+03 -0.58229532331E+03  0.59085964846E+03  0.00000000000E+00 0.  1.
         22    1    3    3    0    0  0.11503637898E+02 -0.36896098073E+02 -0.16513745607E+03  0.16959963188E+03  0.00000000000E+00 0.  1.
</event>
<event>
 7    1  0.6852619E-006  0.8285694E+02  0.7818608E-02  0.1342752E+00
          2   -1    0    0  502    0  0.00000000000E+00  0.00000000000E+00  0.89340941468E+03  0.89340941468E+03  0.00000000000E+00 0. -1.
          1   -1    0    0  501    0 -0.00000000000E+00 -0.00000000000E+00 -0.69992773288E+03  0.69992773288E+03  0.00000000000E+00 0. -1.
         25    2    1    2    0    0 -0.66943922412E+02 -0.35642442277E+02 -0.82692683928E+02  0.16797687161E+03  0.12500510782E+03 0.  0.
          2    1    1    2  501    0  0.79129251249E+02 -0.31811936267E+02 -0.57003484453E+03  0.57637935569E+03  0.00000000000E+00 0. -1.
          1    1    1    2  502    0 -0.12185328837E+02  0.67454378544E+02  0.84620921026E+03  0.84898092025E+03  0.00000000000E+00 0. -1.
         22    1    3    3    0    0 -0.72528827335E+02  0.26175020191E+01 -0.10166133318E+03  0.12490920213E+03  0.00000000000E+00 0.  1.
         22    1    3    3    0    0  0.55849049229E+01 -0.38259944296E+02  0.18968649254E+02  0.43067669487E+02  0.00000000000E+00 0.  1.
</event>
<event>
 7    1  0.6122298E-006  0.1332753E+03  0.7818608E-02  0.1385818E+00
          2   -1    0    0  502    0  0.00000000000E+00  0.00000000000E+00  0.84882531483E+03  0.84882531483E+03  0.00000000000E+00 0. -1.
          1   -1    0    0  501    0 -0.00000000000E+00 -0.00000000000E+00 -0.30102461846E+03  0.30102461846E+03  0.00000000000E+00 0. -1.
         25    2    1    2    0    0 -0.34443155218E+02  0.15091546583E+03  0.28718312720E+02  0.20102289023E+03  0.12499460846E+03 0.  0.
          2    1    1    2  501    0  0.22380204960E+02 -0.19588148203E+02 -0.20788117094E+03  0.20999797702E+03  0.00000000000E+00 0. -1.
          1    1    1    2  502    0  0.12062950258E+02 -0.13132731762E+03  0.72696355458E+03  0.73882906603E+03  0.00000000000E+00 0. -1.
         22    1    3    3    0    0 -0.53724873489E+02  0.11356845282E+03  0.68547248924E+02  0.14311841546E+03  0.00000000000E+00 0. -1.
         22    1    3    3    0    0  0.19281718271E+02  0.37347013004E+02 -0.39828936204E+02  0.57904474775E+02  0.00000000000E+00 0. -1.
</event>
<event>
 7    1  0.6122298E-006  0.8760543E+02  0.7818608E-02  0.1461511E+00
          2   -1    0    0  502    0  0.00000000000E+00  0.00000000000E+00  0.13004686998E+03  0.13004686998E+03  0.00000000000E+00 0. -1.
          1   -1    0    0  501    0 -0.00000000000E+00 -0.00000000000E+00 -0.37370055888E+03  0.37370055888E+03  0.00000000000E+00 0. -1.
         25    2    1    2    0    0  0.64985435724E+02 -0.23050395234E+02 -0.56942537423E+02  0.15369145923E+03  0.12499673794E+03 0.  0.
          2    1    1    2  501    0 -0.79382305340E+02  0.43911598227E+02 -0.25848282786E+03  0.27394005030E+03  0.00000000000E+00 0. -1.
          1    1    1    2  502    0  0.14396869615E+02 -0.20861202993E+02  0.71771676380E+02  0.76115919330E+02  0.00000000000E+00 0. -1.
         22    1    3    3    0    0 -0.17063105633E+02 -0.40335568179E+02  0.11695944259E+02  0.45331035133E+02  0.00000000000E+00 0. -1.
         22    1    3    3    0    0  0.82048541357E+02  0.17285172945E+02 -0.68638481682E+02  0.10836042410E+03  0.00000000000E+00 0. -1.
</event>
<event>
 7    1  0.6122298E-006  0.6050817E+02  0.7818608E-02  0.1414625E+00
          2   -1    0    0  502    0  0.00000000000E+00  0.00000000000E+00  0.51816284699E+02  0.51816284699E+02  0.00000000000E+00 0. -1.
          1   -1    0    0  501    0 -0.00000000000E+00 -0.00000000000E+00 -0.16228663856E+04  0.16228663856E+04  0.00000000000E+00 0. -1.
         25    2    1    2    0    0  0.22855278142E+02 -0.10247387418E+03 -0.31333701661E+03  0.35330901595E+03  0.12499566450E+03 0.  0.
          2    1    1    2  501    0 -0.25879296225E+02  0.45277058403E+02 -0.12627954867E+04  0.12638719046E+04  0.00000000000E+00 0. -1.
          1    1    1    2  502    0  0.30240180830E+01  0.57196815774E+02  0.50824023360E+01  0.57501749830E+02  0.00000000000E+00 0. -1.
         22    1    3    3    0    0  0.67804186787E+01 -0.10146886996E+03 -0.32008102615E+03  0.33584783601E+03  0.00000000000E+00 0.  1.
         22    1    3    3    0    0  0.16074859463E+02 -0.10050042134E+01  0.67440095414E+01  0.17461179941E+02  0.00000000000E+00 0.  1.
</event>
<event>
 7    1  0.6122298E-006  0.5603794E+02  0.7818608E-02  0.1536227E+00
          2   -1    0    0  502    0  0.00000000000E+00  0.00000000000E+00  0.18855465196E+03  0.18855465196E+03  0.00000000000E+00 0. -1.
          1   -1    0    0  501    0 -0.00000000000E+00 -0.00000000000E+00 -0.25816753086E+03  0.25816753086E+03  0.00000000000E+00 0. -1.
         25    2    1    2    0    0  0.23427530255E+02  0.64774597984E+02  0.86417853446E+02  0.16684554965E+03  0.12499917730E+03 0.  0.
          2    1    1    2  501    0 -0.15276678793E+01 -0.55747260017E+02 -0.21194107154E+03  0.21915544386E+03  0.00000000000E+00 0. -1.
          1    1    1    2  502    0 -0.21899862376E+02 -0.90273379673E+01  0.55910339193E+02  0.60721189313E+02  0.00000000000E+00 0. -1.
         22    1    3    3    0    0  0.45122098880E+02 -0.23548499551E+02  0.22301953542E+02  0.55568991085E+02  0.00000000000E+00 0.  1.
         22    1    3    3    0    0 -0.21694568625E+02  0.88323097535E+02  0.64115899905E+02  0.11127655857E+03  0.00000000000E+00 0.  1.
</event>
<event>
 7    1  0.6122298E-006  0.7642537E+02  0.7818608E-02  0.1475158E+00
          2   -1    0    0  502    0  0.00000000000E+00  0.00000000000E+00  0.31664522907E+03  0.31664522907E+03  0.00000000000E+00 0. -1.
          1   -1    0    0  501    0 -0.00000000000E+00 -0.00000000000E+00 -0.26277673398E+03  0.26277673398E+03  0.00000000000E+00 0. -1.
         25    2    1    2    0    0  0.29654341936E+02  0.46453094624E+02 -0.33327868091E+02  0.14061518858E+03  0.12499845788E+03 0.  0.
          2    1    1    2  501    0  0.24571213772E+02  0.94979018831E+01 -0.16899147084E+03  0.17103237092E+03  0.00000000000E+00 0. -1.
          1    1    1    2  502    0 -0.54225555708E+02 -0.55950996507E+02  0.25618783402E+03  0.26777440356E+03  0.00000000000E+00 0. -1.
         22    1    3    3    0    0 -0.42981873686E+01 -0.38689889396E+02 -0.29552205392E+02  0.48874480045E+02  0.00000000000E+00 0.  1.
         22    1    3    3    0    0  0.33952529305E+02  0.85142984020E+02 -0.37756626998E+01  0.91740708537E+02  0.00000000000E+00 0.  1.
</event>
<event>
 7    1  0.6122298E-006  0.3662389E+03  0.7818608E-02  0.1313283E+00
          2   -1    0    0  502    0  0.00000000000E+00  0.00000000000E+00  0.66719374934E+03  0.66719374934E+03  0.00000000000E+00 0. -1.
          1   -1    0    0  501    0 -0.00000000000E+00 -0.00000000000E+00 -0.33543113709E+04  0.33543113709E+04  0.00000000000E+00 0. -1.
         25    2    1    2    0    0  0.36682708220E+03 -0.61858856701E+02 -0.25174491977E+03  0.46625201083E+03  0.12500722615E+03 0.  0.
          2    1    1    2  501    0 -0.35696424532E+03  0.79388142832E+02 -0.29839666553E+04  0.30062905631E+04  0.00000000000E+00 0. -1.
          1    1    1    2  502    0 -0.98628368811E+01 -0.17529286131E+02  0.54859395353E+03  0.54896254633E+03  0.00000000000E+00 0. -1.
         22    1    3    3    0    0  0.32586519206E+03 -0.54585081685E+02 -0.26395486310E+03  0.42289457823E+03  0.00000000000E+00 0. -1.
         22    1    3    3    0    0  0.40961890134E+02 -0.72737750167E+01  0.12209943324E+02  0.43357432608E+02  0.00000000000E+00 0. -1.
</event>
<event>
 7    1  0.6122298E-006  0.6115893E+02  0.7818608E-02  0.1495907E+00
          2   -1    0    0  502    0  0.00000000000E+00  0.00000000000E+00  0.89280616603E+02  0.89280616603E+02  0.00000000000E+00 0. -1.
          1   -1    0    0  501    0 -0.00000000000E+00 -0.00000000000E+00 -0.97132294012E+03  0.97132294012E+03  0.00000000000E+00 0. -1.
         25    2    1    2    0    0  0.12988669057E+02 -0.46423370937E+02 -0.45323230233E+02  0.14143100491E+03  0.12499879623E+03 0.  0.
          2    1    1    2  501    0 -0.41437327878E+02  0.45533059174E+02 -0.87181483639E+03  0.87398593843E+03  0.00000000000E+00 0. -1.
          1    1    1    2  502    0  0.28448658820E+02  0.89031176380E+00  0.35095743114E+02  0.45186613377E+02  0.00000000000E+00 0. -1.
         22    1    3    3    0    0  0.40937607656E+02 -0.50551443271E+02 -0.75792486674E+02  0.99879112800E+02  0.00000000000E+00 0.  1.
         22    1    3    3    0    0 -0.27948938598E+02  0.41280723336E+01  0.30469256441E+02  0.41551892112E+02  0.00000000000E+00 0.  1.
</event>
<event>
 7    1  0.6122298E-006  0.4950913E+02  0.7818608E-02  0.1504149E+00
          2   -1    0    0  502    0  0.00000000000E+00  0.00000000000E+00  0.32828304750E+03  0.32828304750E+03  0.00000000000E+00 0. -1.
          1   -1    0    0  501    0 -0.00000000000E+00 -0.00000000000E+00 -0.68236731729E+03  0.68236731729E+03  0.00000000000E+00 0. -1.
         25    2    1    2    0    0  0.19851377737E+02 -0.12763776498E+02  0.11652493532E+03  0.17250719266E+03  0.12499471901E+03 0.  0.
          2    1    1    2  501    0 -0.49670609611E+02 -0.18879508149E+01 -0.65192059644E+03  0.65381281563E+03  0.00000000000E+00 0. -1.
          1    1    1    2  502    0  0.29819231874E+02  0.14651727312E+02  0.18131139133E+03  0.18433035650E+03  0.00000000000E+00 0. -1.
         22    1    3    3    0    0  0.44116870691E+02  0.16366781580E+02 -0.29634565512E+01  0.47148190777E+02  0.00000000000E+00 0.  1.
         22    1    3    3    0    0 -0.24265492954E+02 -0.29130558077E+02  0.11948839187E+03  0.12535900188E+03  0.00000000000E+00 0.  1.
</event>
<event>
 7    1  0.6122298E-006  0.3372881E+02  0.7818608E-02  0.1560559E+00
          2   -1    0    0  502    0  0.00000000000E+00  0.00000000000E+00  0.76589387636E+03  0.76589387636E+03  0.00000000000E+00 0. -1.
          1   -1    0    0  501    0 -0.00000000000E+00 -0.00000000000E+00 -0.39538393231E+03  0.39538393231E+03  0.00000000000E+00 0. -1.
         25    2    1    2    0    0 -0.28924866225E+02  0.26564375406E+02  0.81600852201E+02  0.15435832496E+03  0.12500191790E+03 0.  0.
          2    1    1    2  501    0  0.33104678999E+02  0.68245455550E+01 -0.35777119188E+03  0.35936432758E+03  0.00000000000E+00 0. -1.
          1    1    1    2  502    0 -0.41798127745E+01 -0.33388920961E+02  0.64668028373E+03  0.64755515614E+03  0.00000000000E+00 0. -1.
         22    1    3    3    0    0 -0.38272588234E+02 -0.40749891219E+01 -0.23084947270E+02  0.44881079944E+02  0.00000000000E+00 0. -1.
         22    1    3    3    0    0  0.93477220094E+01  0.30639364528E+02  0.10468579947E+03  0.10947724502E+03  0.00000000000E+00 0. -1.
</event>
<event>
 7    1  0.6122298E-006  0.3681435E+03  0.7818608E-02  0.1111043E+00
          2   -1    0    0  502    0  0.00000000000E+00  0.00000000000E+00  0.18704478562E+04  0.18704478562E+04  0.00000000000E+00 0. -1.
          1   -1    0    0  501    0 -0.00000000000E+00 -0.00000000000E+00 -0.10455441684E+04  0.10455441684E+04  0.00000000000E+00 0. -1.
         25    2    1    2    0    0  0.45554960796E+03  0.23460547739E+03  0.32244084299E+03  0.61818868789E+03  0.12499592503E+03 0.  0.
          2    1    1    2  501    0 -0.12771022304E+03 -0.11922353352E+03 -0.86725576784E+03  0.88467887896E+03  0.00000000000E+00 0. -1.
          1    1    1    2  502    0 -0.32783938493E+03 -0.11538194387E+03  0.13697186127E+04  0.14131244578E+04  0.00000000000E+00 0. -1.
         22    1    3    3    0    0  0.31555737338E+03  0.11644142756E+03  0.15638308025E+03  0.37093224413E+03  0.00000000000E+00 0.  1.
         22    1    3    3    0    0  0.13999223458E+03  0.11816404983E+03  0.16605776273E+03  0.24725644376E+03  0.00000000000E+00 0.  1.
</event>
<event>
 7    1  0.6122298E-006  0.1661479E+03  0.7818608E-02  0.1264100E+00
          2   -1    0    0  502    0  0.00000000000E+00  0.00000000000E+00  0.72042363748E+03  0.72042363748E+03  0.00000000000E+00 0. -1.
          1   -1    0    0  501    0 -0.00000000000E+00 -0.00000000000E+00 -0.54171950056E+03  0.54171950056E+03  0.00000000000E+00 0. -1.
         25    2    1    2    0    0 -0.70157523769E+02 -0.95567030880E+02  0.14904126749E+03  0.22780040298E+03  0.12499835458E+03 0.  0.
          2    1    1    2  501    0 -0.58405249547E+02 -0.39222046905E+02 -0.48341058100E+03  0.48850315450E+03  0.00000000000E+00 0. -1.
          1    1    1    2  502    0  0.12856277332E+03  0.13478907779E+03  0.51307345043E+03  0.54583958056E+03  0.00000000000E+00 0. -1.
         22    1    3    3    0    0  0.22791463296E+02 -0.60844227225E+02  0.94189847245E+02  0.11442551337E+03  0.00000000000E+00 0. -1.
         22    1    3    3    0    0 -0.92948987065E+02 -0.34722803656E+02  0.54851420247E+02  0.11337488961E+03  0.00000000000E+00 0. -1.
</event>
<event>
 7    1  0.6122298E-006  0.2029047E+03  0.7818608E-02  0.1279607E+00
          2   -1    0    0  502    0  0.00000000000E+00  0.00000000000E+00  0.16153968958E+03  0.16153968958E+03  0.00000000000E+00 0. -1.
          1   -1    0    0  501    0 -0.00000000000E+00 -0.00000000000E+00 -0.10219789606E+04  0.10219789606E+04  0.00000000000E+00 0. -1.
         25    2    1    2    0    0 -0.22385593448E+03 -0.84495971385E+02 -0.38193709769E+03  0.46771009186E+03  0.12500293941E+03 0.  0.
          2    1    1    2  501    0  0.33711552881E+02  0.36393736841E+02 -0.51408460742E+03  0.51647260960E+03  0.00000000000E+00 0. -1.
          1    1    1    2  502    0  0.19014438160E+03  0.48102234543E+02  0.35582434125E+02  0.19933594869E+03  0.00000000000E+00 0. -1.
         22    1    3    3    0    0 -0.56111080123E+02 -0.45502738898E+02 -0.21908190778E+03  0.23068557579E+03  0.00000000000E+00 0. -1.
         22    1    3    3    0    0 -0.16774485435E+03 -0.38993232486E+02 -0.16285518991E+03  0.23702451608E+03  0.00000000000E+00 0. -1.
</event>
<event>
 7    1  0.6122298E-006  0.1478089E+03  0.7818608E-02  0.1224324E+00
          2   -1    0    0  502    0  0.00000000000E+00  0.00000000000E+00  0.62539648329E+03  0.62539648329E+03  0.00000000000E+00 0. -1.
          1   -1    0    0  501    0 -0.00000000000E+00 -0.00000000000E+00 -0.26611837397E+04  0.26611837397E+04  0.00000000000E+00 0. -1.
         25    2    1    2    0    0 -0.17663173693E+03  0.11888051196E+03 -0.17474172458E+03  0.30247454971E+03  0.12499934518E+03 0.  0.
          2    1    1    2  501    0  0.14655204774E+03 -0.46543093874E+01 -0.24141147617E+04  0.24185634678E+04  0.00000000000E+00 0. -1.
          1    1    1    2  502    0  0.30079689187E+02 -0.11422620257E+03  0.55306922990E+03  0.56554220542E+03  0.00000000000E+00 0. -1.
         22    1    3    3    0    0  0.14034649383E+02  0.34536420561E+02 -0.37449730019E+02  0.52841442136E+02  0.00000000000E+00 0.  1.
         22    1    3    3    0    0 -0.19066638631E+03  0.84344091395E+02 -0.13729199457E+03  0.24963310757E+03  0.00000000000E+00 0.  1.
</event>
<event>
 7    1  0.6122298E-006  0.3502608E+02  0.7818608E-02  0.1585020E+00
          2   -1    0    0  502    0  0.00000000000E+00  0.00000000000E+00  0.55021978642E+02  0.55021978642E+02  0.00000000000E+00 0. -1.
          1   -1    0    0  501    0 -0.00000000000E+00 -0.00000000000E+00 -0.68152782260E+03  0.68152782260E+03  0.00000000000E+00 0. -1.
         25    2    1    2    0    0 -0.55017988587E+02  0.17895693994E+01 -0.12020207498E+03  0.18194483614E+03  0.12500081176E+03 0.  0.
          2    1    1    2  501    0  0.30962877210E+02 -0.15766737406E+02 -0.52166767319E+03  0.52282353717E+03  0.00000000000E+00 0. -1.
          1    1    1    2  502    0  0.24055111377E+02  0.13977168007E+02  0.15363904208E+02  0.31781427932E+02  0.00000000000E+00 0. -1.
         22    1    3    3    0    0  0.37761536297E+02 -0.17567423392E+02 -0.32700564215E+02  0.52951627814E+02  0.00000000000E+00 0. -1.
         22    1    3    3    0    0 -0.92779524884E+02  0.19356992792E+02 -0.87501510762E+02  0.12899320832E+03  0.00000000000E+00 0. -1.
</event>
<event>
 7    1  0.6122298E-006  0.9176123E+02  0.7818608E-02  0.1436040E+00
          2   -1    0    0  502    0  0.00000000000E+00  0.00000000000E+00  0.15447500204E+04  0.15447500204E+04  0.00000000000E+00 0. -1.
          1   -1    0    0  501    0 -0.00000000000E+00 -0.00000000000E+00 -0.10382998513E+03  0.10382998513E+03  0.00000000000E+00 0. -1.
         25    2    1    2    0    0  0.11175249407E+03 -0.28373092825E+02  0.30522858755E+03  0.34940127219E+03  0.12499242387E+03 0.  0.
          2    1    1    2  501    0 -0.22176439616E+02  0.19001720009E+02 -0.77411542186E+02  0.82736972999E+02  0.00000000000E+00 0. -1.
          1    1    1    2  502    0 -0.89576054455E+02  0.93713728153E+01  0.12131029899E+04  0.12164417603E+04  0.00000000000E+00 0. -1.
         22    1    3    3    0    0  0.52239509605E+02  0.57301353032E+01  0.26441180621E+03  0.26958376078E+03  0.00000000000E+00 0.  1.
         22    1    3    3    0    0  0.59512984467E+02 -0.34103228128E+02  0.40816781342E+02  0.79817511412E+02  0.00000000000E+00 0.  1.
</event>
<event>
 7    1  0.6122298E-006  0.1422014E+03  0.7818608E-02  0.1246840E+00
          2   -1    0    0  502    0  0.00000000000E+00  0.00000000000E+00  0.60296798060E+03  0.60296798060E+03  0.00000000000E+00 0. -1.
          1   -1    0    0  501    0 -0.00000000000E+00 -0.00000000000E+00 -0.66623394152E+03  0.66623394152E+03  0.00000000000E+00 0. -1.
         25    2    1    2    0    0  0.17349113977E+02 -0.72171030935E+02 -0.49356569767E+02  0.15352216239E+03  0.12499333544E+03 0.  0.
          2    1    1    2  501    0 -0.10146596233E+03  0.12150840578E+03 -0.54920991793E+03  0.57156904057E+03  0.00000000000E+00 0. -1.
          1    1    1    2  502    0  0.84116848352E+02 -0.49337374840E+02  0.53530052678E+03  0.54411071916E+03  0.00000000000E+00 0. -1.
         22    1    3    3    0    0  0.65226624658E+02 -0.25553784775E+02 -0.51043154037E+02  0.86677056103E+02  0.00000000000E+00 0.  1.
         22    1    3    3    0    0 -0.47877510681E+02 -0.46617246160E+02  0.16865842704E+01  0.66845106291E+02  0.00000000000E+00 0.  1.
</event>
<event>
 7    1  0.6122298E-006  0.1490727E+03  0.7818608E-02  0.1254800E+00
          2   -1    0    0  502    0  0.00000000000E+00  0.00000000000E+00  0.18598508631E+03  0.18598508631E+03  0.00000000000E+00 0. -1.
          1   -1    0    0  501    0 -0.00000000000E+00 -0.00000000000E+00 -0.91333542109E+03  0.91333542109E+03  0.00000000000E+00 0. -1.
         25    2    1    2    0    0  0.27793144506E+02  0.21211302944E+03 -0.13799737388E+03  0.28360679867E+03  0.12500057967E+03 0.  0.
          2    1    1    2  501    0  0.19446387033E+02 -0.83692517416E+02 -0.65733247113E+03  0.66292426191E+03  0.00000000000E+00 0. -1.
          1    1    1    2  502    0 -0.47239531538E+02 -0.12842051202E+03  0.67979510217E+02  0.15278944681E+03  0.00000000000E+00 0. -1.
         22    1    3    3    0    0 -0.34802930146E+02  0.13397897851E+03 -0.11714800478E+03  0.18134295038E+03  0.00000000000E+00 0.  1.
         22    1    3    3    0    0  0.62596074652E+02  0.78134050926E+02 -0.20849369101E+02  0.10226384829E+03  0.00000000000E+00 0.  1.
</event>
<event>
 7    1  0.6122298E-006  0.8887292E+02  0.7818608E-02  0.1315938E+00
          2   -1    0    0  502    0  0.00000000000E+00  0.00000000000E+00  0.61426925331E+03  0.61426925331E+03  0.00000000000E+00 0. -1.
          1   -1    0    0  501    0 -0.00000000000E+00 -0.00000000000E+00 -0.34081770538E+03  0.34081770538E+03  0.00000000000E+00 0. -1.
         25    2    1    2    0    0 -0.46896969240E+02  0.25717835138E+02 -0.33418186976E+02  0.14001692505E+03  0.12500892493E+03 0.  0.
          2    1    1    2  501    0  0.89296552540E+02  0.43213495899E+02 -0.24133253531E+03  0.26092656653E+03  0.00000000000E+00 0. -1.
          1    1    1    2  502    0 -0.42399583300E+02 -0.68931331037E+02  0.54820227022E+03  0.55414346711E+03  0.00000000000E+00 0. -1.
         22    1    3    3    0    0  0.33611763659E+02 -0.74362022648E+01  0.18054821111E+02  0.38871896348E+02  0.00000000000E+00 0.  1.
         22    1    3    3    0    0 -0.80508732898E+02  0.33154037403E+02 -0.51473008088E+02  0.10114502870E+03  0.00000000000E+00 0.  1.
</event>
<event>
 7    1  0.6122298E-006  0.4285296E+02  0.7818608E-02  0.1599721E+00
          2   -1    0    0  502    0  0.00000000000E+00  0.00000000000E+00  0.22298997964E+03  0.22298997964E+03  0.00000000000E+00 0. -1.
          1   -1    0    0  501    0 -0.00000000000E+00 -0.00000000000E+00 -0.72294192160E+02  0.72294192160E+02  0.00000000000E+00 0. -1.
         25    2    1    2    0    0  0.14719603351E+02 -0.41798470875E+02  0.12337141604E+03  0.18113569128E+03  0.12500341383E+03 0.  0.
          2    1    1    2  501    0  0.16961924229E+02  0.12032745153E+02 -0.33473827024E+02  0.39408005851E+02  0.00000000000E+00 0. -1.
          1    1    1    2  502    0 -0.31681527580E+02  0.29765725721E+02  0.60798198462E+02  0.74740474670E+02  0.00000000000E+00 0. -1.
         22    1    3    3    0    0  0.67837869253E+02 -0.57971052156E+01  0.56727403193E+02  0.88620433347E+02  0.00000000000E+00 0. -1.
         22    1    3    3    0    0 -0.53118265902E+02 -0.36001365659E+02  0.66644012850E+02  0.92515257934E+02  0.00000000000E+00 0. -1.
</event>
<event>
 7    1  0.6122298E-006  0.6897530E+02  0.7818608E-02  0.1385826E+00
          2   -1    0    0  502    0  0.00000000000E+00  0.00000000000E+00  0.47528004659E+03  0.47528004659E+03  0.00000000000E+00 0. -1.
          1   -1    0    0  501    0 -0.00000000000E+00 -0.00000000000E+00 -0.32202212118E+04  0.32202212118E+04  0.00000000000E+00 0. -1.
         25    2    1    2    0    0 -0.54586418514E+02  0.65202687082E+02 -0.20124180721E+03  0.25167357455E+03  0.12494100876E+03 0.  0.
          2    1    1    2  501    0 -0.27507784958E+01 -0.69009486810E+02 -0.29915291247E+04  0.29923262489E+04  0.00000000000E+00 0. -1.
          1    1    1    2  502    0  0.57337197010E+02  0.38067997288E+01  0.44782976665E+03  0.45150143497E+03  0.00000000000E+00 0. -1.
         22    1    3    3    0    0 -0.35009467294E+02  0.98151519093E+02 -0.10433185996E+03  0.14746023364E+03  0.00000000000E+00 0. -1.
         22    1    3    3    0    0 -0.19576951220E+02 -0.32948832012E+02 -0.96909947244E+02  0.10421334092E+03  0.00000000000E+00 0. -1.
</event>
<event>
 7    1  0.6122298E-006  0.1776384E+03  0.7818608E-02  0.1303430E+00
          2   -1    0    0  502    0  0.00000000000E+00  0.00000000000E+00  0.57659813154E+03  0.57659813154E+03  0.00000000000E+00 0. -1.
          1   -1    0    0  501    0 -0.00000000000E+00 -0.00000000000E+00 -0.89908857431E+03  0.89908857431E+03  0.00000000000E+00 0. -1.
         25    2    1    2    0    0  0.10654419269E+03  0.12346735011E+03 -0.10089114851E+02  0.20570755828E+03  0.12497182785E+03 0.  0.
          2    1    1    2  501    0 -0.25135399477E+02  0.37755536671E+02 -0.77346952408E+03  0.77479827925E+03  0.00000000000E+00 0. -1.
          1    1    1    2  502    0 -0.81408793214E+02 -0.16122288678E+03  0.46106819616E+03  0.49518086832E+03  0.00000000000E+00 0. -1.
         22    1    3    3    0    0  0.86608254094E+02  0.10527194840E+03 -0.60020099823E+02  0.14894826343E+03  0.00000000000E+00 0.  1.
         22    1    3    3    0    0  0.19935938598E+02  0.18195401711E+02  0.49930984972E+02  0.56759294847E+02  0.00000000000E+00 0.  1.
</event>
<event>
 7    1  0.6122298E-006  0.1779674E+03  0.7818608E-02  0.1275225E+00
          2   -1    0    0  502    0  0.00000000000E+00  0.00000000000E+00  0.13248595932E+03  0.13248595932E+03  0.00000000000E+00 0. -1.
          1   -1    0    0  501    0 -0.00000000000E+00 -0.00000000000E+00 -0.21239723900E+04  0.21239723900E+04  0.00000000000E+00 0. -1.
         25    2    1    2    0    0 -0.94081640936E+02  0.14123429626E+03 -0.28827487934E+03  0.35710842552E+03  0.12500215966E+03 0.  0.
          2    1    1    2  501    0  0.14345494579E+03 -0.10897504862E+03 -0.17874565810E+04  0.17965121519E+04  0.00000000000E+00 0. -1.
          1    1    1    2  502    0 -0.49373304854E+02 -0.32259247642E+02  0.84245029741E+02  0.10283777189E+03  0.00000000000E+00 0. -1.
         22    1    3    3    0    0  0.20412584353E+02  0.76220409440E+02 -0.11559078821E+03  0.13995518831E+03  0.00000000000E+00 0.  1.
         22    1    3    3    0    0 -0.11449422529E+03  0.65013886818E+02 -0.17268409113E+03  0.21715323722E+03  0.00000000000E+00 0.  1.
</event>
<event>
 7    1  0.6122298E-006  0.5555261E+02  0.7818608E-02  0.1526951E+00
          2   -1    0    0  502    0  0.00000000000E+00  0.00000000000E+00  0.76991674273E+03  0.76991674273E+03  0.00000000000E+00 0. -1.
          1   -1    0    0  501    0 -0.00000000000E+00 -0.00000000000E+00 -0.77453344411E+02  0.77453344411E+02  0.00000000000E+00 0. -1.
         25    2    1    2    0    0 -0.71909000657E+02  0.13733280531E+02  0.20468634942E+03  0.25075947190E+03  0.12499721492E+03 0.  0.
          2    1    1    2  501    0  0.48871849238E+02 -0.24429181172E+02 -0.40319491551E+02  0.67903637160E+02  0.00000000000E+00 0. -1.
          1    1    1    2  502    0  0.23037151419E+02  0.10695900641E+02  0.52809654045E+03  0.52870697808E+03  0.00000000000E+00 0. -1.
         22    1    3    3    0    0 -0.62599822954E+02 -0.24656675211E+02  0.19995956024E+03  0.21097515303E+03  0.00000000000E+00 0.  1.
         22    1    3    3    0    0 -0.93091777032E+01  0.38389955742E+02  0.47267891751E+01  0.39784318862E+02  0.00000000000E+00 0.  1.
</event>
<event>
 7    1  0.6122298E-006  0.9383679E+02  0.7818608E-02  0.1426785E+00
          2   -1    0    0  502    0  0.00000000000E+00  0.00000000000E+00  0.51384416549E+03  0.51384416549E+03  0.00000000000E+00 0. -1.
          1   -1    0    0  501    0 -0.00000000000E+00 -0.00000000000E+00 -0.14076443898E+04  0.14076443898E+04  0.00000000000E+00 0. -1.
         25    2    1    2    0    0 -0.68937573182E+02  0.56766145317E+02 -0.64970658621E+02  0.16679716094E+03  0.12500128865E+03 0.  0.
          2    1    1    2  501    0 -0.19314164500E+02 -0.23771796010E+02 -0.12867824443E+04  0.12871469202E+04  0.00000000000E+00 0. -1.
          1    1    1    2  502    0  0.88251737682E+02 -0.32994349307E+02  0.45795287861E+03  0.46754447416E+03  0.00000000000E+00 0. -1.
         22    1    3    3    0    0 -0.41582063242E+02  0.95880453787E+02 -0.54759247171E+02  0.11798603541E+03  0.00000000000E+00 0.  1.
         22    1    3    3    0    0 -0.27355509940E+02 -0.39114308470E+02 -0.10211411450E+02  0.48811125524E+02  0.00000000000E+00 0.  1.
</event>
<event>
 7    1  0.6122298E-006  0.5373492E+02  0.7818608E-02  0.1429470E+00
          2   -1    0    0  502    0  0.00000000000E+00  0.00000000000E+00  0.30953927422E+04  0.30953927422E+04  0.00000000000E+00 0. -1.
          1   -1    0    0  501    0 -0.00000000000E+00 -0.00000000000E+00 -0.43612900436E+03  0.43612900436E+03  0.00000000000E+00 0. -1.
         25    2    1    2    0    0 -0.26345472213E+02  0.10217228006E+03  0.16694768033E+03  0.23372967693E+03  0.12499910076E+03 0.  0.
          2    1    1    2  501    0  0.95546515216E+01 -0.51527924658E+02 -0.40078614587E+03  0.40419791329E+03  0.00000000000E+00 0. -1.
          1    1    1    2  502    0  0.16790820692E+02 -0.50644355407E+02  0.28931022034E+04  0.28935941564E+04  0.00000000000E+00 0. -1.
         22    1    3    3    0    0  0.11549842728E+01  0.36599327573E+02 -0.14085040709E+02  0.39233061813E+02  0.00000000000E+00 0. -1.
         22    1    3    3    0    0 -0.27500456486E+02  0.65572952492E+02  0.18103272104E+03  0.19449661511E+03  0.00000000000E+00 0. -1.
</event>
<event>
 7    1  0.6122298E-006  0.1260689E+03  0.7818608E-02  0.1364472E+00
          2   -1    0    0  502    0  0.00000000000E+00  0.00000000000E+00  0.24776734992E+04  0.24776734992E+04  0.00000000000E+00 0. -1.
          1   -1    0    0  501    0 -0.00000000000E+00 -0.00000000000E+00 -0.34684921404E+02  0.34684921404E+02  0.00000000000E+00 0. -1.
         25    2    1    2    0    0 -0.14270840866E+03 -0.87045399878E+01  0.82091251025E+03  0.84259357763E+03  0.12500051465E+03 0.  0.
          2    1    1    2  501    0  0.21534021700E+02  0.30661711109E+02 -0.52075134415E+01  0.37828201318E+02  0.00000000000E+00 0. -1.
          1    1    1    2  502    0  0.12117438696E+03 -0.21957171121E+02  0.16272835809E+04  0.16319366416E+04  0.00000000000E+00 0. -1.
         22    1    3    3    0    0  0.20514765972E+02  0.13605044648E+02  0.13021815933E+03  0.13252441995E+03  0.00000000000E+00 0.  1.
         22    1    3    3    0    0 -0.16322317464E+03 -0.22309584636E+02  0.69069435092E+03  0.71006915769E+03  0.00000000000E+00 0.  1.
</event>
<event>
 7    1  0.6122298E-006  0.3466047E+02  0.7818608E-02  0.1611354E+00
          2   -1    0    0  502    0  0.00000000000E+00  0.00000000000E+00  0.46756283034E+02  0.46756283034E+02  0.00000000000E+00 0. -1.
          1   -1    0    0  501    0 -0.00000000000E+00 -0.00000000000E+00 -0.88799394119E+03  0.88799394119E+03  0.00000000000E+00 0. -1.
         25    2    1    2    0    0 -0.37168888663E+02 -0.32481723321E+02 -0.36175476130E+03  0.38590867201E+03  0.12498962827E+03 0.  0.
          2    1    1    2  501    0  0.38794018711E+01  0.23670126697E+02 -0.50525843733E+03  0.50582745393E+03  0.00000000000E+00 0. -1.
          1    1    1    2  502    0  0.33289486792E+02  0.88115966236E+01  0.25775540463E+02  0.43014098294E+02  0.00000000000E+00 0. -1.
         22    1    3    3    0    0  0.10251740998E+02 -0.18987738803E+02 -0.79062521490E+00  0.21592996702E+02  0.00000000000E+00 0. -1.
         22    1    3    3    0    0 -0.47420629661E+02 -0.13493984518E+02 -0.36096413608E+03  0.36431567531E+03  0.00000000000E+00 0. -1.
</event>
<event>
 7    1  0.6122298E-006  0.9196969E+02  0.7818608E-02  0.1348206E+00
          2   -1    0    0  502    0  0.00000000000E+00  0.00000000000E+00  0.12855813154E+04  0.12855813154E+04  0.00000000000E+00 0. -1.
          1   -1    0    0  501    0 -0.00000000000E+00 -0.00000000000E+00 -0.78527464829E+03  0.78527464829E+03  0.00000000000E+00 0. -1.
         25    2    1    2    0    0 -0.25053366870E+02  0.62264491688E+02  0.73362973110E+03  0.74722371633E+03  0.12500464703E+03 0.  0.
          2    1    1    2  501    0  0.20444793042E+02  0.55267361941E+02 -0.77099569423E+03  0.77324435425E+03  0.00000000000E+00 0. -1.
          1    1    1    2  502    0  0.46085738277E+01 -0.11753185363E+03  0.53767263026E+03  0.55038789312E+03  0.00000000000E+00 0. -1.
         22    1    3    3    0    0 -0.53018812850E+02  0.88193324553E+02  0.49707424960E+03  0.50761389522E+03  0.00000000000E+00 0.  1.
         22    1    3    3    0    0  0.27965445980E+02 -0.25928832864E+02  0.23655548150E+03  0.23960982111E+03  0.00000000000E+00 0.  1.
</event>
<event>
 7    1  0.6122298E-006  0.9619280E+02  0.7818608E-02  0.1446561E+00
          2   -1    0    0  502    0  0.00000000000E+00  0.00000000000E+00  0.84533832456E+03  0.84533832456E+03  0.00000000000E+00 0. -1.
          1   -1    0    0  501    0 -0.00000000000E+00 -0.00000000000E+00 -0.88298175160E+03  0.88298175160E+03  0.00000000000E+00 0. -1.
         25    2    1    2    0    0 -0.58692940661E+02  0.90813904858E+02 -0.25140022936E+03  0.30085982885E+03  0.12499013840E+03 0.  0.
          2    1    1    2  501    0 -0.10085440902E+02 -0.23698907205E+02 -0.60376280370E+03  0.60431190411E+03  0.00000000000E+00 0. -1.
          1    1    1    2  502    0  0.68778381563E+02 -0.67114997653E+02  0.81751960602E+03  0.82314834320E+03  0.00000000000E+00 0. -1.
         22    1    3    3    0    0  0.20501228434E+02  0.57146735676E+02 -0.17693154402E+03  0.18705833591E+03  0.00000000000E+00 0.  1.
         22    1    3    3    0    0 -0.79194169095E+02  0.33667169182E+02 -0.74468685338E+02  0.11380149294E+03  0.00000000000E+00 0.  1.
</event>
<event>
 7    1  0.6122298E-006  0.5283344E+02  0.7818608E-02  0.1434204E+00
          2   -1    0    0  502    0  0.00000000000E+00  0.00000000000E+00  0.76499617828E+03  0.76499617828E+03  0.00000000000E+00 0. -1.
          1   -1    0    0  501    0 -0.00000000000E+00 -0.00000000000E+00 -0.84459650937E+03  0.84459650937E+03  0.00000000000E+00 0. -1.
         25    2    1    2    0    0  0.77474128377E+02  0.68703496005E+02  0.28026889538E+02  0.16472208660E+03  0.12500179336E+03 0.  0.
          2    1    1    2  501    0 -0.36712866012E+02 -0.37347084452E+02 -0.77437430949E+03  0.77614316363E+03  0.00000000000E+00 0. -1.
          1    1    1    2  502    0 -0.40761262365E+02 -0.31356411553E+02  0.66674708886E+03  0.66872743742E+03  0.00000000000E+00 0. -1.
         22    1    3    3    0    0  0.60644725321E+02 -0.25607074740E+02  0.39787513099E+01  0.65949491644E+02  0.00000000000E+00 0.  1.
         22    1    3    3    0    0  0.16829403056E+02  0.94310570745E+02  0.24048138228E+02  0.98772594953E+02  0.00000000000E+00 0.  1.
</event>
<event>
 7    1  0.6122298E-006  0.3791647E+02  0.7818608E-02  0.1564738E+00
          2   -1    0    0  502    0  0.00000000000E+00  0.00000000000E+00  0.18312857853E+04  0.18312857853E+04  0.00000000000E+00 0. -1.
          1   -1    0    0  501    0 -0.00000000000E+00 -0.00000000000E+00 -0.12074768616E+03  0.12074768616E+03  0.00000000000E+00 0. -1.
         25    2    1    2    0    0  0.29740966598E+02 -0.23772686889E+02  0.15670263939E+03  0.20403387278E+03  0.12499775323E+03 0.  0.
          2    1    1    2  501    0 -0.25563790439E+02 -0.14014841705E+02 -0.94669284209E+02  0.99056532053E+02  0.00000000000E+00 0. -1.
          1    1    1    2  502    0 -0.41771761592E+01  0.37787528594E+02  0.16485047440E+04  0.16489430667E+04  0.00000000000E+00 0. -1.
         22    1    3    3    0    0 -0.18117623229E+02 -0.63638293721E+02  0.61948429166E+02  0.90640435653E+02  0.00000000000E+00 0.  1.
         22    1    3    3    0    0  0.47858589828E+02  0.39865606832E+02  0.94754210221E+02  0.11339343712E+03  0.00000000000E+00 0.  1.
</event>
<event>
 7    1  0.6122298E-006  0.6869920E+02  0.7818608E-02  0.1470191E+00
          2   -1    0    0  502    0  0.00000000000E+00  0.00000000000E+00  0.20914784678E+03  0.20914784678E+03  0.00000000000E+00 0. -1.
          1   -1    0    0  501    0 -0.00000000000E+00 -0.00000000000E+00 -0.13087054472E+03  0.13087054472E+03  0.00000000000E+00 0. -1.
         25    2    1    2    0    0 -0.60025232975E+02 -0.44649057648E+02  0.93553395988E+02  0.17311797264E+03  0.12498410942E+03 0.  0.
          2    1    1    2  501    0  0.33723348977E+02  0.59818823732E+02 -0.73900130739E+02  0.10088005384E+03  0.00000000000E+00 0. -1.
          1    1    1    2  502    0  0.26301883998E+02 -0.15169766084E+02  0.58624036815E+02  0.66020365020E+02  0.00000000000E+00 0. -1.
         22    1    3    3    0    0 -0.88151576900E+02 -0.29963592123E+02  0.10411905235E+03  0.13967567585E+03  0.00000000000E+00 0.  1.
         22    1    3    3    0    0  0.28126343926E+02 -0.14685465525E+02 -0.10565656358E+02  0.33442296790E+02  0.00000000000E+00 0.  1.
</event>
<event>
 7    1  0.6122298E-006  0.5121833E+02  0.7818608E-02  0.1530413E+00
          2   -1    0    0  502    0  0.00000000000E+00  0.00000000000E+00  0.67158133286E+03  0.67158133286E+03  0.00000000000E+00 0. -1.
          1   -1    0    0  501    0 -0.00000000000E+00 -0.00000000000E+00 -0.82255917111E+02  0.82255917111E+02  0.00000000000E+00 0. -1.
         25    2    1    2    0    0 -0.29158668280E+02 -0.51009617439E+02  0.15440408235E+03  0.20716503304E+03  0.12499808503E+03 0.  0.
          2    1    1    2  501    0  0.42877824705E+02  0.27841591872E+02 -0.43723209882E+02  0.67270953403E+02  0.00000000000E+00 0. -1.
          1    1    1    2  502    0 -0.13719156425E+02  0.23168025567E+02  0.47864454328E+03  0.47940126353E+03  0.00000000000E+00 0. -1.
         22    1    3    3    0    0 -0.39715047708E+02 -0.64873554778E+02  0.30355009585E+02  0.81898044732E+02  0.00000000000E+00 0. -1.
         22    1    3    3    0    0  0.10556379428E+02  0.13863937339E+02  0.12404907277E+03  0.12526698831E+03  0.00000000000E+00 0. -1.
</event>
<event>
 7    1  0.6122298E-006  0.6637569E+02  0.7818608E-02  0.1482051E+00
          2   -1    0    0  502    0  0.00000000000E+00  0.00000000000E+00  0.46247773127E+03  0.46247773127E+03  0.00000000000E+00 0. -1.
          1   -1    0    0  501    0 -0.00000000000E+00 -0.00000000000E+00 -0.15365076839E+04  0.15365076839E+04  0.00000000000E+00 0. -1.
         25    2    1    2    0    0 -0.44827464618E+02 -0.64953247275E+01 -0.47244138978E+02  0.14109725543E+03  0.12499894397E+03 0.  0.
          2    1    1    2  501    0 -0.20859205806E+02  0.19984311417E+02 -0.14394858737E+04  0.14397756977E+04  0.00000000000E+00 0. -1.
          1    1    1    2  502    0  0.65686670424E+02 -0.13488986690E+02  0.41270005999E+03  0.41811246208E+03  0.00000000000E+00 0. -1.
         22    1    3    3    0    0  0.21515976445E+02  0.18369285180E+01  0.31249666992E+02  0.37984908002E+02  0.00000000000E+00 0. -1.
         22    1    3    3    0    0 -0.66343441063E+02 -0.83322532455E+01 -0.78493805970E+02  0.10311234743E+03  0.00000000000E+00 0. -1.
</event>
<event>
 7    1  0.6122298E-006  0.4524952E+02  0.7818608E-02  0.1544530E+00
          2   -1    0    0  502    0  0.00000000000E+00  0.00000000000E+00  0.69541482802E+03  0.69541482802E+03  0.00000000000E+00 0. -1.
          1   -1    0    0  501    0 -0.00000000000E+00 -0.00000000000E+00 -0.48035533862E+03  0.48035533862E+03  0.00000000000E+00 0. -1.
         25    2    1    2    0    0 -0.13333899514E+02 -0.61820246346E+02 -0.25590701703E+03  0.29173705977E+03  0.12499029939E+03 0.  0.
          2    1    1    2  501    0  0.24033434546E+02  0.36169711567E+02 -0.20396139215E+03  0.20853321917E+03  0.00000000000E+00 0. -1.
          1    1    1    2  502    0 -0.10699535032E+02  0.25650534779E+02  0.67492789859E+03  0.67549988770E+03  0.00000000000E+00 0. -1.
         22    1    3    3    0    0 -0.27769467862E+02 -0.96761145331E+02 -0.16503014227E+03  0.19331014057E+03  0.00000000000E+00 0.  1.
         22    1    3    3    0    0  0.14435568347E+02  0.34940898985E+02 -0.90876874765E+02  0.98426919196E+02  0.00000000000E+00 0.  1.
</event>
<event>
 7    1  0.6122298E-006  0.1049578E+03  0.7818608E-02  0.1453765E+00
          2   -1    0    0  502    0  0.00000000000E+00  0.00000000000E+00  0.10025646202E+04  0.10025646202E+04  0.00000000000E+00 0. -1.
          1   -1    0    0  501    0 -0.00000000000E+00 -0.00000000000E+00 -0.12721550196E+04  0.12721550196E+04  0.00000000000E+00 0. -1.
         25    2    1    2    0    0 -0.42079147401E+02  0.11186295656E+03  0.38919690911E+03  0.42589128116E+03  0.12500069445E+03 0.  0.
          2    1    1    2  501    0  0.18202759624E+02 -0.13028666253E+02 -0.12493631680E+04  0.12495636887E+04  0.00000000000E+00 0. -1.
          1    1    1    2  502    0  0.23876387778E+02 -0.98834290306E+02  0.59057585953E+03  0.59926466998E+03  0.00000000000E+00 0. -1.
         22    1    3    3    0    0 -0.38333921656E+02  0.13136251956E+03  0.38022992715E+03  0.40410444020E+03  0.00000000000E+00 0.  1.
         22    1    3    3    0    0 -0.37452257457E+01 -0.19499563006E+02  0.89669819614E+01  0.21786840955E+02  0.00000000000E+00 0.  1.
</event>
<event>
 7    1  0.6122298E-006  0.1487684E+03  0.7818608E-02  0.1311370E+00
          2   -1    0    0  502    0  0.00000000000E+00  0.00000000000E+00  0.13603491513E+04  0.13603491513E+04  0.00000000000E+00 0. -1.
          1   -1    0    0  501    0 -0.00000000000E+00 -0.00000000000E+00 -0.34646243783E+03  0.34646243783E+03  0.00000000000E+00 0. -1.
         25    2    1    2    0    0 -0.14428586210E+03  0.10478674470E+03  0.11105796265E+03  0.24445432777E+03  0.12500150171E+03 0.  0.
          2    1    1    2  501    0  0.13523816233E+03 -0.55226635039E+02 -0.26011261407E+03  0.29832518125E+03  0.00000000000E+00 0. -1.
          1    1    1    2  502    0  0.90476997664E+01 -0.49560109663E+02  0.11629413648E+04  0.11640320801E+04  0.00000000000E+00 0. -1.
         22    1    3    3    0    0 -0.63736178056E+02  0.21803886297E+02  0.10977978088E+03  0.12879949589E+03  0.00000000000E+00 0.  1.
         22    1    3    3    0    0 -0.80549684043E+02  0.82982858404E+02  0.12781817679E+01  0.11565483188E+03  0.00000000000E+00 0.  1.
</event>
<event>
 7    1  0.6122298E-006  0.8525210E+02  0.7818608E-02  0.1394935E+00
          2   -1    0    0  502    0  0.00000000000E+00  0.00000000000E+00  0.65228575402E+03  0.65228575402E+03  0.00000000000E+00 0. -1.
          1   -1    0    0  501    0 -0.00000000000E+00 -0.00000000000E+00 -0.64030429654E+02  0.64030429654E+02  0.00000000000E+00 0. -1.
         25    2    1    2    0    0  0.75293769497E+02 -0.44453521332E+02  0.14639932892E+03  0.21143258031E+03  0.12500282087E+03 0.  0.
          2    1    1    2  501    0  0.10854345566E+02  0.41827169653E+02 -0.10434337668E+02  0.44454519921E+02  0.00000000000E+00 0. -1.
          1    1    1    2  502    0 -0.86148115062E+02  0.26263516782E+01  0.45229033312E+03  0.46042908345E+03  0.00000000000E+00 0. -1.
         22    1    3    3    0    0  0.78512340161E+02 -0.23708437605E+02  0.16443685469E+03  0.18375461015E+03  0.00000000000E+00 0.  1.
         22    1    3    3    0    0 -0.32185706648E+01 -0.20745083726E+02 -0.18037525774E+02  0.27677970156E+02  0.00000000000E+00 0.  1.
</event>
<event>
 7    1  0.6122298E-006  0.1097639E+03  0.7818608E-02  0.1392744E+00
          2   -1    0    0  502    0  0.00000000000E+00  0.00000000000E+00  0.11281408939E+04  0.11281408939E+04  0.00000000000E+00 0. -1.
          1   -1    0    0  501    0 -0.00000000000E+00 -0.00000000000E+00 -0.19510762164E+04  0.19510762164E+04  0.00000000000E+00 0. -1.
         25    2    1    2    0    0  0.83152920984E+02  0.11088801206E+03  0.36915970577E+03  0.41365949832E+03  0.12499893077E+03 0.  0.
          2    1    1    2  501    0 -0.24298057332E+02 -0.24004222781E+02 -0.19249370425E+04  0.19252400411E+04  0.00000000000E+00 0. -1.
          1    1    1    2  502    0 -0.58854863652E+02 -0.86883789283E+02  0.73284201429E+03  0.74031757086E+03  0.00000000000E+00 0. -1.
         22    1    3    3    0    0  0.49139874315E+02  0.93369056515E+02  0.11277860195E+03  0.15443937652E+03  0.00000000000E+00 0.  1.
         22    1    3    3    0    0  0.34013046669E+02  0.17518955549E+02  0.25638110382E+03  0.25922012179E+03  0.00000000000E+00 0.  1.
</event>
<event>
 7    1  0.6122298E-006  0.9154375E+02  0.7818608E-02  0.1319683E+00
          2   -1    0    0  502    0  0.00000000000E+00  0.00000000000E+00  0.78008413317E+03  0.78008413317E+03  0.00000000000E+00 0. -1.
          1   -1    0    0  501    0 -0.00000000000E+00 -0.00000000000E+00 -0.89510030965E+02  0.89510030965E+02  0.00000000000E+00 0. -1.
         25    2    1    2    0    0  0.18142462059E+02  0.16353233612E+01  0.82246298376E+02  0.15073805350E+03  0.12500273583E+03 0.  0.
          2    1    1    2  501    0 -0.68492373259E+02 -0.78088869822E+02  0.19390084577E+00  0.10387066180E+03  0.00000000000E+00 0. -1.
          1    1    1    2  502    0  0.50349911200E+02  0.76453546460E+02  0.60813390299E+03  0.61498544884E+03  0.00000000000E+00 0. -1.
         22    1    3    3    0    0  0.12940418453E+02 -0.16274638061E+02 -0.30249776535E+02  0.36706501524E+02  0.00000000000E+00 0.  1.
         22    1    3    3    0    0  0.52020436055E+01  0.17909961422E+02  0.11249607491E+03  0.11403155198E+03  0.00000000000E+00 0.  1.
</event>
<event>
 7    1  0.6122298E-006  0.5070832E+02  0.7818608E-02  0.1487148E+00
          2   -1    0    0  502    0  0.00000000000E+00  0.00000000000E+00  0.19252545707E+04  0.19252545707E+04  0.00000000000E+00 0. -1.
          1   -1    0    0  501    0 -0.00000000000E+00 -0.00000000000E+00 -0.11856075879E+03  0.11856075879E+03  0.00000000000E+00 0. -1.
         25    2    1    2    0    0  0.78003555957E+02  0.37158305925E+02  0.14347735023E+03  0.20898793316E+03  0.12499964696E+03 0.  0.
          2    1    1    2  501    0 -0.34491511352E+02 -0.11891257257E+02 -0.81548169749E+02  0.89337396111E+02  0.00000000000E+00 0. -1.
          1    1    1    2  502    0 -0.43512044605E+02 -0.25267048669E+02  0.17447646315E+04  0.17454900002E+04  0.00000000000E+00 0. -1.
         22    1    3    3    0    0  0.99186711443E+02 -0.64330622574E+01  0.72436930210E+02  0.12298982427E+03  0.00000000000E+00 0. -1.
         22    1    3    3    0    0 -0.21183155486E+02  0.43591368182E+02  0.71040420016E+02  0.85998108889E+02  0.00000000000E+00 0. -1.
</event>
<event>
 7    1  0.6122298E-006  0.6718892E+02  0.7818608E-02  0.1376853E+00
          2   -1    0    0  502    0  0.00000000000E+00  0.00000000000E+00  0.28913989073E+03  0.28913989073E+03  0.00000000000E+00 0. -1.
          1   -1    0    0  501    0 -0.00000000000E+00 -0.00000000000E+00 -0.15188304043E+04  0.15188304043E+04  0.00000000000E+00 0. -1.
         25    2    1    2    0    0 -0.24498930105E+02 -0.93830253065E+02 -0.32115007355E+03  0.35800377035E+03  0.12500006351E+03 0.  0.
          2    1    1    2  501    0 -0.30635437829E+02  0.55576451344E+02 -0.11742248691E+04  0.11759384828E+04  0.00000000000E+00 0. -1.
          1    1    1    2  502    0  0.55134367934E+02  0.38253801721E+02  0.26568442912E+03  0.27402804190E+03  0.00000000000E+00 0. -1.
         22    1    3    3    0    0 -0.10008650871E+02 -0.57340074838E+02 -0.32440231643E+02  0.66636520795E+02  0.00000000000E+00 0. -1.
         22    1    3    3    0    0 -0.14490279234E+02 -0.36490178227E+02 -0.28870984191E+03  0.29136724955E+03  0.00000000000E+00 0. -1.
</event>
<event>
 7    1  0.6122298E-006  0.4099743E+03  0.7818608E-02  0.1124750E+00
          2   -1    0    0  502    0  0.00000000000E+00  0.00000000000E+00  0.20533742558E+04  0.20533742558E+04  0.00000000000E+00 0. -1.
          1   -1    0    0  501    0 -0.00000000000E+00 -0.00000000000E+00 -0.46308976887E+03  0.46308976887E+03  0.00000000000E+00 0. -1.
         25    2    1    2    0    0 -0.29776351157E+03 -0.72999553831E+02  0.39133618356E+03  0.51260514703E+03  0.12501193751E+03 0.  0.
          2    1    1    2  501    0  0.42944727980E+03  0.83289448456E+02 -0.27976399580E+03  0.51925907955E+03  0.00000000000E+00 0. -1.
          1    1    1    2  502    0 -0.13168376823E+03 -0.10289894626E+02  0.14787122991E+04  0.14845997980E+04  0.00000000000E+00 0. -1.
         22    1    3    3    0    0 -0.12876119813E+03  0.10217690393E+02  0.23349162461E+03  0.26683737764E+03  0.00000000000E+00 0.  1.
         22    1    3    3    0    0 -0.16900231344E+03 -0.83217244224E+02  0.15784455894E+03  0.24576776939E+03  0.00000000000E+00 0.  1.
</event>
<event>
 7    1  0.6122298E-006  0.6486713E+02  0.7818608E-02  0.1388247E+00
          2   -1    0    0  502    0  0.00000000000E+00  0.00000000000E+00  0.91160386947E+03  0.91160386947E+03  0.00000000000E+00 0. -1.
          1   -1    0    0  501    0 -0.00000000000E+00 -0.00000000000E+00 -0.29135252371E+03  0.29135252371E+03  0.00000000000E+00 0. -1.
         25    2    1    2    0    0  0.40405032808E+02 -0.98123557485E+01  0.72609794760E+03  0.73794969916E+03  0.12499071957E+03 0.  0.
          2    1    1    2  501    0 -0.13976282639E+02  0.63589758713E+02 -0.27654022225E+03  0.28410119396E+03  0.00000000000E+00 0. -1.
          1    1    1    2  502    0 -0.26428750168E+02 -0.53777402965E+02  0.17069362040E+03  0.18090550006E+03  0.00000000000E+00 0. -1.
         22    1    3    3    0    0 -0.35193592007E+02 -0.26906508965E+02  0.14249792139E+03  0.14922535556E+03  0.00000000000E+00 0.  1.
         22    1    3    3    0    0  0.75598624814E+02  0.17094153217E+02  0.58360002622E+03  0.58872434360E+03  0.00000000000E+00 0.  1.
</event>
<event>
 7    1  0.6122298E-006  0.1136075E+03  0.7818608E-02  0.1391645E+00
          2   -1    0    0  502    0  0.00000000000E+00  0.00000000000E+00  0.31044570982E+04  0.31044570982E+04  0.00000000000E+00 0. -1.
          1   -1    0    0  501    0 -0.00000000000E+00 -0.00000000000E+00 -0.40770188423E+02  0.40770188423E+02  0.00000000000E+00 0. -1.
         25    2    1    2    0    0  0.59165229896E+02 -0.79096833584E+02  0.82899021487E+03  0.84416021551E+03  0.12499943840E+03 0.  0.
          2    1    1    2  501    0  0.32674444091E+02  0.63808291231E+01 -0.22916661713E+02  0.40416675532E+02  0.00000000000E+00 0. -1.
          1    1    1    2  502    0 -0.91839673986E+02  0.72716004461E+02  0.22576133566E+04  0.22606503956E+04  0.00000000000E+00 0. -1.
         22    1    3    3    0    0  0.40859312021E+02  0.24471271783E+02  0.15948954313E+03  0.16644891375E+03  0.00000000000E+00 0. -1.
         22    1    3    3    0    0  0.18305917875E+02 -0.10356810537E+03  0.66950067174E+03  0.67771130177E+03  0.00000000000E+00 0. -1.
</event>
<event>
 7    1  0.6122298E-006  0.1042504E+03  0.7818608E-02  0.1407728E+00
          2   -1    0    0  502    0  0.00000000000E+00  0.00000000000E+00  0.11172051083E+04  0.11172051083E+04  0.00000000000E+00 0. -1.
          1   -1    0    0  501    0 -0.00000000000E+00 -0.00000000000E+00 -0.19694130782E+04  0.19694130782E+04  0.00000000000E+00 0. -1.
         25    2    1    2    0    0  0.12627498547E+03  0.93657137698E+00 -0.11090708728E+02  0.17802822142E+03  0.12499917872E+03 0.  0.
          2    1    1    2  501    0 -0.24439216870E+02 -0.20563918087E+02 -0.18721158660E+04  0.18723883053E+04  0.00000000000E+00 0. -1.
          1    1    1    2  502    0 -0.10183576860E+03  0.19627346710E+02  0.10309986048E+04  0.10362016597E+04  0.00000000000E+00 0. -1.
         22    1    3    3    0    0 -0.16105055837E+02 -0.22390980179E+02 -0.19065805373E+02  0.33529595157E+02  0.00000000000E+00 0. -1.
         22    1    3    3    0    0  0.14238004131E+03  0.23327551556E+02  0.79750966456E+01  0.14449862626E+03  0.00000000000E+00 0. -1.
</event>
<event>
 7    1  0.6122298E-006  0.9755898E+02  0.7818608E-02  0.1436304E+00
          2   -1    0    0  502    0  0.00000000000E+00  0.00000000000E+00  0.36145019975E+03  0.36145019975E+03  0.00000000000E+00 0. -1.
          1   -1    0    0  501    0 -0.00000000000E+00 -0.00000000000E+00 -0.14503741439E+04  0.14503741439E+04  0.00000000000E+00 0. -1.
         25    2    1    2    0    0 -0.56573415999E+02  0.48196467703E+02 -0.16173593386E+03  0.21749945061E+03  0.12499619121E+03 0.  0.
          2    1    1    2  501    0 -0.78939841979E+01  0.26252540476E+02 -0.12533344012E+04  0.12536341699E+04  0.00000000000E+00 0. -1.
          1    1    1    2  502    0  0.64467400197E+02 -0.74449008179E+02  0.32614639089E+03  0.34069072309E+03  0.00000000000E+00 0. -1.
         22    1    3    3    0    0 -0.44601242300E+02 -0.30360481775E+02 -0.11044705129E+03  0.12292103484E+03  0.00000000000E+00 0. -1.
         22    1    3    3    0    0 -0.11972173700E+02  0.78556949479E+02 -0.51288882577E+02  0.94578415775E+02  0.00000000000E+00 0. -1.
</event>
<event>
 7    1  0.6122298E-006  0.8942543E+02  0.7818608E-02  0.1351807E+00
          2   -1    0    0  502    0  0.00000000000E+00  0.00000000000E+00  0.22385733786E+03  0.22385733786E+03  0.00000000000E+00 0. -1.
          1   -1    0    0  501    0 -0.00000000000E+00 -0.00000000000E+00 -0.28046976629E+03  0.28046976629E+03  0.00000000000E+00 0. -1.
         25    2    1    2    0    0 -0.52891366241E+02 -0.25165473055E+02 -0.11663888729E+03  0.18072004479E+03  0.12499722758E+03 0.  0.
          2    1    1    2  501    0  0.11182213020E+02 -0.57696798108E+02 -0.11294995356E+03  0.12732499523E+03  0.00000000000E+00 0. -1.
          1    1    1    2  502    0  0.41709153221E+02  0.82862271163E+02  0.17297641243E+03  0.19628206413E+03  0.00000000000E+00 0. -1.
         22    1    3    3    0    0  0.38709513847E+02 -0.77924993929E+01 -0.59371267978E+02  0.71302853872E+02  0.00000000000E+00 0.  1.
         22    1    3    3    0    0 -0.91600880088E+02 -0.17372973662E+02 -0.57267619317E+02  0.10941719092E+03  0.00000000000E+00 0.  1.
</event>
<event>
 7    1  0.6122298E-006  0.1097542E+03  0.7818608E-02  0.1382304E+00
          2   -1    0    0  502    0  0.00000000000E+00  0.00000000000E+00  0.55275093186E+03  0.55275093186E+03  0.00000000000E+00 0. -1.
          1   -1    0    0  501    0 -0.00000000000E+00 -0.00000000000E+00 -0.25056102569E+04  0.25056102569E+04  0.00000000000E+00 0. -1.
         25    2    1    2    0    0 -0.11571749067E+03  0.72568546982E+02 -0.10727899839E+04  0.10886507698E+04  0.12500166955E+03 0.  0.
          2    1    1    2  501    0  0.78960326279E+02 -0.67119153722E+02 -0.14223689367E+04  0.14261392309E+04  0.00000000000E+00 0. -1.
          1    1    1    2  502    0  0.36757164390E+02 -0.54493932601E+01  0.54229959560E+03  0.54357118798E+03  0.00000000000E+00 0. -1.
         22    1    3    3    0    0 -0.60686625185E+02  0.87112784223E+02 -0.41363246543E+03  0.42704018559E+03  0.00000000000E+00 0.  1.
         22    1    3    3    0    0 -0.55030865485E+02 -0.14544237241E+02 -0.65915751851E+03  0.66161058425E+03  0.00000000000E+00 0.  1.
</event>
<event>
 7    1  0.6122298E-006  0.1263348E+03  0.7818608E-02  0.1352554E+00
          2   -1    0    0  502    0  0.00000000000E+00  0.00000000000E+00  0.17400061342E+04  0.17400061342E+04  0.00000000000E+00 0. -1.
          1   -1    0    0  501    0 -0.00000000000E+00 -0.00000000000E+00 -0.41715828008E+03  0.41715828008E+03  0.00000000000E+00 0. -1.
         25    2    1    2    0    0  0.34016713412E+02 -0.83701668672E+02 -0.42212117727E+01  0.15429304371E+03  0.12500167431E+03 0.  0.
          2    1    1    2  501    0  0.33209529924E+02 -0.24614736623E+02 -0.33418558119E+03  0.33673247662E+03  0.00000000000E+00 0. -1.
          1    1    1    2  502    0 -0.67226243336E+02  0.10831640529E+03  0.16612546471E+04  0.16661388940E+04  0.00000000000E+00 0. -1.
         22    1    3    3    0    0 -0.23853054344E+02 -0.89202655620E+02 -0.19093207863E+02  0.94290150905E+02  0.00000000000E+00 0. -1.
         22    1    3    3    0    0  0.57869767757E+02  0.55009869481E+01  0.14871996091E+02  0.60002892808E+02  0.00000000000E+00 0. -1.
</event>
<event>
 7    1  0.6122298E-006  0.4002670E+02  0.7818608E-02  0.1596183E+00
          2   -1    0    0  502    0  0.00000000000E+00  0.00000000000E+00  0.43429413719E+02  0.43429413719E+02  0.00000000000E+00 0. -1.
          1   -1    0    0  501    0 -0.00000000000E+00 -0.00000000000E+00 -0.83580361332E+03  0.83580361332E+03  0.00000000000E+00 0. -1.
         25    2    1    2    0    0 -0.43614525064E+02 -0.16349132267E+02 -0.38495096111E+03  0.40740839293E+03  0.12499934098E+03 0.  0.
          2    1    1    2  501    0  0.25796399732E+02  0.30486425724E+02 -0.43457423016E+03  0.43640535963E+03  0.00000000000E+00 0. -1.
          1    1    1    2  502    0  0.17818125332E+02 -0.14137293457E+02  0.27150991668E+02  0.35419274487E+02  0.00000000000E+00 0. -1.
         22    1    3    3    0    0 -0.35223287579E+02  0.51610667022E+01 -0.18293362243E+02  0.40024538717E+02  0.00000000000E+00 0. -1.
         22    1    3    3    0    0 -0.83912374854E+01 -0.21510198969E+02 -0.36665759887E+03  0.36738385421E+03  0.00000000000E+00 0. -1.
</event>
<event>
 7    1  0.6122298E-006  0.4005400E+02  0.7818608E-02  0.1561129E+00
          2   -1    0    0  502    0  0.00000000000E+00  0.00000000000E+00  0.19519608752E+03  0.19519608752E+03  0.00000000000E+00 0. -1.
          1   -1    0    0  501    0 -0.00000000000E+00 -0.00000000000E+00 -0.33265629285E+03  0.33265629285E+03  0.00000000000E+00 0. -1.
         25    2    1    2    0    0  0.53923364484E+02  0.39599608042E+02  0.18568234771E+02  0.14298990614E+03  0.12500190287E+03 0.  0.
          2    1    1    2  501    0 -0.34830813933E+02 -0.18800223784E+02 -0.26722353117E+03  0.27013894503E+03  0.00000000000E+00 0. -1.
          1    1    1    2  502    0 -0.19092550551E+02 -0.20799384258E+02  0.11119509107E+03  0.11472352919E+03  0.00000000000E+00 0. -1.
         22    1    3    3    0    0 -0.16474853919E+01 -0.30525382116E+02  0.40620357133E+02  0.50838239300E+02  0.00000000000E+00 0. -1.
         22    1    3    3    0    0  0.55570849876E+02  0.70124990158E+02 -0.22052122362E+02  0.92151666840E+02  0.00000000000E+00 0. -1.
</event>
<event>
 7    1  0.6122298E-006  0.3330614E+02  0.7818608E-02  0.1621835E+00
          2   -1    0    0  502    0  0.00000000000E+00  0.00000000000E+00  0.44335519348E+02  0.44335519348E+02  0.00000000000E+00 0. -1.
          1   -1    0    0  501    0 -0.00000000000E+00 -0.00000000000E+00 -0.54684382354E+03  0.54684382354E+03  0.00000000000E+00 0. -1.
         25    2    1    2    0    0 -0.50171814449E+01 -0.18012100759E+02 -0.13720396047E+03  0.18654386181E+03  0.12499631085E+03 0.  0.
          2    1    1    2  501    0  0.18516598379E+02 -0.14416361230E+02 -0.36860816259E+03  0.36935440083E+03  0.00000000000E+00 0. -1.
          1    1    1    2  502    0 -0.13499416934E+02  0.32428461988E+02  0.33038188645E+01  0.35281080249E+02  0.00000000000E+00 0. -1.
         22    1    3    3    0    0 -0.32245340648E+02  0.28407147239E+02 -0.12385353796E+03  0.13109701321E+03  0.00000000000E+00 0. -1.
         22    1    3    3    0    0  0.27228159203E+02 -0.46419247997E+02 -0.13350422512E+02  0.55446848598E+02  0.00000000000E+00 0. -1.
</event>
<event>
 7    1  0.6122298E-006  0.6838283E+02  0.7818608E-02  0.1381683E+00
          2   -1    0    0  502    0  0.00000000000E+00  0.00000000000E+00  0.80136112588E+03  0.80136112588E+03  0.00000000000E+00 0. -1.
          1   -1    0    0  501    0 -0.00000000000E+00 -0.00000000000E+00 -0.58664606145E+02  0.58664606145E+02  0.00000000000E+00 0. -1.
         25    2    1    2    0    0 -0.23303851901E+02 -0.15712520659E+02  0.19950100587E+03  0.23710012644E+03  0.12500346314E+03 0.  0.
          2    1    1    2  501    0  0.75639882592E+02 -0.13510625897E+02  0.40780177495E+00  0.76838110030E+02  0.00000000000E+00 0. -1.
          1    1    1    2  502    0 -0.52336030691E+02  0.29223146556E+02  0.54278771210E+03  0.54608749556E+03  0.00000000000E+00 0. -1.
         22    1    3    3    0    0 -0.20995152093E+02 -0.32689645403E+02  0.21222939017E+03  0.21575616649E+03  0.00000000000E+00 0. -1.
         22    1    3    3    0    0 -0.23086998076E+01  0.16977124744E+02 -0.12728384301E+02  0.21343959949E+02  0.00000000000E+00 0. -1.
</event>
<event>
 7    1  0.6122298E-006  0.1114192E+03  0.7818608E-02  0.1339651E+00
          2   -1    0    0  502    0  0.00000000000E+00  0.00000000000E+00  0.16759387305E+04  0.16759387305E+04  0.00000000000E+00 0. -1.
          1   -1    0    0  501    0 -0.00000000000E+00 -0.00000000000E+00 -0.46602084574E+03  0.46602084574E+03  0.00000000000E+00 0. -1.
         25    2    1    2    0    0  0.88189523173E+02 -0.13168766812E+03 -0.34642320723E+03  0.40094013749E+03  0.12499968567E+03 0.  0.
          2    1    1    2  501    0 -0.11626668542E+02  0.51052183104E+02 -0.82878764367E+02  0.98032619082E+02  0.00000000000E+00 0. -1.
          1    1    1    2  502    0 -0.76562854631E+02  0.80635485016E+02  0.16392198563E+04  0.16429868197E+04  0.00000000000E+00 0. -1.
         22    1    3    3    0    0 -0.42884868684E+00 -0.15916459853E+02 -0.17576336226E+03  0.17648307884E+03  0.00000000000E+00 0. -1.
         22    1    3    3    0    0  0.88618371860E+02 -0.11577120827E+03 -0.17065984497E+03  0.22445705865E+03  0.00000000000E+00 0. -1.
</event>
<event>
 7    1  0.6122298E-006  0.6913504E+02  0.7818608E-02  0.1400473E+00
          2   -1    0    0  502    0  0.00000000000E+00  0.00000000000E+00  0.85195768912E+03  0.85195768912E+03  0.00000000000E+00 0. -1.
          1   -1    0    0  501    0 -0.00000000000E+00 -0.00000000000E+00 -0.11933146028E+04  0.11933146028E+04  0.00000000000E+00 0. -1.
         25    2    1    2    0    0  0.92192782817E+02 -0.25422633663E+02 -0.19129253979E+03  0.24771549130E+03  0.12499723735E+03 0.  0.
          2    1    1    2  501    0 -0.25700740090E+02  0.44042496317E+02 -0.97169385301E+03  0.97303094169E+03  0.00000000000E+00 0. -1.
          1    1    1    2  502    0 -0.66492042727E+02 -0.18619862655E+02  0.82162947913E+03  0.82452585891E+03  0.00000000000E+00 0. -1.
         22    1    3    3    0    0  0.34683098116E+02  0.27450544277E+02 -0.35571077398E+01  0.44374572578E+02  0.00000000000E+00 0.  1.
         22    1    3    3    0    0  0.57509684701E+02 -0.52873177940E+02 -0.18773543205E+03  0.20334091872E+03  0.00000000000E+00 0.  1.
</event>
<event>
 7    1  0.6122298E-006  0.3736097E+02  0.7818608E-02  0.1618623E+00
          2   -1    0    0  502    0  0.00000000000E+00  0.00000000000E+00  0.11101872320E+04  0.11101872320E+04  0.00000000000E+00 0. -1.
          1   -1    0    0  501    0 -0.00000000000E+00 -0.00000000000E+00 -0.67076886131E+02  0.67076886131E+02  0.00000000000E+00 0. -1.
         25    2    1    2    0    0  0.32714718295E+02 -0.36269039090E+02  0.18217440614E+02  0.13543616223E+03  0.12500153162E+03 0.  0.
          2    1    1    2  501    0 -0.12059425100E+02  0.30995938190E+02  0.24749525229E+02  0.41457410883E+02  0.00000000000E+00 0. -1.
          1    1    1    2  502    0 -0.20655293195E+02  0.52731008995E+01  0.10001433800E+04  0.10003705450E+04  0.00000000000E+00 0. -1.
         22    1    3    3    0    0  0.55218954626E+02 -0.70100373713E+02 -0.36144513526E+01  0.89309907644E+02  0.00000000000E+00 0.  1.
         22    1    3    3    0    0 -0.22504236331E+02  0.33831334624E+02  0.21831891967E+02  0.46126254586E+02  0.00000000000E+00 0.  1.
</event>
<event>
 7    1  0.6122298E-006  0.5938669E+02  0.7818608E-02  0.1472328E+00
          2   -1    0    0  502    0  0.00000000000E+00  0.00000000000E+00  0.17319299710E+04  0.17319299710E+04  0.00000000000E+00 0. -1.
          1   -1    0    0  501    0 -0.00000000000E+00 -0.00000000000E+00 -0.80556285954E+02  0.80556285954E+02  0.00000000000E+00 0. -1.
         25    2    1    2    0    0 -0.24293126481E+00 -0.60733310617E+02  0.18576653746E+03  0.23199812729E+03  0.12500132237E+03 0.  0.
          2    1    1    2  501    0  0.33129729643E+02  0.50007523523E+02 -0.41526605260E+02  0.72957455681E+02  0.00000000000E+00 0. -1.
          1    1    1    2  502    0 -0.32886798378E+02  0.10725787094E+02  0.15071337529E+04  0.15075306740E+04  0.00000000000E+00 0. -1.
         22    1    3    3    0    0 -0.49154508498E+01 -0.97889709169E+02  0.15566248169E+03  0.18394935451E+03  0.00000000000E+00 0.  1.
         22    1    3    3    0    0  0.46725195850E+01  0.37156398551E+02  0.30104055771E+02  0.48048772788E+02  0.00000000000E+00 0.  1.
</event>
<event>
 7    1  0.6122298E-006  0.6451832E+02  0.7818608E-02  0.1387165E+00
          2   -1    0    0  502    0  0.00000000000E+00  0.00000000000E+00  0.17629217205E+04  0.17629217205E+04  0.00000000000E+00 0. -1.
          1   -1    0    0  501    0 -0.00000000000E+00 -0.00000000000E+00 -0.93526686833E+02  0.93526686833E+02  0.00000000000E+00 0. -1.
         25    2    1    2    0    0  0.17609156350E+02  0.10902217993E+02  0.25111571535E+03  0.28127017431E+03  0.12499947086E+03 0.  0.
          2    1    1    2  501    0 -0.58112170773E+02  0.34405565392E+02 -0.63176027508E+02  0.92476904001E+02  0.00000000000E+00 0. -1.
          1    1    1    2  502    0  0.40503014423E+02 -0.45307783385E+02  0.14814553458E+04  0.14827013290E+04  0.00000000000E+00 0. -1.
         22    1    3    3    0    0 -0.31920666985E+02  0.46499293871E+02  0.17421176248E+03  0.18311431266E+03  0.00000000000E+00 0.  1.
         22    1    3    3    0    0  0.49529823336E+02 -0.35597075878E+02  0.76903952868E+02  0.98155861656E+02  0.00000000000E+00 0.  1.
</event>
<event>
 7    1  0.6122298E-006  0.6574155E+02  0.7818608E-02  0.1495056E+00
          2   -1    0    0  502    0  0.00000000000E+00  0.00000000000E+00  0.38477873651E+03  0.38477873651E+03  0.00000000000E+00 0. -1.
          1   -1    0    0  501    0 -0.00000000000E+00 -0.00000000000E+00 -0.14058790194E+04  0.14058790194E+04  0.00000000000E+00 0. -1.
         25    2    1    2    0    0 -0.64392306110E+02 -0.29411906137E+02 -0.54788653026E+03  0.56640606581E+03  0.12499900814E+03 0.  0.
          2    1    1    2  501    0  0.65612997049E+02  0.28050473306E+01 -0.84698771381E+03  0.84952994121E+03  0.00000000000E+00 0. -1.
          1    1    1    2  502    0 -0.12206909394E+01  0.26606858806E+02  0.37377396119E+03  0.37472174888E+03  0.00000000000E+00 0. -1.
         22    1    3    3    0    0 -0.71577303766E+02 -0.27711586431E+02 -0.15042045295E+03  0.16887141588E+03  0.00000000000E+00 0.  1.
         22    1    3    3    0    0  0.71849976567E+01 -0.17003197059E+01 -0.39746607732E+03  0.39753464993E+03  0.00000000000E+00 0.  1.
</event>
<event>
 7    1  0.6122298E-006  0.6388801E+02  0.7818608E-02  0.1395035E+00
          2   -1    0    0  502    0  0.00000000000E+00  0.00000000000E+00  0.35478036323E+03  0.35478036323E+03  0.00000000000E+00 0. -1.
          1   -1    0    0  501    0 -0.00000000000E+00 -0.00000000000E+00 -0.17550340325E+03  0.17550340325E+03  0.00000000000E+00 0. -1.
         25    2    1    2    0    0 -0.59638711472E+01  0.11776070060E+03  0.11048030647E+03  0.20428728370E+03  0.12499698316E+03 0.  0.
          2    1    1    2  501    0 -0.47481969250E+01 -0.61147995806E+02 -0.11665782796E+03  0.13179784365E+03  0.00000000000E+00 0. -1.
          1    1    1    2  502    0  0.10712068072E+02 -0.56612704791E+02  0.18545448147E+03  0.19419863914E+03  0.00000000000E+00 0. -1.
         22    1    3    3    0    0  0.31319778011E+02  0.20224882857E+02  0.90629323324E+02  0.97998207266E+02  0.00000000000E+00 0.  1.
         22    1    3    3    0    0 -0.37283649158E+02  0.97535817740E+02  0.19850983145E+02  0.10628907643E+03  0.00000000000E+00 0.  1.
</event>
<event>
 7    1  0.6122298E-006  0.7120418E+02  0.7818608E-02  0.1501011E+00
          2   -1    0    0  502    0  0.00000000000E+00  0.00000000000E+00  0.46762232198E+03  0.46762232198E+03  0.00000000000E+00 0. -1.
          1   -1    0    0  501    0 -0.00000000000E+00 -0.00000000000E+00 -0.25456604301E+03  0.25456604301E+03  0.00000000000E+00 0. -1.
         25    2    1    2    0    0 -0.74126495040E+02  0.18572461652E+02  0.74717978222E+02  0.16443036452E+03  0.12495957310E+03 0.  0.
          2    1    1    2  501    0  0.32299950857E+01 -0.23380850254E+02 -0.20539998814E+03  0.20675166784E+03  0.00000000000E+00 0. -1.
          1    1    1    2  502    0  0.70896499954E+02  0.48083886014E+01  0.34373828888E+03  0.35100633264E+03  0.00000000000E+00 0. -1.
         22    1    3    3    0    0 -0.99999751772E+02  0.40112746694E+02  0.37114273163E+02  0.11395811544E+03  0.00000000000E+00 0. -1.
         22    1    3    3    0    0  0.25873256732E+02 -0.21540285042E+02  0.37603705059E+02  0.50472249086E+02  0.00000000000E+00 0. -1.
</event>
<event>
 7    1  0.6122298E-006  0.3793988E+02  0.7818608E-02  0.1612896E+00
          2   -1    0    0  502    0  0.00000000000E+00  0.00000000000E+00  0.15986227198E+03  0.15986227198E+03  0.00000000000E+00 0. -1.
          1   -1    0    0  501    0 -0.00000000000E+00 -0.00000000000E+00 -0.26206719318E+03  0.26206719318E+03  0.00000000000E+00 0. -1.
         25    2    1    2    0    0  0.42573445621E+02  0.10773158049E+02  0.36407050146E+02  0.13740350503E+03  0.12500276272E+03 0.  0.
          2    1    1    2  501    0 -0.15259429800E+02  0.15447460279E+02 -0.20604738361E+03  0.20718831656E+03  0.00000000000E+00 0. -1.
          1    1    1    2  502    0 -0.27314015820E+02 -0.26220618328E+02  0.67435412260E+02  0.77337643566E+02  0.00000000000E+00 0. -1.
         22    1    3    3    0    0  0.13044360729E+02  0.44151092949E+02 -0.31782374846E+02  0.55942771707E+02  0.00000000000E+00 0. -1.
         22    1    3    3    0    0  0.29529084891E+02 -0.33377934900E+02  0.68189424991E+02  0.81460733322E+02  0.00000000000E+00 0. -1.
</event>
<event>
 7    1  0.6122298E-006  0.9842185E+02  0.7818608E-02  0.1287988E+00
          2   -1    0    0  502    0  0.00000000000E+00  0.00000000000E+00  0.14899040110E+03  0.14899040110E+03  0.00000000000E+00 0. -1.
          1   -1    0    0  501    0 -0.00000000000E+00 -0.00000000000E+00 -0.29335927829E+03  0.29335927829E+03  0.00000000000E+00 0. -1.
         25    2    1    2    0    0  0.30666828353E+02  0.62132465759E+02 -0.23501534153E+02  0.14484423186E+03  0.12500652677E+03 0.  0.
          2    1    1    2  501    0 -0.73967693021E+02  0.58778260906E+02 -0.13872302252E+03  0.16783974661E+03  0.00000000000E+00 0. -1.
          1    1    1    2  502    0  0.43300864668E+02 -0.12091072666E+03  0.17855679480E+02  0.12966570091E+03  0.00000000000E+00 0. -1.
         22    1    3    3    0    0  0.59953693014E+02  0.54476466420E+02 -0.57486986973E+02  0.99332192017E+02  0.00000000000E+00 0. -1.
         22    1    3    3    0    0 -0.29286864661E+02  0.76559993389E+01  0.33985452820E+02  0.45512039846E+02  0.00000000000E+00 0. -1.
</event>
<event>
 7    1  0.6122298E-006  0.1469212E+03  0.7818608E-02  0.1273979E+00
          2   -1    0    0  502    0  0.00000000000E+00  0.00000000000E+00  0.17778766662E+04  0.17778766662E+04  0.00000000000E+00 0. -1.
          1   -1    0    0  501    0 -0.00000000000E+00 -0.00000000000E+00 -0.77312456861E+02  0.77312456861E+02  0.00000000000E+00 0. -1.
         25    2    1    2    0    0  0.14298755506E+03 -0.31327762973E+01  0.21441260715E+03  0.28644885650E+03  0.12499970440E+03 0.  0.
          2    1    1    2  501    0 -0.13762756760E+02 -0.70978112609E+02 -0.28008371010E+01  0.72354340794E+02  0.00000000000E+00 0. -1.
          1    1    1    2  502    0 -0.12922479830E+03  0.74110888907E+02  0.14889524393E+04  0.14963859258E+04  0.00000000000E+00 0. -1.
         22    1    3    3    0    0  0.41409471560E+02 -0.58396331069E+02  0.10620013597E+03  0.12807554293E+03  0.00000000000E+00 0.  1.
         22    1    3    3    0    0  0.10157808350E+03  0.55263554772E+02  0.10821247118E+03  0.15837331358E+03  0.00000000000E+00 0.  1.
</event>
<event>
 7    1  0.6122298E-006  0.6141588E+02  0.7818608E-02  0.1460641E+00
          2   -1    0    0  502    0  0.00000000000E+00  0.00000000000E+00  0.78459844169E+03  0.78459844169E+03  0.00000000000E+00 0. -1.
          1   -1    0    0  501    0 -0.00000000000E+00 -0.00000000000E+00 -0.21228435853E+04  0.21228435853E+04  0.00000000000E+00 0. -1.
         25    2    1    2    0    0  0.67358937596E+01  0.96984966785E+02 -0.28667104921E+02  0.16093064462E+03  0.12500165369E+03 0.  0.
          2    1    1    2  501    0 -0.44987849977E+00 -0.36381434475E+02 -0.20265893800E+04  0.20269159643E+04  0.00000000000E+00 0. -1.
          1    1    1    2  502    0 -0.62860152598E+01 -0.60603532310E+02  0.71701134133E+03  0.71959541807E+03  0.00000000000E+00 0. -1.
         22    1    3    3    0    0 -0.27435283160E+02  0.11570985791E+03 -0.16180871520E+02  0.12001369331E+03  0.00000000000E+00 0. -1.
         22    1    3    3    0    0  0.34171176920E+02 -0.18724891124E+02 -0.12486233402E+02  0.40916951307E+02  0.00000000000E+00 0. -1.
</event>
<event>
 7    1  0.6122298E-006  0.1251477E+03  0.7818608E-02  0.1392550E+00
          2   -1    0    0  502    0  0.00000000000E+00  0.00000000000E+00  0.23704340407E+04  0.23704340407E+04  0.00000000000E+00 0. -1.
          1   -1    0    0  501    0 -0.00000000000E+00 -0.00000000000E+00 -0.34837639044E+03  0.34837639044E+03  0.00000000000E+00 0. -1.
         25    2    1    2    0    0 -0.13162471139E+02  0.98440600382E+02  0.25462693038E+03  0.30056247798E+03  0.12505649542E+03 0.  0.
          2    1    1    2  501    0  0.83094023048E+01  0.28829935655E+02 -0.32277450775E+03  0.32416599793E+03  0.00000000000E+00 0. -1.
          1    1    1    2  502    0  0.48530688339E+01 -0.12727053604E+03  0.20902052277E+04  0.20940819553E+04  0.00000000000E+00 0. -1.
         22    1    3    3    0    0 -0.23400455463E+00 -0.78338704420E+01 -0.11381469011E+02  0.13818904482E+02  0.00000000000E+00 0. -1.
         22    1    3    3    0    0 -0.12928466584E+02  0.10627447082E+03  0.26600839939E+03  0.28674357350E+03  0.00000000000E+00 0. -1.
</event>
<event>
 7    1  0.6122298E-006  0.1003191E+03  0.7818608E-02  0.1449853E+00
          2   -1    0    0  502    0  0.00000000000E+00  0.00000000000E+00  0.26472420771E+03  0.26472420771E+03  0.00000000000E+00 0. -1.
          1   -1    0    0  501    0 -0.00000000000E+00 -0.00000000000E+00 -0.82713632118E+03  0.82713632118E+03  0.00000000000E+00 0. -1.
         25    2    1    2    0    0  0.77684931031E+02  0.59629162277E+02 -0.82548948641E+02  0.17892823746E+03  0.12494158529E+03 0.  0.
          2    1    1    2  501    0 -0.62883724304E+02 -0.78652394693E+02 -0.69207156822E+03  0.69935943370E+03  0.00000000000E+00 0. -1.
          1    1    1    2  502    0 -0.14801206728E+02  0.19023232416E+02  0.21220840338E+03  0.21357285773E+03  0.00000000000E+00 0. -1.
         22    1    3    3    0    0 -0.17113294923E+02 -0.91721337143E+01 -0.55379686365E+02  0.58684772828E+02  0.00000000000E+00 0. -1.
         22    1    3    3    0    0  0.94798225954E+02  0.68801295991E+02 -0.27169262276E+02  0.12024346463E+03  0.00000000000E+00 0. -1.
</event>
<event>
 7    1  0.6122298E-006  0.5493824E+02  0.7818608E-02  0.1539916E+00
          2   -1    0    0  502    0  0.00000000000E+00  0.00000000000E+00  0.73114383856E+03  0.73114383856E+03  0.00000000000E+00 0. -1.
          1   -1    0    0  501    0 -0.00000000000E+00 -0.00000000000E+00 -0.87667452963E+03  0.87667452963E+03  0.00000000000E+00 0. -1.
         25    2    1    2    0    0 -0.50498162898E+02 -0.35084815513E+02  0.53866122198E+02  0.14938874800E+03  0.12503771500E+03 0.  0.
          2    1    1    2  501    0  0.20818835968E+02 -0.11086965386E+02 -0.82754842866E+03  0.82788450071E+03  0.00000000000E+00 0. -1.
          1    1    1    2  502    0  0.29679326930E+02  0.46171780899E+02  0.62815161539E+03  0.63054511949E+03  0.00000000000E+00 0. -1.
         22    1    3    3    0    0  0.22457118255E+01 -0.59058779049E+02  0.67654531214E+02  0.89833836600E+02  0.00000000000E+00 0. -1.
         22    1    3    3    0    0 -0.52743874723E+02  0.23973963537E+02 -0.13788409016E+02  0.59554911399E+02  0.00000000000E+00 0. -1.
</event>
<event>
 7    1  0.6122298E-006  0.1040296E+03  0.7818608E-02  0.1324274E+00
          2   -1    0    0  502    0  0.00000000000E+00  0.00000000000E+00  0.26563724736E+04  0.26563724736E+04  0.00000000000E+00 0. -1.
          1   -1    0    0  501    0 -0.00000000000E+00 -0.00000000000E+00 -0.14218015578E+03  0.14218015578E+03  0.00000000000E+00 0. -1.
         25    2    1    2    0    0  0.41896378447E+02  0.13894940647E+03  0.26421316313E+03  0.32633758939E+03  0.12500153037E+03 0.  0.
          2    1    1    2  501    0 -0.52723402624E+02 -0.36588541694E+02 -0.10063076106E+03  0.11935253930E+03  0.00000000000E+00 0. -1.
          1    1    1    2  502    0  0.10827024177E+02 -0.10236086477E+03  0.23506099158E+04  0.23528625007E+04  0.00000000000E+00 0. -1.
         22    1    3    3    0    0 -0.23869813564E+01  0.14403447333E+03  0.22389503907E+03  0.26623413701E+03  0.00000000000E+00 0.  1.
         22    1    3    3    0    0  0.44283359803E+02 -0.50850668675E+01  0.40318124059E+02  0.60103452381E+02  0.00000000000E+00 0.  1.
</event>
<event>
 7    1  0.6122298E-006  0.5829909E+02  0.7818608E-02  0.1500198E+00
          2   -1    0    0  502    0  0.00000000000E+00  0.00000000000E+00  0.57935065886E+03  0.57935065886E+03  0.00000000000E+00 0. -1.
          1   -1    0    0  501    0 -0.00000000000E+00 -0.00000000000E+00 -0.42591944788E+02  0.42591944788E+02  0.00000000000E+00 0. -1.
         25    2    1    2    0    0 -0.59536848134E+02 -0.54844990743E+02  0.27180155258E+03  0.30992643201E+03  0.12500279988E+03 0.  0.
          2    1    1    2  501    0  0.32022377976E+02  0.45716810942E+02  0.11603807132E+02  0.57009717014E+02  0.00000000000E+00 0. -1.
          1    1    1    2  502    0  0.27514470158E+02  0.91281798000E+01  0.25335335435E+03  0.25500645462E+03  0.00000000000E+00 0. -1.
         22    1    3    3    0    0 -0.89758743316E+02 -0.17029081425E+02  0.22390866008E+03  0.24182991890E+03  0.00000000000E+00 0. -1.
         22    1    3    3    0    0  0.30221895182E+02 -0.37815909318E+02  0.47892892505E+02  0.68096513115E+02  0.00000000000E+00 0. -1.
</event>
<event>
 7    1  0.6122298E-006  0.8479167E+02  0.7818608E-02  0.1490516E+00
          2   -1    0    0  502    0  0.00000000000E+00  0.00000000000E+00  0.37860821968E+03  0.37860821968E+03  0.00000000000E+00 0. -1.
          1   -1    0    0  501    0 -0.00000000000E+00 -0.00000000000E+00 -0.63975345167E+03  0.63975345167E+03  0.00000000000E+00 0. -1.
         25    2    1    2    0    0  0.10478655600E+03  0.73938714251E+01 -0.25912381727E+03  0.30627570881E+03  0.12499906190E+03 0.  0.
          2    1    1    2  501    0 -0.20358959716E+02 -0.63010732236E+01 -0.35170645524E+03  0.35235155942E+03  0.00000000000E+00 0. -1.
          1    1    1    2  502    0 -0.84427596282E+02 -0.10927982016E+01  0.34968504053E+03  0.35973440313E+03  0.00000000000E+00 0. -1.
         22    1    3    3    0    0  0.10517187090E+03 -0.89789715494E+01 -0.26772155684E+03  0.28777869337E+03  0.00000000000E+00 0.  1.
         22    1    3    3    0    0 -0.38531489816E+00  0.16372842975E+02  0.85977395674E+01  0.18497015443E+02  0.00000000000E+00 0.  1.
</event>
<event>
 7    1  0.6122298E-006  0.1570974E+03  0.7818608E-02  0.1282230E+00
          2   -1    0    0  502    0  0.00000000000E+00  0.00000000000E+00  0.20815539532E+03  0.20815539532E+03  0.00000000000E+00 0. -1.
          1   -1    0    0  501    0 -0.00000000000E+00 -0.00000000000E+00 -0.85436929165E+03  0.85436929165E+03  0.00000000000E+00 0. -1.
         25    2    1    2    0    0 -0.10986211327E+03 -0.17471037130E+03 -0.14743499248E+03  0.28276323906E+03  0.12499829833E+03 0.  0.
          2    1    1    2  501    0  0.99916644298E+02  0.11301039329E+03 -0.62284073891E+03  0.64084730696E+03  0.00000000000E+00 0. -1.
          1    1    1    2  502    0  0.99454689725E+01  0.61699978001E+02  0.12406183505E+03  0.13891414095E+03  0.00000000000E+00 0. -1.
         22    1    3    3    0    0 -0.38301139592E+02 -0.20105671320E+02 -0.95208284843E+02  0.10457453235E+03  0.00000000000E+00 0.  1.
         22    1    3    3    0    0 -0.71560973678E+02 -0.15460469998E+03 -0.52226707636E+02  0.17818870671E+03  0.00000000000E+00 0.  1.
</event>
<event>
 7    1  0.6122298E-006  0.5072830E+02  0.7818608E-02  0.1509626E+00
          2   -1    0    0  502    0  0.00000000000E+00  0.00000000000E+00  0.41949660196E+03  0.41949660196E+03  0.00000000000E+00 0. -1.
          1   -1    0    0  501    0 -0.00000000000E+00 -0.00000000000E+00 -0.49207266141E+03  0.49207266141E+03  0.00000000000E+00 0. -1.
         25    2    1    2    0    0 -0.14368489246E+02  0.21403118526E+02 -0.25199082460E+03  0.28246977969E+03  0.12500101513E+03 0.  0.
          2    1    1    2  501    0  0.25246882591E+02 -0.50687092295E+02 -0.22065841260E+03  0.22780851928E+03  0.00000000000E+00 0. -1.
          1    1    1    2  502    0 -0.10878393345E+02  0.29283973768E+02  0.40007317775E+03  0.40129096441E+03  0.00000000000E+00 0. -1.
         22    1    3    3    0    0 -0.40455363631E+02  0.61675777399E+02 -0.10873844091E+03  0.13139477347E+03  0.00000000000E+00 0.  1.
         22    1    3    3    0    0  0.26086874386E+02 -0.40272658873E+02 -0.14325238370E+03  0.15107500622E+03  0.00000000000E+00 0.  1.
</event>
<event>
 7    1  0.6122298E-006  0.7921487E+02  0.7818608E-02  0.1373522E+00
          2   -1    0    0  502    0  0.00000000000E+00  0.00000000000E+00  0.64479689037E+02  0.64479689037E+02  0.00000000000E+00 0. -1.
          1   -1    0    0  501    0 -0.00000000000E+00 -0.00000000000E+00 -0.73481883664E+03  0.73481883664E+03  0.00000000000E+00 0. -1.
         25    2    1    2    0    0 -0.39296870623E+02 -0.28653518990E+02 -0.10107881290E+03  0.16794708367E+03  0.12499611316E+03 0.  0.
          2    1    1    2  501    0  0.82744746071E+02 -0.55891894069E+01 -0.57002493479E+03  0.57602635210E+03  0.00000000000E+00 0. -1.
          1    1    1    2  502    0 -0.43447875448E+02  0.34242708397E+02  0.76460007977E+00  0.55325089901E+02  0.00000000000E+00 0. -1.
         22    1    3    3    0    0 -0.69746810794E+02  0.22288622177E+02 -0.68382147014E+02  0.10018741600E+03  0.00000000000E+00 0.  1.
         22    1    3    3    0    0  0.30449940171E+02 -0.50942141167E+02 -0.32696665885E+02  0.67759667673E+02  0.00000000000E+00 0.  1.
</event>
<event>
 7    1  0.1150253E-005  0.6921812E+02  0.7818608E-02  0.1431649E+00
          2   -1    0    0  502    0  0.00000000000E+00  0.00000000000E+00  0.94021207891E+03  0.94021207891E+03  0.00000000000E+00 0. -1.
          1   -1    0    0  501    0 -0.00000000000E+00 -0.00000000000E+00 -0.22069584169E+04  0.22069584169E+04  0.00000000000E+00 0. -1.
         25    2    1    2    0    0 -0.92545450134E+02 -0.54517904572E+02 -0.65922183068E+03  0.67951133831E+03  0.12500149835E+03 0.  0.
          2    1    1    2  501    0  0.38280833894E+02  0.11662176733E+02 -0.15360456825E+04  0.15365668769E+04  0.00000000000E+00 0. -1.
          1    1    1    2  502    0  0.54264616240E+02  0.42855727839E+02  0.92852117523E+03  0.93109228051E+03  0.00000000000E+00 0. -1.
         22    1    3    3    0    0 -0.10229605877E+03 -0.83606741118E+02 -0.48825926809E+03  0.50581783645E+03  0.00000000000E+00 0.  1.
         22    1    3    3    0    0  0.97506086320E+01  0.29088836546E+02 -0.17096256259E+03  0.17369350186E+03  0.00000000000E+00 0.  1.
</event>
<event>
 7    1  0.6122298E-006  0.9032800E+02  0.7818608E-02  0.1320808E+00
          2   -1    0    0  502    0  0.00000000000E+00  0.00000000000E+00  0.22977006679E+04  0.22977006679E+04  0.00000000000E+00 0. -1.
          1   -1    0    0  501    0 -0.00000000000E+00 -0.00000000000E+00 -0.26583490244E+02  0.26583490244E+02  0.00000000000E+00 0. -1.
         25    2    1    2    0    0 -0.46602464621E+01  0.29365347368E+02  0.63773777453E+03  0.65055242862E+03  0.12499980716E+03 0.  0.
          2    1    1    2  501    0 -0.17076705950E+02 -0.10242514691E+03  0.12106216589E+03  0.15949474165E+03  0.00000000000E+00 0. -1.
          1    1    1    2  502    0  0.21736952412E+02  0.73059799539E+02  0.15123172372E+04  0.15142369879E+04  0.00000000000E+00 0. -1.
         22    1    3    3    0    0 -0.13140972347E+02 -0.18862192936E+02  0.18844842546E+02  0.29725335443E+02  0.00000000000E+00 0.  1.
         22    1    3    3    0    0  0.84807258849E+01  0.48227540304E+02  0.61889293199E+03  0.62082709317E+03  0.00000000000E+00 0.  1.
</event>
<event>
 7    1  0.6122298E-006  0.8674667E+02  0.7818608E-02  0.1484474E+00
          2   -1    0    0  502    0  0.00000000000E+00  0.00000000000E+00  0.21701363403E+04  0.21701363403E+04  0.00000000000E+00 0. -1.
          1   -1    0    0  501    0 -0.00000000000E+00 -0.00000000000E+00 -0.23747377763E+02  0.23747377763E+02  0.00000000000E+00 0. -1.
         25    2    1    2    0    0 -0.19457935741E+02 -0.89092605067E+02  0.58911320855E+03  0.60909265671E+03  0.12499355355E+03 0.  0.
          2    1    1    2  501    0 -0.18511194786E+02  0.11381357612E+02 -0.31612609955E+01  0.21958898073E+02  0.00000000000E+00 0. -1.
          1    1    1    2  502    0  0.37969130527E+02  0.77711247456E+02  0.15604370150E+04  0.15628321633E+04  0.00000000000E+00 0. -1.
         22    1    3    3    0    0  0.45566147693E+02 -0.20038770460E+01  0.19547980789E+03  0.20073027831E+03  0.00000000000E+00 0. -1.
         22    1    3    3    0    0 -0.65024083434E+02 -0.87088728021E+02  0.39363340066E+03  0.40836237839E+03  0.00000000000E+00 0. -1.
</event>
<event>
 7    1  0.6122298E-006  0.5230930E+02  0.7818608E-02  0.1451076E+00
          2   -1    0    0  502    0  0.00000000000E+00  0.00000000000E+00  0.34364055263E+03  0.34364055263E+03  0.00000000000E+00 0. -1.
          1   -1    0    0  501    0 -0.00000000000E+00 -0.00000000000E+00 -0.15037279681E+03  0.15037279681E+03  0.00000000000E+00 0. -1.
         25    2    1    2    0    0  0.60287805041E+02 -0.69493394505E+02  0.13268266498E+03  0.20419070541E+03  0.12500081309E+03 0.  0.
          2    1    1    2  501    0 -0.21117502093E+02  0.40653095831E+02 -0.10642883651E+03  0.11586941070E+03  0.00000000000E+00 0. -1.
          1    1    1    2  502    0 -0.39170302948E+02  0.28840298675E+02  0.16701392735E+03  0.17395323334E+03  0.00000000000E+00 0. -1.
         22    1    3    3    0    0  0.52715081115E+02  0.16362952629E+02  0.95540650292E+02  0.11033875953E+03  0.00000000000E+00 0.  1.
         22    1    3    3    0    0  0.75727239269E+01 -0.85856347134E+02  0.37142014691E+02  0.93851945883E+02  0.00000000000E+00 0.  1.
</event>
<event>
 7    1  0.6122298E-006  0.9442155E+02  0.7818608E-02  0.1310930E+00
          2   -1    0    0  502    0  0.00000000000E+00  0.00000000000E+00  0.17816748289E+04  0.17816748289E+04  0.00000000000E+00 0. -1.
          1   -1    0    0  501    0 -0.00000000000E+00 -0.00000000000E+00 -0.38960725311E+03  0.38960725311E+03  0.00000000000E+00 0. -1.
         25    2    1    2    0    0 -0.16509954733E+02 -0.75667614091E+02  0.17410556435E+03  0.22789513157E+03  0.12500110810E+03 0.  0.
          2    1    1    2  501    0  0.79667596406E+02  0.20307173170E+01 -0.35682427029E+03  0.36561538480E+03  0.00000000000E+00 0. -1.
          1    1    1    2  502    0 -0.63157641672E+02  0.73636896774E+02  0.15747862817E+04  0.15777715657E+04  0.00000000000E+00 0. -1.
         22    1    3    3    0    0  0.41717360974E+02 -0.99506365262E+01  0.11315922903E+03  0.12101390204E+03  0.00000000000E+00 0.  1.
         22    1    3    3    0    0 -0.58227315708E+02 -0.65716977565E+02  0.60946335327E+02  0.10688122952E+03  0.00000000000E+00 0.  1.
</event>
<event>
 7    1  0.6122298E-006  0.7068854E+02  0.7818608E-02  0.1460268E+00
          2   -1    0    0  502    0  0.00000000000E+00  0.00000000000E+00  0.26018660013E+03  0.26018660013E+03  0.00000000000E+00 0. -1.
          1   -1    0    0  501    0 -0.00000000000E+00 -0.00000000000E+00 -0.94425926137E+02  0.94425926137E+02  0.00000000000E+00 0. -1.
         25    2    1    2    0    0  0.79180018404E+02  0.32368652038E+02  0.11050123043E+03  0.18749668904E+03  0.12500912576E+03 0.  0.
          2    1    1    2  501    0 -0.28973949318E+02  0.12853979047E+02 -0.39554560520E+02  0.50688043702E+02  0.00000000000E+00 0. -1.
          1    1    1    2  502    0 -0.50206069087E+02 -0.45222631084E+02  0.94814004074E+02  0.11642779352E+03  0.00000000000E+00 0. -1.
         22    1    3    3    0    0 -0.63839757356E+01  0.57994729731E+02  0.23783630303E+02  0.63006387717E+02  0.00000000000E+00 0.  1.
         22    1    3    3    0    0  0.85563994140E+02 -0.25626077693E+02  0.86717600131E+02  0.12449030132E+03  0.00000000000E+00 0.  1.
</event>
<event>
 7    1  0.6122298E-006  0.1717124E+03  0.7818608E-02  0.1324346E+00
          2   -1    0    0  502    0  0.00000000000E+00  0.00000000000E+00  0.39843485868E+04  0.39843485868E+04  0.00000000000E+00 0. -1.
          1   -1    0    0  501    0 -0.00000000000E+00 -0.00000000000E+00 -0.25789581507E+03  0.25789581507E+03  0.00000000000E+00 0. -1.
         25    2    1    2    0    0  0.17343824806E+02 -0.20609279804E+03  0.59857289988E+03  0.64551516372E+03  0.12500104181E+03 0.  0.
          2    1    1    2  501    0 -0.93127654586E+01  0.37722390084E+02 -0.23068638097E+03  0.23393570201E+03  0.00000000000E+00 0. -1.
          1    1    1    2  502    0 -0.80310593471E+01  0.16837040796E+03  0.33585662528E+04  0.33627935361E+04  0.00000000000E+00 0. -1.
         22    1    3    3    0    0  0.32862729558E+02 -0.14241091502E+03  0.23999169317E+03  0.28099259866E+03  0.00000000000E+00 0.  1.
         22    1    3    3    0    0 -0.15518904752E+02 -0.63681883025E+02  0.35858120672E+03  0.36452256506E+03  0.00000000000E+00 0.  1.
</event>
<event>
 7    1  0.6122298E-006  0.1984117E+03  0.7818608E-02  0.1204403E+00
          2   -1    0    0  502    0  0.00000000000E+00  0.00000000000E+00  0.23137135780E+04  0.23137135780E+04  0.00000000000E+00 0. -1.
          1   -1    0    0  501    0 -0.00000000000E+00 -0.00000000000E+00 -0.80925415540E+03  0.80925415540E+03  0.00000000000E+00 0. -1.
         25    2    1    2    0    0  0.72093717915E+02  0.25723373529E+03  0.94882946431E+03  0.99361423738E+03  0.12500080656E+03 0.  0.
          2    1    1    2  501    0 -0.78245006357E+02 -0.75428554008E+02 -0.77689962051E+03  0.78446463791E+03  0.00000000000E+00 0. -1.
          1    1    1    2  502    0  0.61512884421E+01 -0.18180518129E+03  0.13325295788E+04  0.13448888581E+04  0.00000000000E+00 0. -1.
         22    1    3    3    0    0  0.10158249826E+03  0.19873319076E+03  0.63675754661E+03  0.67473999305E+03  0.00000000000E+00 0. -1.
         22    1    3    3    0    0 -0.29488780340E+02  0.58500544538E+02  0.31207191770E+03  0.31887424433E+03  0.00000000000E+00 0. -1.
</event>
<event>
 7    1  0.6122298E-006  0.8087042E+02  0.7818608E-02  0.1455664E+00
          2   -1    0    0  502    0  0.00000000000E+00  0.00000000000E+00  0.62068240197E+02  0.62068240197E+02  0.00000000000E+00 0. -1.
          1   -1    0    0  501    0 -0.00000000000E+00 -0.00000000000E+00 -0.56471620718E+03  0.56471620718E+03  0.00000000000E+00 0. -1.
         25    2    1    2    0    0  0.24353074764E+01 -0.73564377227E+02 -0.14976852275E+03  0.20849605413E+03  0.12498938300E+03 0.  0.
          2    1    1    2  501    0  0.25794493915E+02  0.78461666177E+02 -0.37379749399E+03  0.38281347349E+03  0.00000000000E+00 0. -1.
          1    1    1    2  502    0 -0.28229801392E+02 -0.48972889501E+01  0.20918049756E+02  0.35474919750E+02  0.00000000000E+00 0. -1.
         22    1    3    3    0    0 -0.43002664757E+02 -0.62595199782E+01 -0.10959384918E+03  0.11789496404E+03  0.00000000000E+00 0. -1.
         22    1    3    3    0    0  0.45437972233E+02 -0.67304857249E+02 -0.40174673562E+02  0.90601090092E+02  0.00000000000E+00 0. -1.
</event>
<event>
 7    1  0.6122298E-006  0.5059805E+02  0.7818608E-02  0.1474028E+00
          2   -1    0    0  502    0  0.00000000000E+00  0.00000000000E+00  0.29401762474E+02  0.29401762474E+02  0.00000000000E+00 0. -1.
          1   -1    0    0  501    0 -0.00000000000E+00 -0.00000000000E+00 -0.19446549827E+04  0.19446549827E+04  0.00000000000E+00 0. -1.
         25    2    1    2    0    0 -0.12259694297E+02 -0.78346615033E+02 -0.66773958231E+03  0.68395158863E+03  0.12500053447E+03 0.  0.
          2    1    1    2  501    0  0.25918021222E+02  0.30612548037E+02 -0.12390983077E+04  0.12397473485E+04  0.00000000000E+00 0. -1.
          1    1    1    2  502    0 -0.13658326925E+02  0.47734066996E+02 -0.84153301730E+01  0.50357808017E+02  0.00000000000E+00 0. -1.
         22    1    3    3    0    0 -0.48583865068E+02 -0.73876107614E+02 -0.26103413438E+03  0.27560277671E+03  0.00000000000E+00 0.  1.
         22    1    3    3    0    0  0.36324170771E+02 -0.44705074185E+01 -0.40670544793E+03  0.40834881192E+03  0.00000000000E+00 0.  1.
</event>
<event>
 7    1  0.6122298E-006  0.9336605E+02  0.7818608E-02  0.1358400E+00
          2   -1    0    0  502    0  0.00000000000E+00  0.00000000000E+00  0.54377921925E+02  0.54377921925E+02  0.00000000000E+00 0. -1.
          1   -1    0    0  501    0 -0.00000000000E+00 -0.00000000000E+00 -0.15973715048E+04  0.15973715048E+04  0.00000000000E+00 0. -1.
         25    2    1    2    0    0  0.65801642152E+02 -0.17478247663E+02 -0.90172226382E+03  0.91288728029E+03  0.12499920079E+03 0.  0.
          2    1    1    2  501    0  0.24706035632E+02  0.47154335591E+02 -0.64140802601E+03  0.64361337415E+03  0.00000000000E+00 0. -1.
          1    1    1    2  502    0 -0.90507677784E+02 -0.29676087928E+02  0.13670695018E+00  0.95248772283E+02  0.00000000000E+00 0. -1.
         22    1    3    3    0    0  0.35370404914E+02  0.11149179497E+02 -0.62855438312E+02  0.72980654098E+02  0.00000000000E+00 0. -1.
         22    1    3    3    0    0  0.30431237238E+02 -0.28627427160E+02 -0.83886682550E+03  0.83990662619E+03  0.00000000000E+00 0. -1.
</event>
<event>
 7    1  0.6122298E-006  0.7427424E+02  0.7818608E-02  0.1373171E+00
          2   -1    0    0  502    0  0.00000000000E+00  0.00000000000E+00  0.33817631059E+04  0.33817631059E+04  0.00000000000E+00 0. -1.
          1   -1    0    0  501    0 -0.00000000000E+00 -0.00000000000E+00 -0.59998457110E+02  0.59998457110E+02  0.00000000000E+00 0. -1.
         25    2    1    2    0    0  0.62853248377E+02 -0.55389393947E+02  0.10174503512E+04  0.10285176474E+04  0.12499927186E+03 0.  0.
          2    1    1    2  501    0  0.12594738124E+02  0.57814334825E+02 -0.37604628905E+02  0.70108721674E+02  0.00000000000E+00 0. -1.
          1    1    1    2  502    0 -0.75447986501E+02 -0.24249408784E+01  0.23419189265E+04  0.23431351940E+04  0.00000000000E+00 0. -1.
         22    1    3    3    0    0  0.20595527195E+02  0.27701189252E+02  0.59055472878E+03  0.59156269263E+03  0.00000000000E+00 0. -1.
         22    1    3    3    0    0  0.42257721182E+02 -0.83090583199E+02  0.42689562244E+03  0.43695495474E+03  0.00000000000E+00 0. -1.
</event>
<event>
 7    1  0.6122298E-006  0.9560611E+02  0.7818608E-02  0.1299538E+00
          2   -1    0    0  502    0  0.00000000000E+00  0.00000000000E+00  0.11345184023E+04  0.11345184023E+04  0.00000000000E+00 0. -1.
          1   -1    0    0  501    0 -0.00000000000E+00 -0.00000000000E+00 -0.34076372669E+03  0.34076372669E+03  0.00000000000E+00 0. -1.
         25    2    1    2    0    0 -0.21164950615E+02 -0.13583465988E+02 -0.77529657428E+02  0.14922451049E+03  0.12499856427E+03 0.  0.
          2    1    1    2  501    0  0.25612963259E+02 -0.83505788901E+02 -0.21675187167E+03  0.23368914082E+03  0.00000000000E+00 0. -1.
          1    1    1    2  502    0 -0.44480126442E+01  0.97089254889E+02  0.10880362047E+04  0.10923684776E+04  0.00000000000E+00 0. -1.
         22    1    3    3    0    0 -0.35583725559E+02  0.20526052651E+02 -0.98460743842E+02  0.10668663665E+03  0.00000000000E+00 0.  1.
         22    1    3    3    0    0  0.14418774944E+02 -0.34109518639E+02  0.20931086414E+02  0.42537873844E+02  0.00000000000E+00 0.  1.
</event>
<event>
 7    1  0.6122298E-006  0.5898107E+02  0.7818608E-02  0.1453846E+00
          2   -1    0    0  502    0  0.00000000000E+00  0.00000000000E+00  0.72333588209E+03  0.72333588209E+03  0.00000000000E+00 0. -1.
          1   -1    0    0  501    0 -0.00000000000E+00 -0.00000000000E+00 -0.25432386845E+03  0.25432386845E+03  0.00000000000E+00 0. -1.
         25    2    1    2    0    0 -0.68076702555E+02  0.50732886249E+02  0.13896363412E+03  0.20528498194E+03  0.12499107578E+03 0.  0.
          2    1    1    2  501    0  0.11348741457E+02 -0.38159122628E+02 -0.21782282438E+03  0.22143101723E+03  0.00000000000E+00 0. -1.
          1    1    1    2  502    0  0.56727961099E+02 -0.12573763621E+02  0.54787120391E+03  0.55094375137E+03  0.00000000000E+00 0. -1.
         22    1    3    3    0    0 -0.68488926735E+01  0.78100871180E+02  0.46813532743E+02  0.91313527245E+02  0.00000000000E+00 0. -1.
         22    1    3    3    0    0 -0.61227809882E+02 -0.27367984931E+02  0.92150101374E+02  0.11397145470E+03  0.00000000000E+00 0. -1.
</event>
<event>
 7    1  0.6122298E-006  0.8484421E+02  0.7818608E-02  0.1364875E+00
          2   -1    0    0  502    0  0.00000000000E+00  0.00000000000E+00  0.27169282406E+03  0.27169282406E+03  0.00000000000E+00 0. -1.
          1   -1    0    0  501    0 -0.00000000000E+00 -0.00000000000E+00 -0.76384441853E+03  0.76384441853E+03  0.00000000000E+00 0. -1.
         25    2    1    2    0    0  0.20396680321E+02 -0.29175857466E+02 -0.16337910810E+03  0.20876984614E+03  0.12499944187E+03 0.  0.
          2    1    1    2  501    0  0.52281334792E+02 -0.18585753914E+02 -0.56878481007E+03  0.57148484528E+03  0.00000000000E+00 0. -1.
          1    1    1    2  502    0 -0.72678015113E+02  0.47761611379E+02  0.24001232370E+03  0.25528255117E+03  0.00000000000E+00 0. -1.
         22    1    3    3    0    0  0.18479044959E+02 -0.15924569870E+02 -0.18321835521E+03  0.18483515011E+03  0.00000000000E+00 0. -1.
         22    1    3    3    0    0  0.19176353622E+01 -0.13251287596E+02  0.19839247114E+02  0.23934696037E+02  0.00000000000E+00 0. -1.
</event>
<event>
 7    1  0.6122298E-006  0.9058936E+02  0.7818608E-02  0.1476151E+00
          2   -1    0    0  502    0  0.00000000000E+00  0.00000000000E+00  0.14098682437E+03  0.14098682437E+03  0.00000000000E+00 0. -1.
          1   -1    0    0  501    0 -0.00000000000E+00 -0.00000000000E+00 -0.37624059645E+03  0.37624059645E+03  0.00000000000E+00 0. -1.
         25    2    1    2    0    0  0.68972447049E+02 -0.21645228952E+02 -0.17716534386E+03  0.22856787322E+03  0.12501999526E+03 0.  0.
          2    1    1    2  501    0  0.21668099429E+02  0.41813763339E+01 -0.15398303829E+03  0.15555631303E+03  0.00000000000E+00 0. -1.
          1    1    1    2  502    0 -0.90640546478E+02  0.17463852618E+02  0.95894610076E+02  0.13310323458E+03  0.00000000000E+00 0. -1.
         22    1    3    3    0    0  0.51624174038E+01 -0.31245307299E+02 -0.15815956636E+03  0.16129900252E+03  0.00000000000E+00 0. -1.
         22    1    3    3    0    0  0.63810029645E+02  0.96000783471E+01 -0.19005777504E+02  0.67268870706E+02  0.00000000000E+00 0. -1.
</event>
<event>
 7    1  0.6122298E-006  0.9760200E+02  0.7818608E-02  0.1296161E+00
          2   -1    0    0  502    0  0.00000000000E+00  0.00000000000E+00  0.58207794208E+03  0.58207794208E+03  0.00000000000E+00 0. -1.
          1   -1    0    0  501    0 -0.00000000000E+00 -0.00000000000E+00 -0.19842027899E+03  0.19842027899E+03  0.00000000000E+00 0. -1.
         25    2    1    2    0    0  0.10076893878E+03 -0.81620692851E+02  0.26396847350E+03  0.31956416114E+03  0.12500232621E+03 0.  0.
          2    1    1    2  501    0 -0.13784949193E+02  0.96657608692E+02 -0.14898664047E+03  0.17812842890E+03  0.00000000000E+00 0. -1.
          1    1    1    2  502    0 -0.86983989591E+02 -0.15036915841E+02  0.26867583007E+03  0.28280563104E+03  0.00000000000E+00 0. -1.
         22    1    3    3    0    0  0.52675099841E+02 -0.94229612647E+02  0.96246714257E+02  0.14462819935E+03  0.00000000000E+00 0.  1.
         22    1    3    3    0    0  0.48093838944E+02  0.12608919796E+02  0.16772175924E+03  0.17493596178E+03  0.00000000000E+00 0.  1.
</event>
<event>
 7    1  0.6122298E-006  0.1259257E+03  0.7818608E-02  0.1409884E+00
          2   -1    0    0  502    0  0.00000000000E+00  0.00000000000E+00  0.87554078207E+03  0.87554078207E+03  0.00000000000E+00 0. -1.
          1   -1    0    0  501    0 -0.00000000000E+00 -0.00000000000E+00 -0.72164515020E+02  0.72164515020E+02  0.00000000000E+00 0. -1.
         25    2    1    2    0    0 -0.69429483493E+02  0.78646060077E+02  0.20340152437E+03  0.26076986612E+03  0.12499234784E+03 0.  0.
          2    1    1    2  501    0 -0.18757734333E+02  0.18004340809E+02 -0.32186834388E+02  0.41376336150E+02  0.00000000000E+00 0. -1.
          1    1    1    2  502    0  0.88187217826E+02 -0.96650400886E+02  0.63216157707E+03  0.64555909482E+03  0.00000000000E+00 0. -1.
         22    1    3    3    0    0 -0.43624741902E+02 -0.26047658613E+02  0.95793207147E+02  0.10843402216E+03  0.00000000000E+00 0.  1.
         22    1    3    3    0    0 -0.25804741591E+02  0.10469371869E+03  0.10760831722E+03  0.15233584396E+03  0.00000000000E+00 0.  1.
</event>
<event>
 7    1  0.6122298E-006  0.7845942E+02  0.7818608E-02  0.1337103E+00
          2   -1    0    0  502    0  0.00000000000E+00  0.00000000000E+00  0.13377703646E+04  0.13377703646E+04  0.00000000000E+00 0. -1.
          1   -1    0    0  501    0 -0.00000000000E+00 -0.00000000000E+00 -0.39811440087E+03  0.39811440087E+03  0.00000000000E+00 0. -1.
         25    2    1    2    0    0 -0.86304024718E+02 -0.60972227566E+01 -0.22470750354E+03  0.27129888134E+03  0.12499624020E+03 0.  0.
          2    1    1    2  501    0  0.48042945665E+02  0.71785735147E+02 -0.13648269594E+03  0.16152040951E+03  0.00000000000E+00 0. -1.
          1    1    1    2  502    0  0.38261079053E+02 -0.65688512390E+02  0.13008461632E+04  0.13030654746E+04  0.00000000000E+00 0. -1.
         22    1    3    3    0    0  0.75107958168E+01 -0.37552494903E+02 -0.18393723519E+02  0.42484479427E+02  0.00000000000E+00 0.  1.
         22    1    3    3    0    0 -0.93814820534E+02  0.31455272147E+02 -0.20631378002E+03  0.22881440191E+03  0.00000000000E+00 0.  1.
</event>
<event>
 7    1  0.6122298E-006  0.6382229E+02  0.7818608E-02  0.1527068E+00
          2   -1    0    0  502    0  0.00000000000E+00  0.00000000000E+00  0.15421485373E+04  0.15421485373E+04  0.00000000000E+00 0. -1.
          1   -1    0    0  501    0 -0.00000000000E+00 -0.00000000000E+00 -0.74611086620E+02  0.74611086620E+02  0.00000000000E+00 0. -1.
         25    2    1    2    0    0  0.91339925696E+00 -0.84073555564E+02  0.11374995775E+03  0.18877257723E+03  0.12500734371E+03 0.  0.
          2    1    1    2  501    0 -0.70606772506E+01  0.20932156665E+02 -0.33020593774E+02  0.39728679302E+02  0.00000000000E+00 0. -1.
          1    1    1    2  502    0  0.61472779937E+01  0.63141398898E+02  0.13868080867E+04  0.13882583674E+04  0.00000000000E+00 0. -1.
         22    1    3    3    0    0  0.47594160432E+02  0.12126078455E+01  0.14341615779E+02  0.49722796262E+02  0.00000000000E+00 0.  1.
         22    1    3    3    0    0 -0.46680761175E+02 -0.85286163409E+02  0.99408341969E+02  0.13904978096E+03  0.00000000000E+00 0.  1.
</event>
<event>
 7    1  0.6122298E-006  0.4734622E+02  0.7818608E-02  0.1509141E+00
          2   -1    0    0  502    0  0.00000000000E+00  0.00000000000E+00  0.28162417973E+02  0.28162417973E+02  0.00000000000E+00 0. -1.
          1   -1    0    0  501    0 -0.00000000000E+00 -0.00000000000E+00 -0.13654101799E+04  0.13654101799E+04  0.00000000000E+00 0. -1.
         25    2    1    2    0    0 -0.68428578409E+02  0.21086071084E+02 -0.11144359913E+04  0.11237104197E+04  0.12502174156E+03 0.  0.
          2    1    1    2  501    0  0.35095159076E+02 -0.17016043205E+02 -0.23183269527E+03  0.23509065169E+03  0.00000000000E+00 0. -1.
          1    1    1    2  502    0  0.33333419333E+02 -0.40700278796E+01  0.90209246678E+01  0.34771526473E+02  0.00000000000E+00 0. -1.
         22    1    3    3    0    0 -0.43459942854E+02 -0.32534510306E+02 -0.19622968070E+03  0.20360095428E+03  0.00000000000E+00 0.  1.
         22    1    3    3    0    0 -0.24968635555E+02  0.53620581390E+02 -0.91820631060E+03  0.92010946541E+03  0.00000000000E+00 0.  1.
</event>
<event>
 7    1  0.6122298E-006  0.1234651E+03  0.7818608E-02  0.1345982E+00
          2   -1    0    0  502    0  0.00000000000E+00  0.00000000000E+00  0.48517427920E+02  0.48517427920E+02  0.00000000000E+00 0. -1.
          1   -1    0    0  501    0 -0.00000000000E+00 -0.00000000000E+00 -0.11432115883E+04  0.11432115883E+04  0.00000000000E+00 0. -1.
         25    2    1    2    0    0 -0.96637781041E+02  0.23365521764E+02 -0.49522835529E+03  0.52034731979E+03  0.12500160395E+03 0.  0.
          2    1    1    2  501    0 -0.33204970293E+02 -0.29984731911E+02 -0.51366626508E+03  0.51561098328E+03  0.00000000000E+00 0. -1.
          1    1    1    2  502    0  0.12984275133E+03  0.66192101464E+01 -0.85799540057E+02  0.15577071320E+03  0.00000000000E+00 0. -1.
         22    1    3    3    0    0 -0.14282620990E+02 -0.43470873400E+02 -0.83920680924E+02  0.95584469362E+02  0.00000000000E+00 0. -1.
         22    1    3    3    0    0 -0.82355160051E+02  0.66836395164E+02 -0.41130767437E+03  0.42476285042E+03  0.00000000000E+00 0. -1.
</event>
<event>
 7    1  0.6122298E-006  0.1521920E+03  0.7818608E-02  0.1320815E+00
          2   -1    0    0  502    0  0.00000000000E+00  0.00000000000E+00  0.24139750611E+04  0.24139750611E+04  0.00000000000E+00 0. -1.
          1   -1    0    0  501    0 -0.00000000000E+00 -0.00000000000E+00 -0.25954948391E+03  0.25954948391E+03  0.00000000000E+00 0. -1.
         25    2    1    2    0    0  0.16602490046E+03  0.41358726819E+02  0.28914715012E+03  0.35847728997E+03  0.12500032459E+03 0.  0.
          2    1    1    2  501    0 -0.13280753630E+03 -0.72068293976E+02 -0.19922705735E+03  0.25004619788E+03  0.00000000000E+00 0. -1.
          1    1    1    2  502    0 -0.33217364155E+02  0.30709567158E+02  0.20645054845E+04  0.20650010572E+04  0.00000000000E+00 0. -1.
         22    1    3    3    0    0  0.13471953181E+03 -0.82720586382E+01  0.26002513411E+03  0.29296902494E+03  0.00000000000E+00 0.  1.
         22    1    3    3    0    0  0.31305368643E+02  0.49630785457E+02  0.29122016012E+02  0.65508265032E+02  0.00000000000E+00 0.  1.
</event>
<event>
 7    1  0.6122298E-006  0.5755100E+02  0.7818608E-02  0.1536118E+00
          2   -1    0    0  502    0  0.00000000000E+00  0.00000000000E+00  0.17811391691E+04  0.17811391691E+04  0.00000000000E+00 0. -1.
          1   -1    0    0  501    0 -0.00000000000E+00 -0.00000000000E+00 -0.52075483245E+03  0.52075483245E+03  0.00000000000E+00 0. -1.
         25    2    1    2    0    0  0.68671492432E+02  0.34712526759E+02 -0.33754309983E+03  0.36807758038E+03  0.12500011021E+03 0.  0.
          2    1    1    2  501    0 -0.13388692579E+02 -0.18801169243E+02 -0.16668051398E+03  0.16827101591E+03  0.00000000000E+00 0. -1.
          1    1    1    2  502    0 -0.55282799853E+02 -0.15911357516E+02  0.17646079504E+04  0.17655454053E+04  0.00000000000E+00 0. -1.
         22    1    3    3    0    0  0.77847036515E+02  0.23857594662E+02 -0.94995621515E+02  0.12511400411E+03  0.00000000000E+00 0. -1.
         22    1    3    3    0    0 -0.91755440834E+01  0.10854932097E+02 -0.24254747831E+03  0.24296357627E+03  0.00000000000E+00 0. -1.
</event>
<event>
 7    1  0.6122298E-006  0.1395295E+03  0.7818608E-02  0.1379772E+00
          2   -1    0    0  502    0  0.00000000000E+00  0.00000000000E+00  0.17967018555E+04  0.17967018555E+04  0.00000000000E+00 0. -1.
          1   -1    0    0  501    0 -0.00000000000E+00 -0.00000000000E+00 -0.98337622992E+03  0.98337622992E+03  0.00000000000E+00 0. -1.
         25    2    1    2    0    0  0.27700399599E+02  0.15499909385E+03  0.42344498989E+03  0.46874514439E+03  0.12499727874E+03 0.  0.
          2    1    1    2  501    0 -0.46094281345E+02 -0.13150465512E+03 -0.95550687323E+03  0.96561459282E+03  0.00000000000E+00 0. -1.
          1    1    1    2  502    0  0.18393881746E+02 -0.23494438731E+02  0.13453875089E+04  0.13457183482E+04  0.00000000000E+00 0. -1.
         22    1    3    3    0    0  0.32455587399E+02  0.14767909599E+03  0.23089964650E+03  0.27600204220E+03  0.00000000000E+00 0.  1.
         22    1    3    3    0    0 -0.47551878003E+01  0.73199978631E+01  0.19254534339E+03  0.19274310219E+03  0.00000000000E+00 0.  1.
</event>
<event>
 7    1  0.6122298E-006  0.7804535E+02  0.7818608E-02  0.1471746E+00
          2   -1    0    0  502    0  0.00000000000E+00  0.00000000000E+00  0.28079252018E+03  0.28079252018E+03  0.00000000000E+00 0. -1.
          1   -1    0    0  501    0 -0.00000000000E+00 -0.00000000000E+00 -0.88646305291E+02  0.88646305291E+02  0.00000000000E+00 0. -1.
         25    2    1    2    0    0  0.18150034476E+02  0.90714619259E+02  0.62880087551E+02  0.16774544550E+03  0.12500425263E+03 0.  0.
          2    1    1    2  501    0 -0.30251448750E+02 -0.67216442488E+02  0.41620314183E+01  0.73827656049E+02  0.00000000000E+00 0. -1.
          1    1    1    2  502    0  0.12101414274E+02 -0.23498176771E+02  0.12510409592E+03  0.12786572393E+03  0.00000000000E+00 0. -1.
         22    1    3    3    0    0  0.21172571344E+02  0.57764423632E+00 -0.31012237731E+02  0.37554897674E+02  0.00000000000E+00 0.  1.
         22    1    3    3    0    0 -0.30225368687E+01  0.90136975023E+02  0.93892325283E+02  0.13019054782E+03  0.00000000000E+00 0.  1.
</event>
<event>
 7    1  0.6122298E-006  0.3965118E+02  0.7818608E-02  0.1583353E+00
          2   -1    0    0  502    0  0.00000000000E+00  0.00000000000E+00  0.27506314794E+03  0.27506314794E+03  0.00000000000E+00 0. -1.
          1   -1    0    0  501    0 -0.00000000000E+00 -0.00000000000E+00 -0.26133762331E+03  0.26133762331E+03  0.00000000000E+00 0. -1.
         25    2    1    2    0    0  0.84122061283E+01 -0.13772684483E+02 -0.10581852501E+03  0.16459529403E+03  0.12503438939E+03 0.  0.
          2    1    1    2  501    0  0.20988761715E+02 -0.13263966333E+02 -0.12326112366E+03  0.12573689008E+03  0.00000000000E+00 0. -1.
          1    1    1    2  502    0 -0.29400967843E+02  0.27036650816E+02  0.24280517330E+03  0.24606858714E+03  0.00000000000E+00 0. -1.
         22    1    3    3    0    0  0.43156524947E+01 -0.28996450961E+02 -0.13135376757E+03  0.13458540515E+03  0.00000000000E+00 0.  1.
         22    1    3    3    0    0  0.40965536337E+01  0.15223766478E+02  0.25535242565E+02  0.30009888875E+02  0.00000000000E+00 0.  1.
</event>
<event>
 7    1  0.6122298E-006  0.5835928E+02  0.7818608E-02  0.1476718E+00
          2   -1    0    0  502    0  0.00000000000E+00  0.00000000000E+00  0.15181747607E+04  0.15181747607E+04  0.00000000000E+00 0. -1.
          1   -1    0    0  501    0 -0.00000000000E+00 -0.00000000000E+00 -0.74608206228E+03  0.74608206228E+03  0.00000000000E+00 0. -1.
         25    2    1    2    0    0  0.90244668233E+02  0.11297532112E+02  0.25835439815E+03  0.30104825273E+03  0.12494527222E+03 0.  0.
          2    1    1    2  501    0 -0.56309150158E+02 -0.14818267628E+02 -0.72333006675E+03  0.72566981949E+03  0.00000000000E+00 0. -1.
          1    1    1    2  502    0 -0.33935518075E+02  0.35207355164E+01  0.12370683670E+04  0.12375387507E+04  0.00000000000E+00 0. -1.
         22    1    3    3    0    0  0.59240317689E+02 -0.55236104231E+02  0.14196024417E+03  0.16344159010E+03  0.00000000000E+00 0. -1.
         22    1    3    3    0    0  0.31004350544E+02  0.66533636342E+02  0.11639415398E+03  0.13760666263E+03  0.00000000000E+00 0. -1.
</event>
<event>
 7    1  0.6122298E-006  0.5097807E+02  0.7818608E-02  0.1454949E+00
          2   -1    0    0  502    0  0.00000000000E+00  0.00000000000E+00  0.12511074343E+03  0.12511074343E+03  0.00000000000E+00 0. -1.
          1   -1    0    0  501    0 -0.00000000000E+00 -0.00000000000E+00 -0.14700812871E+04  0.14700812871E+04  0.00000000000E+00 0. -1.
         25    2    1    2    0    0 -0.31820929780E+02 -0.10680749773E+02 -0.11760801277E+04  0.11831805658E+04  0.12500053857E+03 0.  0.
          2    1    1    2  501    0  0.65917141249E+02  0.41095421578E+02 -0.28068776185E+03  0.29123791449E+03  0.00000000000E+00 0. -1.
          1    1    1    2  502    0 -0.34096211470E+02 -0.30414671805E+02  0.11179734584E+03  0.12077355023E+03  0.00000000000E+00 0. -1.
         22    1    3    3    0    0  0.43787249646E+02  0.12690374245E+02 -0.59375624070E+03  0.59550385574E+03  0.00000000000E+00 0. -1.
         22    1    3    3    0    0 -0.75608179426E+02 -0.23371124018E+02 -0.58232388696E+03  0.58767671007E+03  0.00000000000E+00 0. -1.
</event>
<event>
 7    1  0.6122298E-006  0.4482440E+02  0.7818608E-02  0.1544283E+00
          2   -1    0    0  502    0  0.00000000000E+00  0.00000000000E+00  0.69539465378E+03  0.69539465378E+03  0.00000000000E+00 0. -1.
          1   -1    0    0  501    0 -0.00000000000E+00 -0.00000000000E+00 -0.14057193030E+03  0.14057193030E+03  0.00000000000E+00 0. -1.
         25    2    1    2    0    0 -0.55125476994E+02  0.33355348157E+02  0.31891099324E+03  0.34854214300E+03  0.12500402541E+03 0.  0.
          2    1    1    2  501    0  0.12497636716E+02 -0.25168892944E+02 -0.12286188373E+03  0.12603454514E+03  0.00000000000E+00 0. -1.
          1    1    1    2  502    0  0.42627840279E+02 -0.81864552136E+01  0.35877361397E+03  0.36138989595E+03  0.00000000000E+00 0. -1.
         22    1    3    3    0    0  0.12139532268E+02 -0.39531827226E+02  0.99804200886E+02  0.10803245865E+03  0.00000000000E+00 0.  1.
         22    1    3    3    0    0 -0.67265009263E+02  0.72887175384E+02  0.21910679236E+03  0.24050968434E+03  0.00000000000E+00 0.  1.
</event>
<event>
 7    1  0.6122298E-006  0.4442665E+02  0.7818608E-02  0.1501048E+00
          2   -1    0    0  502    0  0.00000000000E+00  0.00000000000E+00  0.19264972215E+03  0.19264972215E+03  0.00000000000E+00 0. -1.
          1   -1    0    0  501    0 -0.00000000000E+00 -0.00000000000E+00 -0.23042968983E+04  0.23042968983E+04  0.00000000000E+00 0. -1.
         25    2    1    2    0    0 -0.32567174003E+02 -0.20865075841E+02 -0.54921944769E+03  0.56459882553E+03  0.12503543441E+03 0.  0.
          2    1    1    2  501    0 -0.90432153372E+01  0.36722639858E+02 -0.17444996794E+04  0.17449095861E+04  0.00000000000E+00 0. -1.
          1    1    1    2  502    0  0.41610389341E+02 -0.15857564016E+02  0.18207195093E+03  0.18743820889E+03  0.00000000000E+00 0. -1.
         22    1    3    3    0    0 -0.60511272301E+02  0.30215407693E+02 -0.21635823328E+03  0.22668363427E+03  0.00000000000E+00 0.  1.
         22    1    3    3    0    0  0.27944098298E+02 -0.51080483534E+02 -0.33286121441E+03  0.33791519126E+03  0.00000000000E+00 0.  1.
</event>
<event>
 7    1  0.6694092E-006  0.4664297E+02  0.7818608E-02  0.1518889E+00
          2   -1    0    0  502    0  0.00000000000E+00  0.00000000000E+00  0.59199243494E+03  0.59199243494E+03  0.00000000000E+00 0. -1.
          1   -1    0    0  501    0 -0.00000000000E+00 -0.00000000000E+00 -0.13925725200E+04  0.13925725200E+04  0.00000000000E+00 0. -1.
         25    2    1    2    0    0 -0.33651998337E+02 -0.63078677571E+02 -0.38276971884E+03  0.40896024660E+03  0.12499779631E+03 0.  0.
          2    1    1    2  501    0 -0.97731987867E+00  0.31904510284E+02 -0.99551376093E+03  0.99602535165E+03  0.00000000000E+00 0. -1.
          1    1    1    2  502    0  0.34629318215E+02  0.31174167286E+02  0.57770339473E+03  0.57957935666E+03  0.00000000000E+00 0. -1.
         22    1    3    3    0    0  0.17089629992E+02 -0.18222381322E+02 -0.30422392237E+03  0.30524794115E+03  0.00000000000E+00 0. -1.
         22    1    3    3    0    0 -0.50741628329E+02 -0.44856296249E+02 -0.78545796470E+02  0.10371230545E+03  0.00000000000E+00 0. -1.
</event>
<event>
 7    1  0.6122298E-006  0.9358494E+02  0.7818608E-02  0.1316598E+00
          2   -1    0    0  502    0  0.00000000000E+00  0.00000000000E+00  0.25485065517E+04  0.25485065517E+04  0.00000000000E+00 0. -1.
          1   -1    0    0  501    0 -0.00000000000E+00 -0.00000000000E+00 -0.10635847069E+04  0.10635847069E+04  0.00000000000E+00 0. -1.
         25    2    1    2    0    0 -0.10075330884E+03  0.44332998225E+02 -0.14014419943E+02  0.16714667436E+03  0.12499985124E+03 0.  0.
          2    1    1    2  501    0  0.36962854190E+02 -0.86373345224E+02 -0.97014407780E+03  0.97468258374E+03  0.00000000000E+00 0. -1.
          1    1    1    2  502    0  0.63790454653E+02  0.42040346999E+02  0.24690803426E+04  0.24702620005E+04  0.00000000000E+00 0. -1.
         22    1    3    3    0    0 -0.70521358313E+02  0.85237640159E+02  0.96465702734E+01  0.11104851911E+03  0.00000000000E+00 0.  1.
         22    1    3    3    0    0 -0.30231950530E+02 -0.40904641934E+02 -0.23660990217E+02  0.56098155251E+02  0.00000000000E+00 0.  1.
</event>
<event>
 7    1  0.6122298E-006  0.1194837E+03  0.7818608E-02  0.1323156E+00
          2   -1    0    0  502    0  0.00000000000E+00  0.00000000000E+00  0.70849608340E+03  0.70849608340E+03  0.00000000000E+00 0. -1.
          1   -1    0    0  501    0 -0.00000000000E+00 -0.00000000000E+00 -0.12465565374E+04  0.12465565374E+04  0.00000000000E+00 0. -1.
         25    2    1    2    0    0  0.76089719956E+02  0.32915869358E+02  0.58778356804E+02  0.16110128929E+03  0.12500252095E+03 0.  0.
          2    1    1    2  501    0 -0.12068527115E+03  0.16658756273E+01 -0.11910080740E+04  0.11971081581E+04  0.00000000000E+00 0. -1.
          1    1    1    2  502    0  0.44595551193E+02 -0.34581744985E+02  0.59416926322E+03  0.59684317339E+03  0.00000000000E+00 0. -1.
         22    1    3    3    0    0  0.16598950521E+02 -0.11206251175E+02 -0.35770481717E+02  0.40995519097E+02  0.00000000000E+00 0. -1.
         22    1    3    3    0    0  0.59490769435E+02  0.44122120533E+02  0.94548838521E+02  0.12010577019E+03  0.00000000000E+00 0. -1.
</event>
<event>
 7    1  0.6122298E-006  0.1049417E+03  0.7818608E-02  0.1302904E+00
          2   -1    0    0  502    0  0.00000000000E+00  0.00000000000E+00  0.14963473693E+04  0.14963473693E+04  0.00000000000E+00 0. -1.
          1   -1    0    0  501    0 -0.00000000000E+00 -0.00000000000E+00 -0.90483879920E+03  0.90483879920E+03  0.00000000000E+00 0. -1.
         25    2    1    2    0    0  0.10941014643E+03  0.13020587109E+03 -0.28541194611E+03  0.35497750543E+03  0.12499960547E+03 0.  0.
          2    1    1    2  501    0 -0.76820972782E+02 -0.60278598048E+02 -0.57953876731E+03  0.58770754126E+03  0.00000000000E+00 0. -1.
          1    1    1    2  502    0 -0.32589173647E+02 -0.69927273041E+02  0.14564592835E+04  0.14585011218E+04  0.00000000000E+00 0. -1.
         22    1    3    3    0    0  0.64370952478E+02  0.32103388333E+02 -0.30462203350E+02  0.78116534091E+02  0.00000000000E+00 0. -1.
         22    1    3    3    0    0  0.45039193951E+02  0.98102482755E+02 -0.25494974276E+03  0.27686097134E+03  0.00000000000E+00 0. -1.
</event>
<event>
 7    1  0.6122298E-006  0.7862050E+02  0.7818608E-02  0.1411163E+00
          2   -1    0    0  502    0  0.00000000000E+00  0.00000000000E+00  0.39529789479E+03  0.39529789479E+03  0.00000000000E+00 0. -1.
          1   -1    0    0  501    0 -0.00000000000E+00 -0.00000000000E+00 -0.27482741733E+04  0.27482741733E+04  0.00000000000E+00 0. -1.
         25    2    1    2    0    0 -0.10802162712E+03  0.34498609231E+02 -0.68846251745E+03  0.70884760634E+03  0.12500186042E+03 0.  0.
          2    1    1    2  501    0  0.66856500405E+02 -0.36829599154E+02 -0.20478024460E+04  0.20492245043E+04  0.00000000000E+00 0. -1.
          1    1    1    2  502    0  0.41165126714E+02  0.23309899229E+01  0.38328868498E+03  0.38549995746E+03  0.00000000000E+00 0. -1.
         22    1    3    3    0    0 -0.70363315142E+02 -0.43071868174E+02 -0.34480691618E+03  0.35453912533E+03  0.00000000000E+00 0. -1.
         22    1    3    3    0    0 -0.37658311977E+02  0.77570477405E+02 -0.34365560127E+03  0.35430848101E+03  0.00000000000E+00 0. -1.
</event>
<event>
 7    1  0.6122298E-006  0.1189124E+03  0.7818608E-02  0.1304828E+00
          2   -1    0    0  502    0  0.00000000000E+00  0.00000000000E+00  0.13942299261E+04  0.13942299261E+04  0.00000000000E+00 0. -1.
          1   -1    0    0  501    0 -0.00000000000E+00 -0.00000000000E+00 -0.12794518940E+03  0.12794518940E+03  0.00000000000E+00 0. -1.
         25    2    1    2    0    0 -0.75224074799E+02  0.67846332736E+02  0.33154403665E+03  0.36852703301E+03  0.12501575709E+03 0.  0.
          2    1    1    2  501    0  0.12070365867E+03 -0.18789952355E+02 -0.73913341587E+02  0.14277821119E+03  0.00000000000E+00 0. -1.
          1    1    1    2  502    0 -0.45479583872E+02 -0.49056380381E+02  0.10086540416E+04  0.10108698713E+04  0.00000000000E+00 0. -1.
         22    1    3    3    0    0 -0.40426440646E+02  0.88924156190E+01  0.14013332546E+02  0.43700636699E+02  0.00000000000E+00 0. -1.
         22    1    3    3    0    0 -0.34797634153E+02  0.58953917117E+02  0.31753070411E+03  0.32482639631E+03  0.00000000000E+00 0. -1.
</event>
<event>
 7    1  0.6122298E-006  0.4600984E+02  0.7818608E-02  0.1571769E+00
          2   -1    0    0  502    0  0.00000000000E+00  0.00000000000E+00  0.13602741246E+04  0.13602741246E+04  0.00000000000E+00 0. -1.
          1   -1    0    0  501    0 -0.00000000000E+00 -0.00000000000E+00 -0.45567852930E+03  0.45567852930E+03  0.00000000000E+00 0. -1.
         25    2    1    2    0    0 -0.23958824318E+02  0.29163734697E+02  0.30451330012E+03  0.33132855660E+03  0.12500285511E+03 0.  0.
          2    1    1    2  501    0  0.76959446005E+01 -0.45412300299E+02 -0.44094444402E+03  0.44334355447E+03  0.00000000000E+00 0. -1.
          1    1    1    2  502    0  0.16262879718E+02  0.16248565603E+02  0.10410267392E+04  0.10412805428E+04  0.00000000000E+00 0. -1.
         22    1    3    3    0    0 -0.57710108771E+02  0.37223325027E+02  0.85890950825E+02  0.10996948674E+03  0.00000000000E+00 0.  1.
         22    1    3    3    0    0  0.33751284453E+02 -0.80595903310E+01  0.21862234929E+03  0.22135906986E+03  0.00000000000E+00 0.  1.
</event>
<event>
 7    1  0.6122298E-006  0.3173170E+02  0.7818608E-02  0.1584320E+00
          2   -1    0    0  502    0  0.00000000000E+00  0.00000000000E+00  0.36115281812E+03  0.36115281812E+03  0.00000000000E+00 0. -1.
          1   -1    0    0  501    0 -0.00000000000E+00 -0.00000000000E+00 -0.21010069291E+04  0.21010069291E+04  0.00000000000E+00 0. -1.
         25    2    1    2    0    0 -0.53502281274E+01  0.52433819546E+02 -0.36497094180E+03  0.38936199510E+03  0.12498417699E+03 0.  0.
          2    1    1    2  501    0  0.19349646482E+02 -0.24952660145E+02 -0.17230140673E+04  0.17233033744E+04  0.00000000000E+00 0. -1.
          1    1    1    2  502    0 -0.13999418354E+02 -0.27481159401E+02  0.34813089812E+03  0.34949437772E+03  0.00000000000E+00 0. -1.
         22    1    3    3    0    0 -0.13554976739E+02 -0.37608977663E+02 -0.67463232052E+02  0.78418494465E+02  0.00000000000E+00 0. -1.
         22    1    3    3    0    0  0.82047486116E+01  0.90042797209E+02 -0.29750770975E+03  0.31094350064E+03  0.00000000000E+00 0. -1.
</event>
<event>
 7    1  0.6122298E-006  0.9449946E+02  0.7818608E-02  0.1478190E+00
          2   -1    0    0  502    0  0.00000000000E+00  0.00000000000E+00  0.10959345334E+03  0.10959345334E+03  0.00000000000E+00 0. -1.
          1   -1    0    0  501    0 -0.00000000000E+00 -0.00000000000E+00 -0.23599715674E+04  0.23599715674E+04  0.00000000000E+00 0. -1.
         25    2    1    2    0    0 -0.75010527568E+02  0.70606563993E+02 -0.27738346976E+03  0.32121312640E+03  0.12499766859E+03 0.  0.
          2    1    1    2  501    0  0.54993156930E+02 -0.76443749853E+02 -0.20583416917E+04  0.20604947013E+04  0.00000000000E+00 0. -1.
          1    1    1    2  502    0  0.20017370639E+02  0.58371858600E+01  0.85347047422E+02  0.87857193044E+02  0.00000000000E+00 0. -1.
         22    1    3    3    0    0 -0.91251897475E+02  0.94864528145E+02 -0.24060298846E+03  0.27425532912E+03  0.00000000000E+00 0.  1.
         22    1    3    3    0    0  0.16241369907E+02 -0.24257964153E+02 -0.36780481298E+02  0.46957797285E+02  0.00000000000E+00 0.  1.
</event>
<event>
 7    1  0.6122298E-006  0.4791074E+02  0.7818608E-02  0.1509592E+00
          2   -1    0    0  502    0  0.00000000000E+00  0.00000000000E+00  0.25154865868E+03  0.25154865868E+03  0.00000000000E+00 0. -1.
          1   -1    0    0  501    0 -0.00000000000E+00 -0.00000000000E+00 -0.12758533785E+03  0.12758533785E+03  0.00000000000E+00 0. -1.
         25    2    1    2    0    0 -0.29512262360E+02  0.42811049938E+01  0.15914119080E+03  0.20454753937E+03  0.12499790304E+03 0.  0.
          2    1    1    2  501    0  0.31355919129E+02 -0.37313742792E+02 -0.94689442429E+02  0.10649694631E+03  0.00000000000E+00 0. -1.
          1    1    1    2  502    0 -0.18436567686E+01  0.33032637798E+02  0.59511572460E+02  0.68089510843E+02  0.00000000000E+00 0. -1.
         22    1    3    3    0    0 -0.42983693121E+02 -0.48808357716E+02  0.48630526494E+02  0.81208261675E+02  0.00000000000E+00 0.  1.
         22    1    3    3    0    0  0.13471430761E+02  0.53089462710E+02  0.11051066431E+03  0.12333927770E+03  0.00000000000E+00 0.  1.
</event>
<event>
 7    1  0.6122298E-006  0.7666243E+02  0.7818608E-02  0.1347814E+00
          2   -1    0    0  502    0  0.00000000000E+00  0.00000000000E+00  0.72784097748E+03  0.72784097748E+03  0.00000000000E+00 0. -1.
          1   -1    0    0  501    0 -0.00000000000E+00 -0.00000000000E+00 -0.61589270035E+03  0.61589270035E+03  0.00000000000E+00 0. -1.
         25    2    1    2    0    0 -0.79694492608E+02 -0.37479445410E+01  0.17925881738E+03  0.23264778954E+03  0.12500404445E+03 0.  0.
          2    1    1    2  501    0  0.42569006363E+02  0.64187320142E+02 -0.58424895435E+03  0.58930380368E+03  0.00000000000E+00 0. -1.
          1    1    1    2  502    0  0.37125486245E+02 -0.60439375601E+02  0.51693841410E+03  0.52178208461E+03  0.00000000000E+00 0. -1.
         22    1    3    3    0    0  0.72344729608E+01 -0.17215589564E+02  0.13097915522E+03  0.13230364025E+03  0.00000000000E+00 0.  1.
         22    1    3    3    0    0 -0.86928965569E+02  0.13467645023E+02  0.48279662164E+02  0.10034414929E+03  0.00000000000E+00 0.  1.
</event>
<event>
 7    1  0.6122298E-006  0.7994864E+02  0.7818608E-02  0.1439640E+00
          2   -1    0    0  502    0  0.00000000000E+00  0.00000000000E+00  0.12225454575E+04  0.12225454575E+04  0.00000000000E+00 0. -1.
          1   -1    0    0  501    0 -0.00000000000E+00 -0.00000000000E+00 -0.74673285791E+02  0.74673285791E+02  0.00000000000E+00 0. -1.
         25    2    1    2    0    0  0.45219626780E+02 -0.68462565316E+02  0.92254667568E+03  0.93458531444E+03  0.12500161465E+03 0.  0.
          2    1    1    2  501    0 -0.66856563011E+02  0.44042940317E+02 -0.43989686161E+02  0.91349182251E+02  0.00000000000E+00 0. -1.
          1    1    1    2  502    0  0.21636936231E+02  0.24419624999E+02  0.26931518224E+03  0.27128424665E+03  0.00000000000E+00 0. -1.
         22    1    3    3    0    0 -0.39695084256E+02 -0.44665461166E+02  0.44105483954E+03  0.44508434551E+03  0.00000000000E+00 0. -1.
         22    1    3    3    0    0  0.84914711036E+02 -0.23797104151E+02  0.48149183614E+03  0.48950096893E+03  0.00000000000E+00 0. -1.
</event>
<event>
 7    1  0.6122298E-006  0.1159281E+03  0.7818608E-02  0.1337547E+00
          2   -1    0    0  502    0  0.00000000000E+00  0.00000000000E+00  0.14310653155E+04  0.14310653155E+04  0.00000000000E+00 0. -1.
          1   -1    0    0  501    0 -0.00000000000E+00 -0.00000000000E+00 -0.50720963410E+02  0.50720963410E+02  0.00000000000E+00 0. -1.
         25    2    1    2    0    0  0.36634629200E+02  0.11648545794E+03  0.35697136219E+03  0.39744732275E+03  0.12499945188E+03 0.  0.
          2    1    1    2  501    0  0.41488015991E+02 -0.30089104873E+02 -0.30375262348E+01  0.51340396069E+02  0.00000000000E+00 0. -1.
          1    1    1    2  502    0 -0.78122645190E+02 -0.86396353066E+02  0.10264105161E+04  0.10329985601E+04  0.00000000000E+00 0. -1.
         22    1    3    3    0    0 -0.33089958626E+02  0.82293793678E+02  0.12850272815E+03  0.15614149026E+03  0.00000000000E+00 0. -1.
         22    1    3    3    0    0  0.69724587826E+02  0.34191664261E+02  0.22846863404E+03  0.24130583249E+03  0.00000000000E+00 0. -1.
</event>
<event>
 7    1  0.6122298E-006  0.9931971E+02  0.7818608E-02  0.1286022E+00
          2   -1    0    0  502    0  0.00000000000E+00  0.00000000000E+00  0.78789381820E+03  0.78789381820E+03  0.00000000000E+00 0. -1.
          1   -1    0    0  501    0 -0.00000000000E+00 -0.00000000000E+00 -0.15286635971E+04  0.15286635971E+04  0.00000000000E+00 0. -1.
         25    2    1    2    0    0  0.32657535862E+02 -0.69023756381E+02  0.57877368119E+02  0.15749797266E+03  0.12500011223E+03 0.  0.
          2    1    1    2  501    0  0.62218988489E+02  0.78733603972E+02 -0.14737956140E+04  0.14772080743E+04  0.00000000000E+00 0. -1.
          1    1    1    2  502    0 -0.94876524350E+02 -0.97098475918E+01  0.67514846700E+03  0.68185136834E+03  0.00000000000E+00 0. -1.
         22    1    3    3    0    0  0.35959443829E+02  0.19470782175E+01 -0.28305918478E+02  0.45804996834E+02  0.00000000000E+00 0.  1.
         22    1    3    3    0    0 -0.33019079672E+01 -0.70970834598E+02  0.86183286597E+02  0.11169297582E+03  0.00000000000E+00 0.  1.
</event>
<event>
 7    1  0.6122298E-006  0.1040514E+03  0.7818608E-02  0.1448109E+00
          2   -1    0    0  502    0  0.00000000000E+00  0.00000000000E+00  0.19413296439E+04  0.19413296439E+04  0.00000000000E+00 0. -1.
          1   -1    0    0  501    0 -0.00000000000E+00 -0.00000000000E+00 -0.41440889362E+03  0.41440889362E+03  0.00000000000E+00 0. -1.
         25    2    1    2    0    0  0.45248375063E+02  0.96812279250E+02 -0.24135380154E+03  0.29205635769E+03  0.12500090275E+03 0.  0.
          2    1    1    2  501    0 -0.23036626930E+02  0.48396174029E+01 -0.14534352862E+03  0.14723739127E+03  0.00000000000E+00 0. -1.
          1    1    1    2  502    0 -0.22211748133E+02 -0.10165189665E+03  0.19136180804E+04  0.19164447885E+04  0.00000000000E+00 0. -1.
         22    1    3    3    0    0  0.34059222891E+02  0.12422088176E+03 -0.22208136890E+03  0.25673136260E+03  0.00000000000E+00 0.  1.
         22    1    3    3    0    0  0.11189152172E+02 -0.27408602514E+02 -0.19272432638E+02  0.35324995087E+02  0.00000000000E+00 0.  1.
</event>
<event>
 7    1  0.6122298E-006  0.1210113E+03  0.7818608E-02  0.1275965E+00
          2   -1    0    0  502    0  0.00000000000E+00  0.00000000000E+00  0.81265771994E+03  0.81265771994E+03  0.00000000000E+00 0. -1.
          1   -1    0    0  501    0 -0.00000000000E+00 -0.00000000000E+00 -0.79164655536E+03  0.79164655536E+03  0.00000000000E+00 0. -1.
         25    2    1    2    0    0 -0.12761045904E+03  0.16140043269E+03  0.28991615104E+03  0.37684296504E+03  0.12499886696E+03 0.  0.
          2    1    1    2  501    0  0.77375567290E+02 -0.91444708160E+02 -0.73945499406E+03  0.74909465444E+03  0.00000000000E+00 0. -1.
          1    1    1    2  502    0  0.50234891749E+02 -0.69955724525E+02  0.47055000761E+03  0.47836665582E+03  0.00000000000E+00 0. -1.
         22    1    3    3    0    0 -0.55967112790E+01  0.92923923554E+02  0.16415743724E+03  0.18871630281E+03  0.00000000000E+00 0. -1.
         22    1    3    3    0    0 -0.12201374776E+03  0.68476509132E+02  0.12575871380E+03  0.18812666223E+03  0.00000000000E+00 0. -1.
</event>
<event>
 7    1  0.6122298E-006  0.5443043E+02  0.7818608E-02  0.1434433E+00
          2   -1    0    0  502    0  0.00000000000E+00  0.00000000000E+00  0.15077958510E+04  0.15077958510E+04  0.00000000000E+00 0. -1.
          1   -1    0    0  501    0 -0.00000000000E+00 -0.00000000000E+00 -0.15716509043E+04  0.15716509043E+04  0.00000000000E+00 0. -1.
         25    2    1    2    0    0  0.22814254116E+02 -0.50611825162E+02  0.44525059878E+03  0.46578665911E+03  0.12500827593E+03 0.  0.
          2    1    1    2  501    0  0.26909860066E+02  0.47339127869E+02 -0.15603177093E+04  0.15612675900E+04  0.00000000000E+00 0. -1.
          1    1    1    2  502    0 -0.49724114182E+02  0.32726972927E+01  0.10512120571E+04  0.10523925062E+04  0.00000000000E+00 0. -1.
         22    1    3    3    0    0  0.14302406368E+02  0.23600573862E+02  0.31043786101E+03  0.31166201479E+03  0.00000000000E+00 0. -1.
         22    1    3    3    0    0  0.85118477482E+01 -0.74212399023E+02  0.13481273778E+03  0.15412464432E+03  0.00000000000E+00 0. -1.
</event>
<event>
 7    1  0.6122298E-006  0.2029509E+03  0.7818608E-02  0.1243156E+00
          2   -1    0    0  502    0  0.00000000000E+00  0.00000000000E+00  0.19833322680E+03  0.19833322680E+03  0.00000000000E+00 0. -1.
          1   -1    0    0  501    0 -0.00000000000E+00 -0.00000000000E+00 -0.17780999350E+04  0.17780999350E+04  0.00000000000E+00 0. -1.
         25    2    1    2    0    0 -0.16144010818E+03 -0.20861782663E+03 -0.43389954088E+03  0.52295341629E+03  0.12500863135E+03 0.  0.
          2    1    1    2  501    0  0.11437052971E+03  0.15558218318E+03 -0.12838778448E+04  0.12983176631E+04  0.00000000000E+00 0. -1.
          1    1    1    2  502    0  0.47069578464E+02  0.53035643455E+02  0.13801067756E+03  0.15516208240E+03  0.00000000000E+00 0. -1.
         22    1    3    3    0    0 -0.70821785139E+02 -0.15478515307E+03 -0.34640954552E+03  0.38597116743E+03  0.00000000000E+00 0.  1.
         22    1    3    3    0    0 -0.90618323037E+02 -0.53832673566E+02 -0.87489995362E+02  0.13698224886E+03  0.00000000000E+00 0.  1.
</event>
<event>
 7    1  0.6122298E-006  0.8990461E+02  0.7818608E-02  0.1368353E+00
          2   -1    0    0  502    0  0.00000000000E+00  0.00000000000E+00  0.19478898526E+04  0.19478898526E+04  0.00000000000E+00 0. -1.
          1   -1    0    0  501    0 -0.00000000000E+00 -0.00000000000E+00 -0.42061955103E+03  0.42061955103E+03  0.00000000000E+00 0. -1.
         25    2    1    2    0    0 -0.51140950025E+02  0.48424803474E+02  0.94906304674E+02  0.17202702229E+03  0.12500292544E+03 0.  0.
          2    1    1    2  501    0  0.31194791933E+02  0.40182617935E+02 -0.37922316944E+03  0.38261987673E+03  0.00000000000E+00 0. -1.
          1    1    1    2  502    0  0.19946158092E+02 -0.88607421409E+02  0.18115871664E+04  0.18138625046E+04  0.00000000000E+00 0. -1.
         22    1    3    3    0    0  0.52779018949E+01 -0.38324672273E+02  0.15872082197E+02  0.41815783461E+02  0.00000000000E+00 0. -1.
         22    1    3    3    0    0 -0.56418851920E+02  0.86749475747E+02  0.79034222477E+02  0.13021123883E+03  0.00000000000E+00 0. -1.
</event>
<event>
 7    1  0.6122298E-006  0.1040277E+03  0.7818608E-02  0.1314517E+00
          2   -1    0    0  502    0  0.00000000000E+00  0.00000000000E+00  0.60714929393E+03  0.60714929393E+03  0.00000000000E+00 0. -1.
          1   -1    0    0  501    0 -0.00000000000E+00 -0.00000000000E+00 -0.74412761365E+03  0.74412761365E+03  0.00000000000E+00 0. -1.
         25    2    1    2    0    0 -0.14589806659E+03 -0.73997148137E+02  0.14330612632E+03  0.25086137603E+03  0.12503183746E+03 0.  0.
          2    1    1    2  501    0  0.51874147620E+02  0.47042286419E+02 -0.68270068457E+03  0.68628283427E+03  0.00000000000E+00 0. -1.
          1    1    1    2  502    0  0.94023918966E+02  0.26954861718E+02  0.40241623854E+03  0.41413269727E+03  0.00000000000E+00 0. -1.
         22    1    3    3    0    0  0.95295559596E+01  0.13456825085E+02 -0.67220645389E+01  0.17806873106E+02  0.00000000000E+00 0.  1.
         22    1    3    3    0    0 -0.15542762255E+03 -0.87453973223E+02  0.15002819086E+03  0.23305450293E+03  0.00000000000E+00 0.  1.
</event>
<event>
 7    1  0.6122298E-006  0.1149922E+03  0.7818608E-02  0.1257873E+00
          2   -1    0    0  502    0  0.00000000000E+00  0.00000000000E+00  0.25318874248E+04  0.25318874248E+04  0.00000000000E+00 0. -1.
          1   -1    0    0  501    0 -0.00000000000E+00 -0.00000000000E+00 -0.14420559113E+04  0.14420559113E+04  0.00000000000E+00 0. -1.
         25    2    1    2    0    0  0.93616469477E+02  0.76552122862E+02  0.50413806154E+03  0.53329587438E+03  0.12500013467E+03 0.  0.
          2    1    1    2  501    0  0.22459173690E+02 -0.10569412421E+03 -0.14236491945E+04  0.14277439166E+04  0.00000000000E+00 0. -1.
          1    1    1    2  502    0 -0.11607564317E+03  0.29142001353E+02  0.20093426465E+04  0.20129035452E+04  0.00000000000E+00 0. -1.
         22    1    3    3    0    0  0.89592838415E+02  0.31464180650E+02  0.15896175852E+03  0.18516401387E+03  0.00000000000E+00 0. -1.
         22    1    3    3    0    0  0.40236310623E+01  0.45087942213E+02  0.34517630302E+03  0.34813186051E+03  0.00000000000E+00 0. -1.
</event>
<event>
 7    1  0.6122298E-006  0.1062714E+03  0.7818608E-02  0.1307815E+00
          2   -1    0    0  502    0  0.00000000000E+00  0.00000000000E+00  0.97011678816E+03  0.97011678816E+03  0.00000000000E+00 0. -1.
          1   -1    0    0  501    0 -0.00000000000E+00 -0.00000000000E+00 -0.25418217921E+04  0.25418217921E+04  0.00000000000E+00 0. -1.
         25    2    1    2    0    0  0.40724287398E+02  0.13868095695E+03 -0.96982948080E+02  0.21429547011E+03  0.12500392348E+03 0.  0.
          2    1    1    2  501    0 -0.75190013383E+02 -0.74512038075E+02 -0.23835507512E+04  0.23859002002E+04  0.00000000000E+00 0. -1.
          1    1    1    2  502    0  0.34465725985E+02 -0.64168918871E+02  0.90882869531E+03  0.91174290995E+03  0.00000000000E+00 0. -1.
         22    1    3    3    0    0  0.30904672448E+02  0.90768470010E+02 -0.12530180146E+03  0.15778008549E+03  0.00000000000E+00 0. -1.
         22    1    3    3    0    0  0.98196149498E+01  0.47912486936E+02  0.28318853378E+02  0.56515384620E+02  0.00000000000E+00 0. -1.
</event>
<event>
 7    1  0.6122298E-006  0.9133381E+02  0.7818608E-02  0.1445578E+00
          2   -1    0    0  502    0  0.00000000000E+00  0.00000000000E+00  0.10368069357E+04  0.10368069357E+04  0.00000000000E+00 0. -1.
          1   -1    0    0  501    0 -0.00000000000E+00 -0.00000000000E+00 -0.32213415691E+02  0.32213415691E+02  0.00000000000E+00 0. -1.
         25    2    1    2    0    0  0.89741545166E+02  0.44235164398E+02  0.58572857980E+03  0.60721709303E+03  0.12499733666E+03 0.  0.
          2    1    1    2  501    0 -0.23248023762E+02  0.14357644679E+02 -0.58471561191E+01  0.27942831000E+02  0.00000000000E+00 0. -1.
          1    1    1    2  502    0 -0.66493521403E+02 -0.58592809078E+02  0.42471209633E+03  0.43386042737E+03  0.00000000000E+00 0. -1.
         22    1    3    3    0    0  0.10836051340E+03 -0.15601415535E+01  0.44680431620E+03  0.45975921076E+03  0.00000000000E+00 0. -1.
         22    1    3    3    0    0 -0.18618968234E+02  0.45795305952E+02  0.13892426360E+03  0.14745788226E+03  0.00000000000E+00 0. -1.
</event>
<event>
 7    1  0.6122298E-006  0.3952191E+02  0.7818608E-02  0.1512604E+00
          2   -1    0    0  502    0  0.00000000000E+00  0.00000000000E+00  0.26056810431E+04  0.26056810431E+04  0.00000000000E+00 0. -1.
          1   -1    0    0  501    0 -0.00000000000E+00 -0.00000000000E+00 -0.79667255425E+01  0.79667255425E+01  0.00000000000E+00 0. -1.
         25    2    1    2    0    0 -0.18509000318E+02 -0.96319906011E+01  0.15790114021E+04  0.15840893243E+04  0.12500648393E+03 0.  0.
          2    1    1    2  501    0  0.15937744952E+02 -0.35920019213E+02  0.74282272165E+02  0.84036393619E+02  0.00000000000E+00 0. -1.
          1    1    1    2  502    0  0.25712553660E+01  0.45552009814E+02  0.94442064330E+03  0.94552205074E+03  0.00000000000E+00 0. -1.
         22    1    3    3    0    0 -0.53558039655E+02 -0.90117076177E+01  0.31899232026E+03  0.32358271720E+03  0.00000000000E+00 0.  1.
         22    1    3    3    0    0  0.35049039337E+02 -0.62028298335E+00  0.12600190818E+04  0.12605066071E+04  0.00000000000E+00 0.  1.
</event>
<event>
 7    1  0.6122298E-006  0.7881174E+02  0.7818608E-02  0.1443936E+00
          2   -1    0    0  502    0  0.00000000000E+00  0.00000000000E+00  0.84812097544E+03  0.84812097544E+03  0.00000000000E+00 0. -1.
          1   -1    0    0  501    0 -0.00000000000E+00 -0.00000000000E+00 -0.19808167606E+03  0.19808167606E+03  0.00000000000E+00 0. -1.
         25    2    1    2    0    0  0.76166069795E+02 -0.18130168636E+02  0.26320304000E+03  0.30171531156E+03  0.12500526293E+03 0.  0.
          2    1    1    2  501    0 -0.77794412208E+02 -0.13882375167E+02 -0.16961159023E+03  0.18711702875E+03  0.00000000000E+00 0. -1.
          1    1    1    2  502    0  0.16283424133E+01  0.32012543803E+02  0.55644784960E+03  0.55737031118E+03  0.00000000000E+00 0. -1.
         22    1    3    3    0    0  0.46939053197E+02 -0.55858973285E+02  0.64575169316E+02  0.97434347658E+02  0.00000000000E+00 0.  1.
         22    1    3    3    0    0  0.29227016599E+02  0.37728804649E+02  0.19862787069E+03  0.20428096390E+03  0.00000000000E+00 0.  1.
</event>
<event>
 7    1  0.6122298E-006  0.9537175E+02  0.7818608E-02  0.1423461E+00
          2   -1    0    0  502    0  0.00000000000E+00  0.00000000000E+00  0.41862478908E+03  0.41862478908E+03  0.00000000000E+00 0. -1.
          1   -1    0    0  501    0 -0.00000000000E+00 -0.00000000000E+00 -0.12396544037E+04  0.12396544037E+04  0.00000000000E+00 0. -1.
         25    2    1    2    0    0  0.78044449397E+00 -0.74225416764E+02 -0.36131182440E+03  0.38946344820E+03  0.12500208578E+03 0.  0.
          2    1    1    2  501    0 -0.24807901771E+02 -0.18439534954E+02 -0.85832150470E+03  0.85887790393E+03  0.00000000000E+00 0. -1.
          1    1    1    2  502    0  0.24027457277E+02  0.92664951717E+02  0.39860371449E+03  0.40993784063E+03  0.00000000000E+00 0. -1.
         22    1    3    3    0    0 -0.32180652719E+02 -0.61152058132E+02 -0.79102274194E+02  0.10503493898E+03  0.00000000000E+00 0.  1.
         22    1    3    3    0    0  0.32961097213E+02 -0.13073358632E+02 -0.28220955020E+03  0.28442850923E+03  0.00000000000E+00 0.  1.
</event>
<event>
 7    1  0.6122298E-006  0.7915596E+02  0.7818608E-02  0.1333293E+00
          2   -1    0    0  502    0  0.00000000000E+00  0.00000000000E+00  0.78516879459E+03  0.78516879459E+03  0.00000000000E+00 0. -1.
          1   -1    0    0  501    0 -0.00000000000E+00 -0.00000000000E+00 -0.20453949928E+04  0.20453949928E+04  0.00000000000E+00 0. -1.
         25    2    1    2    0    0  0.12885637493E+03 -0.88091776365E+02 -0.88288588731E+02  0.21860150957E+03  0.12501047422E+03 0.  0.
          2    1    1    2  501    0 -0.65001234145E+02  0.43476568728E+02 -0.18890316870E+04  0.18906496468E+04  0.00000000000E+00 0. -1.
          1    1    1    2  502    0 -0.63855140783E+02  0.44615207637E+02  0.71709407748E+03  0.72131263105E+03  0.00000000000E+00 0. -1.
         22    1    3    3    0    0  0.13883210310E+02  0.31285979018E+02 -0.15977761493E+02  0.37773600225E+02  0.00000000000E+00 0.  1.
         22    1    3    3    0    0  0.11497316462E+03 -0.11937775538E+03 -0.72310827238E+02  0.18082790935E+03  0.00000000000E+00 0.  1.
</event>
<event>
 7    1  0.6122298E-006  0.8728932E+02  0.7818608E-02  0.1456350E+00
          2   -1    0    0  502    0  0.00000000000E+00  0.00000000000E+00  0.15674326799E+04  0.15674326799E+04  0.00000000000E+00 0. -1.
          1   -1    0    0  501    0 -0.00000000000E+00 -0.00000000000E+00 -0.62050218969E+02  0.62050218969E+02  0.00000000000E+00 0. -1.
         25    2    1    2    0    0 -0.67384593385E+02  0.18094482386E+02  0.81593530800E+03  0.82839932696E+03  0.12500769717E+03 0.  0.
          2    1    1    2  501    0 -0.24479406632E+02  0.99167621009E+01 -0.49401767700E+02  0.56018909053E+02  0.00000000000E+00 0. -1.
          1    1    1    2  502    0  0.91864000017E+02 -0.28011244487E+02  0.73884892067E+03  0.74506466289E+03  0.00000000000E+00 0. -1.
         22    1    3    3    0    0 -0.37659590449E+02  0.46571508091E+02  0.15478107253E+03  0.16596484728E+03  0.00000000000E+00 0.  1.
         22    1    3    3    0    0 -0.29725002936E+02 -0.28477025705E+02  0.66115423548E+03  0.66243447969E+03  0.00000000000E+00 0.  1.
</event>
<event>
 7    1  0.6122298E-006  0.5960229E+02  0.7818608E-02  0.1424669E+00
          2   -1    0    0  502    0  0.00000000000E+00  0.00000000000E+00  0.41277278127E+03  0.41277278127E+03  0.00000000000E+00 0. -1.
          1   -1    0    0  501    0 -0.00000000000E+00 -0.00000000000E+00 -0.24531364645E+03  0.24531364645E+03  0.00000000000E+00 0. -1.
         25    2    1    2    0    0  0.31337495154E+02  0.43053018938E+02 -0.80369375480E+02  0.15786102773E+03  0.12500106607E+03 0.  0.
          2    1    1    2  501    0 -0.63931346159E+02 -0.64574012545E+01 -0.11626963100E+03  0.13284405198E+03  0.00000000000E+00 0. -1.
          1    1    1    2  502    0  0.32593851004E+02 -0.36595617684E+02  0.36409814131E+03  0.36738134800E+03  0.00000000000E+00 0. -1.
         22    1    3    3    0    0  0.21042165274E+02 -0.32372852495E+02 -0.71450015966E+02  0.81215017575E+02  0.00000000000E+00 0. -1.
         22    1    3    3    0    0  0.10295329880E+02  0.75425871434E+02 -0.89193595138E+01  0.76646010157E+02  0.00000000000E+00 0. -1.
</event>
<event>
 7    1  0.6122298E-006  0.9513645E+02  0.7818608E-02  0.1441451E+00
          2   -1    0    0  502    0  0.00000000000E+00  0.00000000000E+00  0.16936662963E+03  0.16936662963E+03  0.00000000000E+00 0. -1.
          1   -1    0    0  501    0 -0.00000000000E+00 -0.00000000000E+00 -0.15083284861E+03  0.15083284861E+03  0.00000000000E+00 0. -1.
         25    2    1    2    0    0 -0.51441710348E+02 -0.10273135619E+03  0.19729282132E+02  0.17092465257E+03  0.12500404463E+03 0.  0.
          2    1    1    2  501    0  0.13938746668E+02  0.23181424157E+02 -0.43856339533E+02  0.51527134617E+02  0.00000000000E+00 0. -1.
          1    1    1    2  502    0  0.37502963680E+02  0.79549932029E+02  0.42660838419E+02  0.97747691048E+02  0.00000000000E+00 0. -1.
         22    1    3    3    0    0 -0.89081547920E+02 -0.49744050596E+02 -0.29889568491E+01  0.10207314344E+03  0.00000000000E+00 0.  1.
         22    1    3    3    0    0  0.37639837573E+02 -0.52987305590E+02  0.22718238981E+02  0.68851509124E+02  0.00000000000E+00 0.  1.
</event>
<event>
 7    1  0.6122298E-006  0.4938478E+02  0.7818608E-02  0.1462290E+00
          2   -1    0    0  502    0  0.00000000000E+00  0.00000000000E+00  0.82263269738E+03  0.82263269738E+03  0.00000000000E+00 0. -1.
          1   -1    0    0  501    0 -0.00000000000E+00 -0.00000000000E+00 -0.76307652543E+02  0.76307652543E+02  0.00000000000E+00 0. -1.
         25    2    1    2    0    0  0.16480116243E+02  0.36109061465E+02  0.51190090109E+03  0.52843498653E+03  0.12500217561E+03 0.  0.
          2    1    1    2  501    0  0.34843898622E+02 -0.34996563018E+02 -0.56526409037E+02  0.75060586281E+02  0.00000000000E+00 0. -1.
          1    1    1    2  502    0 -0.51324014865E+02 -0.11124984470E+01  0.29095055278E+03  0.29544477711E+03  0.00000000000E+00 0. -1.
         22    1    3    3    0    0  0.52994723643E+02 -0.22198274837E+02  0.30591796233E+03  0.31126677275E+03  0.00000000000E+00 0. -1.
         22    1    3    3    0    0 -0.36514607400E+02  0.58307336302E+02  0.20598293876E+03  0.21716821378E+03  0.00000000000E+00 0. -1.
</event>
<event>
 7    1  0.6122298E-006  0.1296948E+03  0.7818608E-02  0.1388087E+00
          2   -1    0    0  502    0  0.00000000000E+00  0.00000000000E+00  0.47479299770E+03  0.47479299770E+03  0.00000000000E+00 0. -1.
          1   -1    0    0  501    0 -0.00000000000E+00 -0.00000000000E+00 -0.15318623894E+04  0.15318623894E+04  0.00000000000E+00 0. -1.
         25    2    1    2    0    0 -0.12928178537E+03  0.60688584481E+02 -0.42734660674E+03  0.46759703145E+03  0.12499990885E+03 0.  0.
          2    1    1    2  501    0  0.12378147946E+03 -0.31188877748E+02 -0.10801329525E+04  0.10876496660E+04  0.00000000000E+00 0. -1.
          1    1    1    2  502    0  0.55003059110E+01 -0.29499706733E+02  0.45041016757E+03  0.45140868967E+03  0.00000000000E+00 0. -1.
         22    1    3    3    0    0 -0.56916157464E+02  0.84721050338E+02 -0.32030453217E+03  0.33617272150E+03  0.00000000000E+00 0. -1.
         22    1    3    3    0    0 -0.72365627905E+02 -0.24032465857E+02 -0.10704207457E+03  0.13142430995E+03  0.00000000000E+00 0. -1.
</event>
<event>
 7    1  0.6122298E-006  0.5407252E+02  0.7818608E-02  0.1458876E+00
          2   -1    0    0  502    0  0.00000000000E+00  0.00000000000E+00  0.76894616922E+02  0.76894616922E+02  0.00000000000E+00 0. -1.
          1   -1    0    0  501    0 -0.00000000000E+00 -0.00000000000E+00 -0.12594888864E+04  0.12594888864E+04  0.00000000000E+00 0. -1.
         25    2    1    2    0    0  0.87858006681E+02  0.37443244745E+02 -0.23656481371E+02  0.15907854231E+03  0.12500131039E+03 0.  0.
          2    1    1    2  501    0 -0.49855295300E+02 -0.19894418691E+02 -0.11161750172E+04  0.11174649915E+04  0.00000000000E+00 0. -1.
          1    1    1    2  502    0 -0.38002711381E+02 -0.17548826054E+02 -0.42762770949E+02  0.59839969480E+02  0.00000000000E+00 0. -1.
         22    1    3    3    0    0  0.21296424261E+02  0.69015837938E+02 -0.41469836693E+02  0.83285478494E+02  0.00000000000E+00 0. -1.
         22    1    3    3    0    0  0.66561582420E+02 -0.31572593193E+02  0.17813355321E+02  0.75793063819E+02  0.00000000000E+00 0. -1.
</event>
<event>
 7    1  0.6122298E-006  0.1124546E+03  0.7818608E-02  0.1301293E+00
          2   -1    0    0  502    0  0.00000000000E+00  0.00000000000E+00  0.13652486398E+04  0.13652486398E+04  0.00000000000E+00 0. -1.
          1   -1    0    0  501    0 -0.00000000000E+00 -0.00000000000E+00 -0.14942938230E+04  0.14942938230E+04  0.00000000000E+00 0. -1.
         25    2    1    2    0    0  0.30287103499E+02 -0.28659074711E+02  0.47478157165E+02  0.14010422802E+03  0.12504546414E+03 0.  0.
          2    1    1    2  501    0 -0.92786267544E+02  0.66511623267E+02 -0.14446773001E+04  0.14491810063E+04  0.00000000000E+00 0. -1.
          1    1    1    2  502    0  0.62499164046E+02 -0.37852548556E+02  0.12681539597E+04  0.12702572285E+04  0.00000000000E+00 0. -1.
         22    1    3    3    0    0 -0.68950795572E+01 -0.61582915059E+02 -0.11473784750E+02  0.63020990835E+02  0.00000000000E+00 0. -1.
         22    1    3    3    0    0  0.37182183056E+02  0.32923840348E+02  0.58951941915E+02  0.77083237190E+02  0.00000000000E+00 0. -1.
</event>
<event>
 7    1  0.6122298E-006  0.1070877E+03  0.7818608E-02  0.1354635E+00
          2   -1    0    0  502    0  0.00000000000E+00  0.00000000000E+00  0.35639409679E+04  0.35639409679E+04  0.00000000000E+00 0. -1.
          1   -1    0    0  501    0 -0.00000000000E+00 -0.00000000000E+00 -0.20608959111E+04  0.20608959111E+04  0.00000000000E+00 0. -1.
         25    2    1    2    0    0 -0.85430905823E+01 -0.64463863906E+02  0.13932657152E+03  0.19815508874E+03  0.12499988606E+03 0.  0.
          2    1    1    2  501    0  0.41720435389E+02  0.99031913847E+02 -0.20298913045E+04  0.20327337806E+04  0.00000000000E+00 0. -1.
          1    1    1    2  502    0 -0.33177344807E+02 -0.34568049941E+02  0.33936097898E+04  0.33939480096E+04  0.00000000000E+00 0. -1.
         22    1    3    3    0    0 -0.87732196006E+00 -0.23892882617E+02  0.15284949167E+03  0.15470813372E+03  0.00000000000E+00 0. -1.
         22    1    3    3    0    0 -0.76657686222E+01 -0.40570981289E+02 -0.13522920151E+02  0.43446955023E+02  0.00000000000E+00 0. -1.
</event>
<event>
 7    1  0.6122298E-006  0.1224445E+03  0.7818608E-02  0.1356309E+00
          2   -1    0    0  502    0  0.00000000000E+00  0.00000000000E+00  0.47524630907E+03  0.47524630907E+03  0.00000000000E+00 0. -1.
          1   -1    0    0  501    0 -0.00000000000E+00 -0.00000000000E+00 -0.18459409890E+04  0.18459409890E+04  0.00000000000E+00 0. -1.
         25    2    1    2    0    0 -0.13107338783E+03 -0.47621739851E+02  0.78369356004E+02  0.20301344605E+03  0.12499856083E+03 0.  0.
          2    1    1    2  501    0  0.11029209204E+02  0.39815196533E+02 -0.17725564218E+04  0.17730378343E+04  0.00000000000E+00 0. -1.
          1    1    1    2  502    0  0.12004417863E+03  0.78065433172E+01  0.32349238593E+03  0.34513601767E+03  0.00000000000E+00 0. -1.
         22    1    3    3    0    0 -0.47480463464E+02 -0.93682784581E+01  0.97739540069E+02  0.10906501155E+03  0.00000000000E+00 0.  1.
         22    1    3    3    0    0 -0.83592924370E+02 -0.38253461392E+02 -0.19370184064E+02  0.93948434494E+02  0.00000000000E+00 0.  1.
</event>
<event>
 7    1  0.6122298E-006  0.8359148E+02  0.7818608E-02  0.1457644E+00
          2   -1    0    0  502    0  0.00000000000E+00  0.00000000000E+00  0.39645715147E+03  0.39645715147E+03  0.00000000000E+00 0. -1.
          1   -1    0    0  501    0 -0.00000000000E+00 -0.00000000000E+00 -0.55384834080E+03  0.55384834080E+03  0.00000000000E+00 0. -1.
         25    2    1    2    0    0 -0.50340388799E+02 -0.35635791315E+02 -0.67610474326E+02  0.15492172725E+03  0.12500200386E+03 0.  0.
          2    1    1    2  501    0  0.60154236712E+02  0.61133552751E+02 -0.43788688287E+03  0.44620708831E+03  0.00000000000E+00 0. -1.
          1    1    1    2  502    0 -0.98138479132E+01 -0.25497761436E+02  0.34810616787E+03  0.34917667671E+03  0.00000000000E+00 0. -1.
         22    1    3    3    0    0  0.37627085829E+01  0.43232401395E+02 -0.26269967169E+02  0.50727799887E+02  0.00000000000E+00 0. -1.
         22    1    3    3    0    0 -0.54103097382E+02 -0.78868192710E+02 -0.41340507157E+02  0.10419392736E+03  0.00000000000E+00 0. -1.
</event>
<event>
 7    1  0.6122298E-006  0.1264076E+03  0.7818608E-02  0.1321021E+00
          2   -1    0    0  502    0  0.00000000000E+00  0.00000000000E+00  0.20417070480E+04  0.20417070480E+04  0.00000000000E+00 0. -1.
          1   -1    0    0  501    0 -0.00000000000E+00 -0.00000000000E+00 -0.10563074525E+04  0.10563074525E+04  0.00000000000E+00 0. -1.
         25    2    1    2    0    0  0.68327854838E+01 -0.78193234594E+02  0.88432733829E+02  0.17206458530E+03  0.12500001684E+03 0.  0.
          2    1    1    2  501    0  0.17660893104E+02  0.12672820016E+03 -0.10100680868E+04  0.10181402083E+04  0.00000000000E+00 0. -1.
          1    1    1    2  502    0 -0.24493678588E+02 -0.48534965562E+02  0.19070349484E+04  0.19078097069E+04  0.00000000000E+00 0. -1.
         22    1    3    3    0    0 -0.21195514057E+02 -0.68312631431E+02 -0.72320052110E+01  0.71889966814E+02  0.00000000000E+00 0.  1.
         22    1    3    3    0    0  0.28028299541E+02 -0.98806031627E+01  0.95664739040E+02  0.10017461849E+03  0.00000000000E+00 0.  1.
</event>
<event>
 7    1  0.6122298E-006  0.5923657E+02  0.7818608E-02  0.1458145E+00
          2   -1    0    0  502    0  0.00000000000E+00  0.00000000000E+00  0.18092712188E+04  0.18092712188E+04  0.00000000000E+00 0. -1.
          1   -1    0    0  501    0 -0.00000000000E+00 -0.00000000000E+00 -0.20023135560E+02  0.20023135560E+02  0.00000000000E+00 0. -1.
         25    2    1    2    0    0  0.47507389063E+02 -0.53402253626E+02  0.47688347741E+03  0.49814811706E+03  0.12499977117E+03 0.  0.
          2    1    1    2  501    0 -0.93564321589E+01  0.57886471345E+02  0.85472685839E+02  0.10365310614E+03  0.00000000000E+00 0. -1.
          1    1    1    2  502    0 -0.38150956904E+02 -0.44842177183E+01  0.12268919200E+04  0.12274931311E+04  0.00000000000E+00 0. -1.
         22    1    3    3    0    0  0.74394076201E+02 -0.49184925946E+02  0.45374387866E+03  0.46242528363E+03  0.00000000000E+00 0. -1.
         22    1    3    3    0    0 -0.26886687138E+02 -0.42173276801E+01  0.23139598749E+02  0.35722833431E+02  0.00000000000E+00 0. -1.
</event>
<event>
 7    1  0.6122298E-006  0.6080570E+02  0.7818608E-02  0.1493145E+00
          2   -1    0    0  502    0  0.00000000000E+00  0.00000000000E+00  0.10048771702E+03  0.10048771702E+03  0.00000000000E+00 0. -1.
          1   -1    0    0  501    0 -0.00000000000E+00 -0.00000000000E+00 -0.46624253397E+03  0.46624253397E+03  0.00000000000E+00 0. -1.
         25    2    1    2    0    0 -0.42857740112E+02  0.12218091667E+02 -0.30058460639E+03  0.32857656752E+03  0.12500154989E+03 0.  0.
          2    1    1    2  501    0  0.70973287723E+02 -0.44058034218E+01 -0.14044477284E+03  0.15742094172E+03  0.00000000000E+00 0. -1.
          1    1    1    2  502    0 -0.28115547611E+02 -0.78122882454E+01  0.75274562275E+02  0.80732741752E+02  0.00000000000E+00 0. -1.
         22    1    3    3    0    0 -0.41392449919E+02  0.60655050848E+02 -0.11246586884E+03  0.13431657291E+03  0.00000000000E+00 0. -1.
         22    1    3    3    0    0 -0.14652901933E+01 -0.48436959181E+02 -0.18811873755E+03  0.19425999461E+03  0.00000000000E+00 0. -1.
</event>
<event>
 7    1  0.6122298E-006  0.1004201E+03  0.7818608E-02  0.1449277E+00
          2   -1    0    0  502    0  0.00000000000E+00  0.00000000000E+00  0.68164261235E+03  0.68164261235E+03  0.00000000000E+00 0. -1.
          1   -1    0    0  501    0 -0.00000000000E+00 -0.00000000000E+00 -0.21849904199E+03  0.21849904199E+03  0.00000000000E+00 0. -1.
         25    2    1    2    0    0 -0.71926463238E+02 -0.70590485373E+02  0.56276283646E+03  0.58522083699E+03  0.12499994084E+03 0.  0.
          2    1    1    2  501    0  0.52849755182E+02  0.85450464634E+02 -0.19347074864E+03  0.21800414929E+03  0.00000000000E+00 0. -1.
          1    1    1    2  502    0  0.19076708056E+02 -0.14859979261E+02  0.93851482536E+02  0.96916668061E+02  0.00000000000E+00 0. -1.
         22    1    3    3    0    0 -0.42009857814E+02 -0.78956835015E+02  0.17799931389E+03  0.19920533551E+03  0.00000000000E+00 0. -1.
         22    1    3    3    0    0 -0.29916605424E+02  0.83663496422E+01  0.38476352257E+03  0.38601550148E+03  0.00000000000E+00 0. -1.
</event>
<event>
 7    1  0.6122298E-006  0.1605822E+03  0.7818608E-02  0.1307314E+00
          2   -1    0    0  502    0  0.00000000000E+00  0.00000000000E+00  0.17703995896E+04  0.17703995896E+04  0.00000000000E+00 0. -1.
          1   -1    0    0  501    0 -0.00000000000E+00 -0.00000000000E+00 -0.33626907271E+03  0.33626907271E+03  0.00000000000E+00 0. -1.
         25    2    1    2    0    0  0.18573451978E+03 -0.27676393073E+02  0.66339190217E+02  0.23513618958E+03  0.12499937968E+03 0.  0.
          2    1    1    2  501    0 -0.26713327905E+02  0.40389776275E+02 -0.24557218764E+03  0.25030108921E+03  0.00000000000E+00 0. -1.
          1    1    1    2  502    0 -0.15902119188E+03 -0.12713383202E+02  0.16133635143E+04  0.16212313835E+04  0.00000000000E+00 0. -1.
         22    1    3    3    0    0  0.94040835915E+02 -0.69196217534E+02  0.66730244634E+02  0.13447944411E+03  0.00000000000E+00 0. -1.
         22    1    3    3    0    0  0.91693683868E+02  0.41519824461E+02 -0.39105441670E+00  0.10065674547E+03  0.00000000000E+00 0. -1.
</event>
<event>
 7    1  0.6122298E-006  0.1999522E+03  0.7818608E-02  0.1219028E+00
          2   -1    0    0  502    0  0.00000000000E+00  0.00000000000E+00  0.52770789173E+03  0.52770789173E+03  0.00000000000E+00 0. -1.
          1   -1    0    0  501    0 -0.00000000000E+00 -0.00000000000E+00 -0.22388867539E+03  0.22388867539E+03  0.00000000000E+00 0. -1.
         25    2    1    2    0    0 -0.14672269059E+03 -0.14391721016E+03  0.11097478175E+03  0.26491654926E+03  0.12500265826E+03 0.  0.
          2    1    1    2  501    0  0.67975448165E+02  0.19205564019E+03 -0.64168965034E+02  0.21359701907E+03  0.00000000000E+00 0. -1.
          1    1    1    2  502    0  0.78747242425E+02 -0.48138430037E+02  0.25701339963E+03  0.27308299878E+03  0.00000000000E+00 0. -1.
         22    1    3    3    0    0 -0.12197523616E+03 -0.12100094446E+03  0.26353003669E+02  0.17382079162E+03  0.00000000000E+00 0.  1.
         22    1    3    3    0    0 -0.24747454432E+02 -0.22916265695E+02  0.84621778081E+02  0.91095757639E+02  0.00000000000E+00 0.  1.
</event>
<event>
 7    1  0.6122298E-006  0.7433729E+02  0.7818608E-02  0.1377512E+00
          2   -1    0    0  502    0  0.00000000000E+00  0.00000000000E+00  0.13873596613E+03  0.13873596613E+03  0.00000000000E+00 0. -1.
          1   -1    0    0  501    0 -0.00000000000E+00 -0.00000000000E+00 -0.18463925817E+04  0.18463925817E+04  0.00000000000E+00 0. -1.
         25    2    1    2    0    0  0.31610879278E+02 -0.49385357133E+02  0.10311716270E+02  0.13847625589E+03  0.12502472061E+03 0.  0.
          2    1    1    2  501    0  0.51432055407E+02  0.24685608909E+02 -0.17524689351E+04  0.17533972750E+04  0.00000000000E+00 0. -1.
          1    1    1    2  502    0 -0.83042934685E+02  0.24699748225E+02  0.34500603224E+02  0.93255016950E+02  0.00000000000E+00 0. -1.
         22    1    3    3    0    0  0.72771515305E+02 -0.19197282618E+02 -0.21573024343E+02  0.78291918350E+02  0.00000000000E+00 0.  1.
         22    1    3    3    0    0 -0.41160636027E+02 -0.30188074516E+02  0.31884740612E+02  0.60184337539E+02  0.00000000000E+00 0.  1.
</event>
<event>
 7    1  0.6122298E-006  0.1849798E+03  0.7818608E-02  0.1200174E+00
          2   -1    0    0  502    0  0.00000000000E+00  0.00000000000E+00  0.41485972068E+03  0.41485972068E+03  0.00000000000E+00 0. -1.
          1   -1    0    0  501    0 -0.00000000000E+00 -0.00000000000E+00 -0.35972214378E+03  0.35972214378E+03  0.00000000000E+00 0. -1.
         25    2    1    2    0    0 -0.16477064289E+03 -0.43885628596E+02 -0.23911643164E+03  0.31918288985E+03  0.12500294451E+03 0.  0.
          2    1    1    2  501    0 -0.89068131337E+01  0.12170476830E+03  0.23218668367E+02  0.12421951742E+03  0.00000000000E+00 0. -1.
          1    1    1    2  502    0  0.17367745603E+03 -0.77819139708E+02  0.27103534017E+03  0.33117945718E+03  0.00000000000E+00 0. -1.
         22    1    3    3    0    0 -0.73956927773E+02 -0.69204693259E+02 -0.18384116578E+03  0.20989638151E+03  0.00000000000E+00 0. -1.
         22    1    3    3    0    0 -0.90813715121E+02  0.25319064664E+02 -0.55275265858E+02  0.10928650834E+03  0.00000000000E+00 0. -1.
</event>
<event>
 7    1  0.6122298E-006  0.1282148E+03  0.7818608E-02  0.1385807E+00
          2   -1    0    0  502    0  0.00000000000E+00  0.00000000000E+00  0.92351209317E+03  0.92351209317E+03  0.00000000000E+00 0. -1.
          1   -1    0    0  501    0 -0.00000000000E+00 -0.00000000000E+00 -0.12786935061E+04  0.12786935061E+04  0.00000000000E+00 0. -1.
         25    2    1    2    0    0  0.67498592586E+02  0.83782519548E+02  0.96530047628E+02  0.19109954397E+03  0.12500166010E+03 0.  0.
          2    1    1    2  501    0 -0.41667155081E+01  0.30636241929E+02 -0.12257287194E+04  0.12261186054E+04  0.00000000000E+00 0. -1.
          1    1    1    2  502    0 -0.63331877078E+02 -0.11441876148E+03  0.77401725883E+03  0.78498744996E+03  0.00000000000E+00 0. -1.
         22    1    3    3    0    0  0.11743723568E+02  0.17101258862E+02 -0.30676719760E+02  0.37032812925E+02  0.00000000000E+00 0.  1.
         22    1    3    3    0    0  0.55754869018E+02  0.66681260686E+02  0.12720676739E+03  0.15406673105E+03  0.00000000000E+00 0.  1.
</event>
<event>
 7    1  0.6122298E-006  0.4045962E+03  0.7818608E-02  0.1203640E+00
          2   -1    0    0  502    0  0.00000000000E+00  0.00000000000E+00  0.46027873548E+03  0.46027873548E+03  0.00000000000E+00 0. -1.
          1   -1    0    0  501    0 -0.00000000000E+00 -0.00000000000E+00 -0.21527212129E+04  0.21527212129E+04  0.00000000000E+00 0. -1.
         25    2    1    2    0    0 -0.19136658896E+03 -0.29747304300E+03  0.27827508607E+03  0.46708966603E+03  0.12499739959E+03 0.  0.
          2    1    1    2  501    0  0.22311617777E+03  0.34082834019E+03 -0.20273315624E+04  0.20678534886E+04  0.00000000000E+00 0. -1.
          1    1    1    2  502    0 -0.31749588810E+02 -0.43355297196E+02  0.56613998904E+02  0.78056793788E+02  0.00000000000E+00 0. -1.
         22    1    3    3    0    0 -0.15651870395E+03 -0.30037969584E+03  0.23924480207E+03  0.41468559377E+03  0.00000000000E+00 0.  1.
         22    1    3    3    0    0 -0.34847885010E+02  0.29066528474E+01  0.39030284003E+02  0.52404072264E+02  0.00000000000E+00 0.  1.
</event>
<event>
 7    1  0.6122298E-006  0.1343294E+03  0.7818608E-02  0.1366573E+00
          2   -1    0    0  502    0  0.00000000000E+00  0.00000000000E+00  0.24264881899E+04  0.24264881899E+04  0.00000000000E+00 0. -1.
          1   -1    0    0  501    0 -0.00000000000E+00 -0.00000000000E+00 -0.31202923420E+03  0.31202923420E+03  0.00000000000E+00 0. -1.
         25    2    1    2    0    0 -0.12617021985E+03 -0.78006669301E+02  0.15871840495E+03  0.25063991530E+03  0.12499948096E+03 0.  0.
          2    1    1    2  501    0 -0.44875254358E+00  0.34550803017E+02 -0.26292056526E+03  0.26518141527E+03  0.00000000000E+00 0. -1.
          1    1    1    2  502    0  0.12661897239E+03  0.43455866284E+02  0.22186611160E+04  0.22226960935E+04  0.00000000000E+00 0. -1.
         22    1    3    3    0    0 -0.87436780704E+02  0.17214528971E+02  0.55613784141E+02  0.10504486477E+03  0.00000000000E+00 0. -1.
         22    1    3    3    0    0 -0.38733439145E+02 -0.95221198272E+02  0.10310462081E+03  0.14559505053E+03  0.00000000000E+00 0. -1.
</event>
<event>
 7    1  0.6122298E-006  0.2041121E+03  0.7818608E-02  0.1214318E+00
          2   -1    0    0  502    0  0.00000000000E+00  0.00000000000E+00  0.70898343536E+03  0.70898343536E+03  0.00000000000E+00 0. -1.
          1   -1    0    0  501    0 -0.00000000000E+00 -0.00000000000E+00 -0.66195546256E+03  0.66195546256E+03  0.00000000000E+00 0. -1.
         25    2    1    2    0    0 -0.23131265601E+03  0.12840099019E+03 -0.95789067491E+02  0.30788432058E+03  0.12499940117E+03 0.  0.
          2    1    1    2  501    0  0.18907878373E+03 -0.43278670368E+02 -0.43562609483E+03  0.47685839015E+03  0.00000000000E+00 0. -1.
          1    1    1    2  502    0  0.42233872286E+02 -0.85122319825E+02  0.57844313512E+03  0.58619618719E+03  0.00000000000E+00 0. -1.
         22    1    3    3    0    0 -0.94225179699E+02  0.48004433659E+02 -0.10456806571E+03  0.14871883037E+03  0.00000000000E+00 0.  1.
         22    1    3    3    0    0 -0.13708747632E+03  0.80396556535E+02  0.87789982160E+01  0.15916549021E+03  0.00000000000E+00 0.  1.
</event>
<event>
 7    1  0.6122298E-006  0.1902105E+03  0.7818608E-02  0.1332518E+00
          2   -1    0    0  502    0  0.00000000000E+00  0.00000000000E+00  0.43932881105E+03  0.43932881105E+03  0.00000000000E+00 0. -1.
          1   -1    0    0  501    0 -0.00000000000E+00 -0.00000000000E+00 -0.79254421991E+03  0.79254421991E+03  0.00000000000E+00 0. -1.
         25    2    1    2    0    0 -0.53488180034E+02 -0.18146632272E+03  0.33234960108E+02  0.22915136738E+03  0.12495909297E+03 0.  0.
          2    1    1    2  501    0  0.31528134313E+02 -0.84375261508E+01 -0.66449623527E+03  0.66529727324E+03  0.00000000000E+00 0. -1.
          1    1    1    2  502    0  0.21960045721E+02  0.18990384887E+03  0.27804586631E+03  0.33742439033E+03  0.00000000000E+00 0. -1.
         22    1    3    3    0    0 -0.34397422544E+02 -0.15429130049E+03  0.75677272119E+02  0.17525991441E+03  0.00000000000E+00 0. -1.
         22    1    3    3    0    0 -0.19090757490E+02 -0.27175022228E+02 -0.42442312011E+02  0.53891452972E+02  0.00000000000E+00 0. -1.
</event>
<event>
 7    1  0.6122298E-006  0.1120641E+03  0.7818608E-02  0.1281628E+00
          2   -1    0    0  502    0  0.00000000000E+00  0.00000000000E+00  0.13820744763E+04  0.13820744763E+04  0.00000000000E+00 0. -1.
          1   -1    0    0  501    0 -0.00000000000E+00 -0.00000000000E+00 -0.16896259681E+04  0.16896259681E+04  0.00000000000E+00 0. -1.
         25    2    1    2    0    0  0.25968502979E+02 -0.19511801560E+03 -0.49389808691E+01  0.23322592934E+03  0.12499814970E+03 0.  0.
          2    1    1    2  501    0 -0.93449501077E+00  0.11063650118E+03 -0.15670598656E+04  0.15709608305E+04  0.00000000000E+00 0. -1.
          1    1    1    2  502    0 -0.25034007968E+02  0.84481514422E+02  0.12644473546E+04  0.12675136845E+04  0.00000000000E+00 0. -1.
         22    1    3    3    0    0  0.28114346724E+00 -0.13131990323E+03  0.54639085776E+02  0.14223370107E+03  0.00000000000E+00 0.  1.
         22    1    3    3    0    0  0.25687359512E+02 -0.63798112367E+02 -0.59578066645E+02  0.90992228270E+02  0.00000000000E+00 0.  1.
</event>
<event>
 7    1  0.6122298E-006  0.6222037E+02  0.7818608E-02  0.1444385E+00
          2   -1    0    0  502    0  0.00000000000E+00  0.00000000000E+00  0.10350444988E+04  0.10350444988E+04  0.00000000000E+00 0. -1.
          1   -1    0    0  501    0 -0.00000000000E+00 -0.00000000000E+00 -0.37162362372E+03  0.37162362372E+03  0.00000000000E+00 0. -1.
         25    2    1    2    0    0  0.36055219188E+02  0.40246491900E+02 -0.11966711364E+03  0.18131144097E+03  0.12503544137E+03 0.  0.
          2    1    1    2  501    0  0.25652767315E+02 -0.31295830906E+02 -0.21830524372E+03  0.22202403685E+03  0.00000000000E+00 0. -1.
          1    1    1    2  502    0 -0.61707986504E+02 -0.89506609943E+01  0.10013932324E+04  0.10033326447E+04  0.00000000000E+00 0. -1.
         22    1    3    3    0    0  0.66104714646E+02 -0.86409024123E+01 -0.10090226944E+03  0.12093703515E+03  0.00000000000E+00 0. -1.
         22    1    3    3    0    0 -0.30049495458E+02  0.48887394312E+02 -0.18764844200E+02  0.60374405817E+02  0.00000000000E+00 0. -1.
</event>
<event>
 7    1  0.6122298E-006  0.1480960E+03  0.7818608E-02  0.1260772E+00
          2   -1    0    0  502    0  0.00000000000E+00  0.00000000000E+00  0.10103501664E+04  0.10103501664E+04  0.00000000000E+00 0. -1.
          1   -1    0    0  501    0 -0.00000000000E+00 -0.00000000000E+00 -0.41318739045E+03  0.41318739045E+03  0.00000000000E+00 0. -1.
         25    2    1    2    0    0 -0.25567924569E+02 -0.97055596025E+02  0.35159270973E+03  0.38641484717E+03  0.12500197236E+03 0.  0.
          2    1    1    2  501    0  0.10659277665E+03  0.10622117106E+03 -0.37872435219E+03  0.40752557239E+03  0.00000000000E+00 0. -1.
          1    1    1    2  502    0 -0.81024852076E+02 -0.91655750379E+01  0.62429441844E+03  0.62959713732E+03  0.00000000000E+00 0. -1.
         22    1    3    3    0    0 -0.49519683732E+02 -0.13962131337E+02  0.23883802644E+03  0.24431689066E+03  0.00000000000E+00 0.  1.
         22    1    3    3    0    0  0.23951759163E+02 -0.83093464688E+02  0.11275468329E+03  0.14209795651E+03  0.00000000000E+00 0.  1.
</event>
<event>
 7    1  0.6122298E-006  0.1167696E+03  0.7818608E-02  0.1281694E+00
          2   -1    0    0  502    0  0.00000000000E+00  0.00000000000E+00  0.74664187059E+03  0.74664187059E+03  0.00000000000E+00 0. -1.
          1   -1    0    0  501    0 -0.00000000000E+00 -0.00000000000E+00 -0.87748335438E+03  0.87748335438E+03  0.00000000000E+00 0. -1.
         25    2    1    2    0    0 -0.14571059472E+03 -0.13445064376E+03 -0.39128612968E+02  0.23762374880E+03  0.12500177848E+03 0.  0.
          2    1    1    2  501    0  0.60466619748E+02  0.59037895390E+02 -0.73165392779E+03  0.73651826539E+03  0.00000000000E+00 0. -1.
          1    1    1    2  502    0  0.85243974971E+02  0.75412748365E+02  0.63994105698E+03  0.64998321077E+03  0.00000000000E+00 0. -1.
         22    1    3    3    0    0 -0.26011596128E+02 -0.98341964246E+02  0.12236019955E+02  0.10245713860E+03  0.00000000000E+00 0.  1.
         22    1    3    3    0    0 -0.11969899859E+03 -0.36108679509E+02 -0.51364632923E+02  0.13516661021E+03  0.00000000000E+00 0.  1.
</event>
<event>
 7    1  0.6122298E-006  0.5138316E+02  0.7818608E-02  0.1455467E+00
          2   -1    0    0  502    0  0.00000000000E+00  0.00000000000E+00  0.13050710429E+03  0.13050710429E+03  0.00000000000E+00 0. -1.
          1   -1    0    0  501    0 -0.00000000000E+00 -0.00000000000E+00 -0.30330350518E+03  0.30330350518E+03  0.00000000000E+00 0. -1.
         25    2    1    2    0    0  0.13127546949E+02  0.16047533361E+02  0.21410068579E+02  0.12850284750E+03  0.12499893985E+03 0.  0.
          2    1    1    2  501    0  0.26923055836E-01  0.45158604430E+02 -0.22918723097E+03  0.23359385077E+03  0.00000000000E+00 0. -1.
          1    1    1    2  502    0 -0.13154470005E+02 -0.61206137792E+02  0.34980761506E+02  0.71713911203E+02  0.00000000000E+00 0. -1.
         22    1    3    3    0    0  0.41520786875E+02  0.28220558898E+02  0.60540138110E+02  0.78647848093E+02  0.00000000000E+00 0.  1.
         22    1    3    3    0    0 -0.28393239926E+02 -0.12173025537E+02 -0.39130069531E+02  0.49854999406E+02  0.00000000000E+00 0.  1.
</event>
<event>
 7    1  0.6122298E-006  0.1261748E+03  0.7818608E-02  0.1355937E+00
          2   -1    0    0  502    0  0.00000000000E+00  0.00000000000E+00  0.35591541264E+04  0.35591541264E+04  0.00000000000E+00 0. -1.
          1   -1    0    0  501    0 -0.00000000000E+00 -0.00000000000E+00 -0.18761722074E+04  0.18761722074E+04  0.00000000000E+00 0. -1.
         25    2    1    2    0    0 -0.80735821872E+02 -0.32551660788E+02  0.83103410131E+03  0.84487889060E+03  0.12499911475E+03 0.  0.
          2    1    1    2  501    0  0.11269196898E+03  0.56973210990E+02 -0.18669683177E+04  0.18712338512E+04  0.00000000000E+00 0. -1.
          1    1    1    2  502    0 -0.31956147104E+02 -0.24421550202E+02  0.27189161354E+04  0.27192135920E+04  0.00000000000E+00 0. -1.
         22    1    3    3    0    0  0.23589370782E+01 -0.34097558359E+02  0.57488471236E+02  0.66881480211E+02  0.00000000000E+00 0. -1.
         22    1    3    3    0    0 -0.83094758950E+02  0.15458975712E+01  0.77354563008E+03  0.77799741039E+03  0.00000000000E+00 0. -1.
</event>
<event>
 7    1  0.6122298E-006  0.1030510E+03  0.7818608E-02  0.1438026E+00
          2   -1    0    0  502    0  0.00000000000E+00  0.00000000000E+00  0.31093477893E+03  0.31093477893E+03  0.00000000000E+00 0. -1.
          1   -1    0    0  501    0 -0.00000000000E+00 -0.00000000000E+00 -0.53818755937E+03  0.53818755937E+03  0.00000000000E+00 0. -1.
         25    2    1    2    0    0  0.10455765189E+03 -0.28561385558E+02  0.90383337870E+02  0.18852714345E+03  0.12500112295E+03 0.  0.
          2    1    1    2  501    0 -0.10291354933E+03  0.29945464686E+01 -0.48269845900E+03  0.49355644891E+03  0.00000000000E+00 0. -1.
          1    1    1    2  502    0 -0.16441025531E+01  0.25566839090E+02  0.16506234069E+03  0.16703874595E+03  0.00000000000E+00 0. -1.
         22    1    3    3    0    0  0.55576696066E+02 -0.76211562056E+02  0.69195198643E+02  0.11698267757E+03  0.00000000000E+00 0. -1.
         22    1    3    3    0    0  0.48980955819E+02  0.47650176498E+02  0.21188139227E+02  0.71544465874E+02  0.00000000000E+00 0. -1.
</event>
<event>
 7    1  0.6122298E-006  0.1169534E+03  0.7818608E-02  0.1358147E+00
          2   -1    0    0  502    0  0.00000000000E+00  0.00000000000E+00  0.19296221172E+04  0.19296221172E+04  0.00000000000E+00 0. -1.
          1   -1    0    0  501    0 -0.00000000000E+00 -0.00000000000E+00 -0.75268093100E+03  0.75268093100E+03  0.00000000000E+00 0. -1.
         25    2    1    2    0    0  0.29877379064E+02  0.73279983067E+02  0.26620714656E+03  0.30455493479E+03  0.12499939890E+03 0.  0.
          2    1    1    2  501    0 -0.64147453063E+02 -0.98565768457E+02 -0.72851499112E+03  0.73794593212E+03  0.00000000000E+00 0. -1.
          1    1    1    2  502    0  0.34270073999E+02  0.25285785389E+02  0.16392490308E+04  0.16398021813E+04  0.00000000000E+00 0. -1.
         22    1    3    3    0    0 -0.58644695999E+01  0.50635360167E-01 -0.12699544721E+02  0.13988316687E+02  0.00000000000E+00 0. -1.
         22    1    3    3    0    0  0.35741848664E+02  0.73229347707E+02  0.27890669128E+03  0.29056661810E+03  0.00000000000E+00 0. -1.
</event>
<event>
 7    1  0.6122298E-006  0.6833891E+02  0.7818608E-02  0.1455581E+00
          2   -1    0    0  502    0  0.00000000000E+00  0.00000000000E+00  0.83026688284E+03  0.83026688284E+03  0.00000000000E+00 0. -1.
          1   -1    0    0  501    0 -0.00000000000E+00 -0.00000000000E+00 -0.12395755915E+03  0.12395755915E+03  0.00000000000E+00 0. -1.
         25    2    1    2    0    0  0.46589305944E+02  0.73327489835E+01 -0.11148020864E+01  0.13360436960E+03  0.12499820862E+03 0.  0.
          2    1    1    2  501    0  0.19191173938E+02 -0.27976162395E+02 -0.49803295088E+02  0.60260559416E+02  0.00000000000E+00 0. -1.
          1    1    1    2  502    0 -0.65780479882E+02  0.20643413411E+02  0.75722742086E+03  0.76035951297E+03  0.00000000000E+00 0. -1.
         22    1    3    3    0    0  0.12907663402E+02 -0.36972909784E+02  0.46193717735E+02  0.60559585456E+02  0.00000000000E+00 0.  1.
         22    1    3    3    0    0  0.33681642542E+02  0.44305658768E+02 -0.47308519822E+02  0.73044784146E+02  0.00000000000E+00 0.  1.
</event>
<event>
 7    1  0.6122298E-006  0.6445465E+02  0.7818608E-02  0.1538326E+00
          2   -1    0    0  502    0  0.00000000000E+00  0.00000000000E+00  0.15789064322E+03  0.15789064322E+03  0.00000000000E+00 0. -1.
          1   -1    0    0  501    0 -0.00000000000E+00 -0.00000000000E+00 -0.84828050407E+03  0.84828050407E+03  0.00000000000E+00 0. -1.
         25    2    1    2    0    0 -0.24246875454E+02  0.62920230418E+02 -0.25386005718E+03  0.29088819053E+03  0.12499657754E+03 0.  0.
          2    1    1    2  501    0  0.40210569429E+02 -0.50357790086E+02 -0.57335141677E+03  0.57696156201E+03  0.00000000000E+00 0. -1.
          1    1    1    2  502    0 -0.15963693975E+02 -0.12562440332E+02  0.13682161311E+03  0.13832139475E+03  0.00000000000E+00 0. -1.
         22    1    3    3    0    0  0.93041171101E+01  0.68903225815E+02 -0.24637211714E+03  0.25599500234E+03  0.00000000000E+00 0. -1.
         22    1    3    3    0    0 -0.33550992564E+02 -0.59829953966E+01 -0.74879400432E+01  0.34893188189E+02  0.00000000000E+00 0. -1.
</event>
<event>
 7    1  0.6122298E-006  0.8371206E+02  0.7818608E-02  0.1425620E+00
          2   -1    0    0  502    0  0.00000000000E+00  0.00000000000E+00  0.22236227584E+03  0.22236227584E+03  0.00000000000E+00 0. -1.
          1   -1    0    0  501    0 -0.00000000000E+00 -0.00000000000E+00 -0.95621398083E+03  0.95621398083E+03  0.00000000000E+00 0. -1.
         25    2    1    2    0    0  0.53984468623E+02 -0.10000155228E+01 -0.45973256059E+03  0.47947256557E+03  0.12499836393E+03 0.  0.
          2    1    1    2  501    0  0.27265345892E+02 -0.21366078925E+02 -0.47760408407E+03  0.47885861121E+03  0.00000000000E+00 0. -1.
          1    1    1    2  502    0 -0.81249814516E+02  0.22366094448E+02  0.20348493967E+03  0.22024507988E+03  0.00000000000E+00 0. -1.
         22    1    3    3    0    0  0.71382095561E+01  0.15036216916E+02 -0.40624043641E+03  0.40658127605E+03  0.00000000000E+00 0.  1.
         22    1    3    3    0    0  0.46846259067E+02 -0.16036232439E+02 -0.53492124178E+02  0.72891289524E+02  0.00000000000E+00 0.  1.
</event>
<event>
 7    1  0.6122298E-006  0.7369110E+02  0.7818608E-02  0.1401491E+00
          2   -1    0    0  502    0  0.00000000000E+00  0.00000000000E+00  0.33100275257E+02  0.33100275257E+02  0.00000000000E+00 0. -1.
          1   -1    0    0  501    0 -0.00000000000E+00 -0.00000000000E+00 -0.14204767014E+04  0.14204767014E+04  0.00000000000E+00 0. -1.
         25    2    1    2    0    0  0.22626333593E+02  0.77479465551E+02 -0.66953260980E+03  0.68586741314E+03  0.12500069709E+03 0.  0.
          2    1    1    2  501    0 -0.46891970464E+02 -0.72992114562E+01 -0.68478301076E+03  0.68642545641E+03  0.00000000000E+00 0. -1.
          1    1    1    2  502    0  0.24265636871E+02 -0.70180254094E+02 -0.33060805541E+02  0.81284107060E+02  0.00000000000E+00 0. -1.
         22    1    3    3    0    0  0.72339256690E+02  0.42294472407E+02 -0.30590053552E+03  0.31717018789E+03  0.00000000000E+00 0. -1.
         22    1    3    3    0    0 -0.49712923097E+02  0.35184993144E+02 -0.36363207427E+03  0.36869722525E+03  0.00000000000E+00 0. -1.
</event>
<event>
 7    1  0.6122298E-006  0.5959342E+02  0.7818608E-02  0.1525263E+00
          2   -1    0    0  502    0  0.00000000000E+00  0.00000000000E+00  0.94329052528E+03  0.94329052528E+03  0.00000000000E+00 0. -1.
          1   -1    0    0  501    0 -0.00000000000E+00 -0.00000000000E+00 -0.60237223129E+03  0.60237223129E+03  0.00000000000E+00 0. -1.
         25    2    1    2    0    0  0.60217523670E+02 -0.56172756496E+02  0.15298977136E+03  0.21403980076E+03  0.12500254974E+03 0.  0.
          2    1    1    2  501    0 -0.14997740304E+02  0.18664202503E+02 -0.57045994420E+03  0.57096219893E+03  0.00000000000E+00 0. -1.
          1    1    1    2  502    0 -0.45219783366E+02  0.37508553993E+02  0.75838846684E+03  0.76066075688E+03  0.00000000000E+00 0. -1.
         22    1    3    3    0    0 -0.20573653080E+02 -0.33214895234E+02  0.11574689241E+03  0.12216320055E+03  0.00000000000E+00 0. -1.
         22    1    3    3    0    0  0.80791176750E+02 -0.22957861262E+02  0.37242878950E+02  0.91876600214E+02  0.00000000000E+00 0. -1.
</event>
<event>
 7    1  0.6122298E-006  0.8976590E+02  0.7818608E-02  0.1321001E+00
          2   -1    0    0  502    0  0.00000000000E+00  0.00000000000E+00  0.16773088058E+03  0.16773088058E+03  0.00000000000E+00 0. -1.
          1   -1    0    0  501    0 -0.00000000000E+00 -0.00000000000E+00 -0.70888244954E+03  0.70888244954E+03  0.00000000000E+00 0. -1.
         25    2    1    2    0    0  0.19300351577E+02  0.30552208329E+02 -0.68478872495E+01  0.13030003865E+03  0.12500106203E+03 0.  0.
          2    1    1    2  501    0 -0.93038905382E+02 -0.99197704472E+01 -0.62251330185E+03  0.62950571939E+03  0.00000000000E+00 0. -1.
          1    1    1    2  502    0  0.73738553805E+02 -0.20632437882E+02  0.88209620141E+02  0.11680757208E+03  0.00000000000E+00 0. -1.
         22    1    3    3    0    0 -0.25289433407E+02 -0.13857441550E+02 -0.47364939899E+02  0.55452877833E+02  0.00000000000E+00 0. -1.
         22    1    3    3    0    0  0.44589784984E+02  0.44409649879E+02  0.40517052650E+02  0.74847160819E+02  0.00000000000E+00 0. -1.
</event>
<event>
 7    1  0.6122298E-006  0.1437763E+03  0.7818608E-02  0.1269216E+00
          2   -1    0    0  502    0  0.00000000000E+00  0.00000000000E+00  0.10783344647E+04  0.10783344647E+04  0.00000000000E+00 0. -1.
          1   -1    0    0  501    0 -0.00000000000E+00 -0.00000000000E+00 -0.14725046312E+04  0.14725046312E+04  0.00000000000E+00 0. -1.
         25    2    1    2    0    0 -0.74140320303E+02  0.15242692556E+03  0.19336643612E+02  0.21151418026E+03  0.12503434702E+03 0.  0.
          2    1    1    2  501    0 -0.26974129947E+01 -0.14349534489E+03 -0.13711107029E+04  0.13786017371E+04  0.00000000000E+00 0. -1.
          1    1    1    2  502    0  0.76837733297E+02 -0.89315806725E+01  0.95760389271E+03  0.96072317851E+03  0.00000000000E+00 0. -1.
         22    1    3    3    0    0  0.77101170847E+01  0.12378576414E+02  0.44981630358E+02  0.47286595661E+02  0.00000000000E+00 0. -1.
         22    1    3    3    0    0 -0.81850437387E+02  0.14004834915E+03 -0.25644986746E+02  0.16422758460E+03  0.00000000000E+00 0. -1.
</event>
<event>
 7    1  0.6122298E-006  0.2504835E+03  0.7818608E-02  0.1319464E+00
          2   -1    0    0  502    0  0.00000000000E+00  0.00000000000E+00  0.16936188996E+03  0.16936188996E+03  0.00000000000E+00 0. -1.
          1   -1    0    0  501    0 -0.00000000000E+00 -0.00000000000E+00 -0.26156422208E+04  0.26156422208E+04  0.00000000000E+00 0. -1.
         25    2    1    2    0    0  0.24094800665E+03 -0.12262929901E+03 -0.31457997646E+03  0.43321732296E+03  0.12499120144E+03 0.  0.
          2    1    1    2  501    0 -0.21343591097E+03  0.12675650158E+03 -0.22329901928E+04  0.22467459358E+04  0.00000000000E+00 0. -1.
          1    1    1    2  502    0 -0.27512095680E+02 -0.41272025667E+01  0.10128983846E+03  0.10504085199E+03  0.00000000000E+00 0. -1.
         22    1    3    3    0    0  0.46483953472E+02 -0.59506506003E+02 -0.15994173990E+03  0.17687041117E+03  0.00000000000E+00 0. -1.
         22    1    3    3    0    0  0.19446405318E+03 -0.63122793010E+02 -0.15463823657E+03  0.25634691179E+03  0.00000000000E+00 0. -1.
</event>
<event>
 7    1  0.6122298E-006  0.8475229E+02  0.7818608E-02  0.1401721E+00
          2   -1    0    0  502    0  0.00000000000E+00  0.00000000000E+00  0.25185495704E+04  0.25185495704E+04  0.00000000000E+00 0. -1.
          1   -1    0    0  501    0 -0.00000000000E+00 -0.00000000000E+00 -0.13957687184E+04  0.13957687184E+04  0.00000000000E+00 0. -1.
         25    2    1    2    0    0  0.39083300533E+02 -0.44970294270E+02  0.16574049025E+03  0.21597428436E+03  0.12500059859E+03 0.  0.
          2    1    1    2  501    0 -0.16516696046E+02 -0.37731433957E+02 -0.13695528293E+04  0.13701720383E+04  0.00000000000E+00 0. -1.
          1    1    1    2  502    0 -0.22566604487E+02  0.82701728227E+02  0.23265931910E+04  0.23281719662E+04  0.00000000000E+00 0. -1.
         22    1    3    3    0    0  0.58969517740E+02  0.23865298383E+02  0.55104280055E+02  0.84163163972E+02  0.00000000000E+00 0. -1.
         22    1    3    3    0    0 -0.19886217207E+02 -0.68835592653E+02  0.11063621020E+03  0.13181112039E+03  0.00000000000E+00 0. -1.
</event>
<event>
 7    1  0.6122298E-006  0.1335245E+03  0.7818608E-02  0.1396144E+00
          2   -1    0    0  502    0  0.00000000000E+00  0.00000000000E+00  0.58081496456E+03  0.58081496456E+03  0.00000000000E+00 0. -1.
          1   -1    0    0  501    0 -0.00000000000E+00 -0.00000000000E+00 -0.12187321981E+04  0.12187321981E+04  0.00000000000E+00 0. -1.
         25    2    1    2    0    0 -0.14770371935E+03  0.50667622574E+02  0.85008632744E+02  0.21733695083E+03  0.12500114347E+03 0.  0.
          2    1    1    2  501    0  0.22261107962E+02 -0.15847431940E+02 -0.11425390594E+04  0.11428657840E+04  0.00000000000E+00 0. -1.
          1    1    1    2  502    0  0.12544261139E+03 -0.34820190633E+02  0.41961319311E+03  0.43934442782E+03  0.00000000000E+00 0. -1.
         22    1    3    3    0    0 -0.35747757045E+01 -0.30966991965E+02  0.39356383153E-01  0.31172666899E+02  0.00000000000E+00 0. -1.
         22    1    3    3    0    0 -0.14412894364E+03  0.81634614539E+02  0.84969276360E+02  0.18616428393E+03  0.00000000000E+00 0. -1.
</event>
<event>
 7    1  0.6122298E-006  0.3929563E+03  0.7818608E-02  0.1295964E+00
          2   -1    0    0  502    0  0.00000000000E+00  0.00000000000E+00  0.10947951157E+04  0.10947951157E+04  0.00000000000E+00 0. -1.
          1   -1    0    0  501    0 -0.00000000000E+00 -0.00000000000E+00 -0.72710427614E+03  0.72710427614E+03  0.00000000000E+00 0. -1.
         25    2    1    2    0    0  0.32441489680E+03  0.23322198127E+03 -0.40429976521E+03  0.58199653693E+03  0.12499660411E+03 0.  0.
          2    1    1    2  501    0 -0.18202954079E+02  0.12293712354E+02 -0.19503286610E+03  0.19626589556E+03  0.00000000000E+00 0. -1.
          1    1    1    2  502    0 -0.30621194272E+03 -0.24551569363E+03  0.96702347092E+03  0.10436369594E+04  0.00000000000E+00 0. -1.
         22    1    3    3    0    0  0.14922248503E+03  0.34530112203E+02 -0.16302101324E+03  0.22368622990E+03  0.00000000000E+00 0. -1.
         22    1    3    3    0    0  0.17519241177E+03  0.19869186907E+03 -0.24127875197E+03  0.35831030703E+03  0.00000000000E+00 0. -1.
</event>
<event>
 7    1  0.6122298E-006  0.4117867E+02  0.7818608E-02  0.1527410E+00
          2   -1    0    0  502    0  0.00000000000E+00  0.00000000000E+00  0.60479500156E+03  0.60479500156E+03  0.00000000000E+00 0. -1.
          1   -1    0    0  501    0 -0.00000000000E+00 -0.00000000000E+00 -0.50904390836E+03  0.50904390836E+03  0.00000000000E+00 0. -1.
         25    2    1    2    0    0  0.13979675065E+02  0.39513459853E+02  0.29631039714E+03  0.32432089160E+03  0.12500977742E+03 0.  0.
          2    1    1    2  501    0 -0.38215129557E+02 -0.15438305646E+02 -0.49318544782E+03  0.49490466087E+03  0.00000000000E+00 0. -1.
          1    1    1    2  502    0  0.24235454492E+02 -0.24075154207E+02  0.29262614388E+03  0.29461335745E+03  0.00000000000E+00 0. -1.
         22    1    3    3    0    0  0.22789841823E+01  0.20925585159E+02  0.30110488561E+03  0.30183973566E+03  0.00000000000E+00 0. -1.
         22    1    3    3    0    0  0.11700690883E+02  0.18587874694E+02 -0.47944884730E+01  0.22481155942E+02  0.00000000000E+00 0. -1.
</event>
<event>
 7    1  0.6122298E-006  0.1799062E+03  0.7818608E-02  0.1282112E+00
          2   -1    0    0  502    0  0.00000000000E+00  0.00000000000E+00  0.23794721622E+03  0.23794721622E+03  0.00000000000E+00 0. -1.
          1   -1    0    0  501    0 -0.00000000000E+00 -0.00000000000E+00 -0.10681864058E+04  0.10681864058E+04  0.00000000000E+00 0. -1.
         25    2    1    2    0    0 -0.14991587321E+03 -0.12080877885E+03 -0.93837110707E+02  0.24799265835E+03  0.12500170064E+03 0.  0.
          2    1    1    2  501    0 -0.14499270743E+02  0.52675194556E+02 -0.84689652811E+03  0.84865695914E+03  0.00000000000E+00 0. -1.
          1    1    1    2  502    0  0.16441514395E+03  0.68133584295E+02  0.11049444919E+03  0.20948400457E+03  0.00000000000E+00 0. -1.
         22    1    3    3    0    0 -0.14443732730E+03 -0.13291233769E+03 -0.50517675740E+02  0.20268168785E+03  0.00000000000E+00 0.  1.
         22    1    3    3    0    0 -0.54785459117E+01  0.12103558840E+02 -0.43319434967E+02  0.45310970501E+02  0.00000000000E+00 0.  1.
</event>
<event>
 7    1  0.6122298E-006  0.8999789E+02  0.7818608E-02  0.1375996E+00
          2   -1    0    0  502    0  0.00000000000E+00  0.00000000000E+00  0.23702640710E+03  0.23702640710E+03  0.00000000000E+00 0. -1.
          1   -1    0    0  501    0 -0.00000000000E+00 -0.00000000000E+00 -0.36977493315E+03  0.36977493315E+03  0.00000000000E+00 0. -1.
         25    2    1    2    0    0 -0.40392969533E+02 -0.90022527650E+02 -0.31694929367E+02  0.16237789726E+03  0.12500546188E+03 0.  0.
          2    1    1    2  501    0 -0.31678995711E+02  0.35676515076E+02 -0.25853841907E+03  0.26290394944E+03  0.00000000000E+00 0. -1.
          1    1    1    2  502    0  0.72071965244E+02  0.54346012574E+02  0.15748482239E+03  0.18151949355E+03  0.00000000000E+00 0. -1.
         22    1    3    3    0    0  0.80609564884E+01  0.72181585214E+01 -0.50910449398E+02  0.52047619444E+02  0.00000000000E+00 0.  1.
         22    1    3    3    0    0 -0.48453926021E+02 -0.97240686171E+02  0.19215520030E+02  0.11033027782E+03  0.00000000000E+00 0.  1.
</event>
<event>
 7    1  0.6122298E-006  0.3514083E+02  0.7818608E-02  0.1571611E+00
          2   -1    0    0  502    0  0.00000000000E+00  0.00000000000E+00  0.51505329891E+03  0.51505329891E+03  0.00000000000E+00 0. -1.
          1   -1    0    0  501    0 -0.00000000000E+00 -0.00000000000E+00 -0.75490910439E+02  0.75490910439E+02  0.00000000000E+00 0. -1.
         25    2    1    2    0    0  0.12256422661E+02 -0.25035078090E+02  0.20232538106E+02  0.12965962953E+03  0.12500115560E+03 0.  0.
          2    1    1    2  501    0 -0.38016920649E+02  0.94091868656E+01 -0.12917279852E+01  0.39185298446E+02  0.00000000000E+00 0. -1.
          1    1    1    2  502    0  0.25760497989E+02  0.15625891225E+02  0.42062157835E+03  0.42169928137E+03  0.00000000000E+00 0. -1.
         22    1    3    3    0    0  0.38805108114E+02  0.36559347870E+02 -0.12895928887E+02  0.54851867008E+02  0.00000000000E+00 0.  1.
         22    1    3    3    0    0 -0.26548685453E+02 -0.61594425961E+02  0.33128466993E+02  0.74807762525E+02  0.00000000000E+00 0.  1.
</event>
<event>
 7    1  0.6122298E-006  0.1020623E+03  0.7818608E-02  0.1330209E+00
          2   -1    0    0  502    0  0.00000000000E+00  0.00000000000E+00  0.13236878053E+04  0.13236878053E+04  0.00000000000E+00 0. -1.
          1   -1    0    0  501    0 -0.00000000000E+00 -0.00000000000E+00 -0.21301403422E+02  0.21301403422E+02  0.00000000000E+00 0. -1.
         25    2    1    2    0    0 -0.56847255440E+02  0.25995458470E+02  0.66365196079E+03  0.67820811145E+03  0.12499977230E+03 0.  0.
          2    1    1    2  501    0  0.11861813663E+03 -0.32091004639E+02  0.33641086888E+03  0.35815131944E+03  0.00000000000E+00 0. -1.
          1    1    1    2  502    0 -0.61770881189E+02  0.60955461684E+01  0.30232357217E+03  0.30862977778E+03  0.00000000000E+00 0. -1.
         22    1    3    3    0    0 -0.95115160314E+02  0.96599329923E+01  0.39827607602E+03  0.40959008869E+03  0.00000000000E+00 0.  1.
         22    1    3    3    0    0  0.38267904875E+02  0.16335525478E+02  0.26537588477E+03  0.26861802276E+03  0.00000000000E+00 0.  1.
</event>
<event>
 7    1  0.6122298E-006  0.5066363E+02  0.7818608E-02  0.1451904E+00
          2   -1    0    0  502    0  0.00000000000E+00  0.00000000000E+00  0.17537072852E+04  0.17537072852E+04  0.00000000000E+00 0. -1.
          1   -1    0    0  501    0 -0.00000000000E+00 -0.00000000000E+00 -0.56475667062E+03  0.56475667062E+03  0.00000000000E+00 0. -1.
         25    2    1    2    0    0  0.77057737356E+02 -0.46730278418E+02  0.64201669412E+03  0.66025177496E+03  0.12500142799E+03 0.  0.
          2    1    1    2  501    0 -0.29518012084E+02  0.36589346179E+02 -0.55410753177E+03  0.55609823778E+03  0.00000000000E+00 0. -1.
          1    1    1    2  502    0 -0.47539725272E+02  0.10140932239E+02  0.11010414522E+04  0.11021139430E+04  0.00000000000E+00 0. -1.
         22    1    3    3    0    0  0.47052656580E+02 -0.68555337793E+02  0.59286939679E+03  0.59867178695E+03  0.00000000000E+00 0. -1.
         22    1    3    3    0    0  0.30005080777E+02  0.21825059375E+02  0.49147297325E+02  0.61579988012E+02  0.00000000000E+00 0. -1.
</event>
<event>
 7    1  0.6122298E-006  0.1438025E+03  0.7818608E-02  0.1252426E+00
          2   -1    0    0  502    0  0.00000000000E+00  0.00000000000E+00  0.20522311301E+04  0.20522311301E+04  0.00000000000E+00 0. -1.
          1   -1    0    0  501    0 -0.00000000000E+00 -0.00000000000E+00 -0.35564464881E+02  0.35564464881E+02  0.00000000000E+00 0. -1.
         25    2    1    2    0    0  0.68335647672E+02 -0.97662785538E+02  0.26908539326E+03  0.31974932946E+03  0.12499961761E+03 0.  0.
          2    1    1    2  501    0 -0.73952507565E+02 -0.53364089171E+02  0.32797146523E+03  0.34041442594E+03  0.00000000000E+00 0. -1.
          1    1    1    2  502    0  0.56168598928E+01  0.15102687471E+03  0.14196098067E+04  0.14276318396E+04  0.00000000000E+00 0. -1.
         22    1    3    3    0    0  0.10500462387E+03 -0.79750566018E+02  0.20201655131E+03  0.24124015175E+03  0.00000000000E+00 0. -1.
         22    1    3    3    0    0 -0.36668976202E+02 -0.17912219519E+02  0.67068841953E+02  0.78509177710E+02  0.00000000000E+00 0. -1.
</event>
<event>
 7    1  0.6122298E-006  0.1210212E+03  0.7818608E-02  0.1346724E+00
          2   -1    0    0  502    0  0.00000000000E+00  0.00000000000E+00  0.66374437031E+03  0.66374437031E+03  0.00000000000E+00 0. -1.
          1   -1    0    0  501    0 -0.00000000000E+00 -0.00000000000E+00 -0.19917218119E+03  0.19917218119E+03  0.00000000000E+00 0. -1.
         25    2    1    2    0    0 -0.12204827128E+03 -0.34323073897E+01  0.16394455504E+03  0.23960208736E+03  0.12499512744E+03 0.  0.
          2    1    1    2  501    0  0.11205054095E+03  0.47670389411E+02 -0.13702795820E+03  0.18331516872E+03  0.00000000000E+00 0. -1.
          1    1    1    2  502    0  0.99977303307E+01 -0.44238082021E+02  0.43765559229E+03  0.43999929542E+03  0.00000000000E+00 0. -1.
         22    1    3    3    0    0 -0.10013953967E+03 -0.33032958858E+02  0.17214487865E+03  0.20187363132E+03  0.00000000000E+00 0.  1.
         22    1    3    3    0    0 -0.21908731605E+02  0.29600651469E+02 -0.82003236071E+01  0.37728456040E+02  0.00000000000E+00 0.  1.
</event>
<event>
 7    1  0.6122298E-006  0.9071307E+02  0.7818608E-02  0.1406322E+00
          2   -1    0    0  502    0  0.00000000000E+00  0.00000000000E+00  0.17578822027E+04  0.17578822027E+04  0.00000000000E+00 0. -1.
          1   -1    0    0  501    0 -0.00000000000E+00 -0.00000000000E+00 -0.19359772051E+03  0.19359772051E+03  0.00000000000E+00 0. -1.
         25    2    1    2    0    0  0.47809486308E+02  0.48372834064E+02  0.75967789864E+02  0.16130837557E+03  0.12499443538E+03 0.  0.
          2    1    1    2  501    0 -0.84279235956E+02 -0.41493685533E+02 -0.13607743556E+03  0.16535351228E+03  0.00000000000E+00 0. -1.
          1    1    1    2  502    0  0.36469749648E+02 -0.68791485311E+01  0.16243941278E+04  0.16248180353E+04  0.00000000000E+00 0. -1.
         22    1    3    3    0    0 -0.38583194603E+02 -0.40866373171E+01  0.34985183696E+02  0.52242957311E+02  0.00000000000E+00 0.  1.
         22    1    3    3    0    0  0.86392680911E+02  0.52459471382E+02  0.40982606167E+02  0.10906541826E+03  0.00000000000E+00 0.  1.
</event>
<event>
 7    1  0.6122298E-006  0.1307822E+03  0.7818608E-02  0.1296219E+00
          2   -1    0    0  502    0  0.00000000000E+00  0.00000000000E+00  0.75712252924E+03  0.75712252924E+03  0.00000000000E+00 0. -1.
          1   -1    0    0  501    0 -0.00000000000E+00 -0.00000000000E+00 -0.10442976003E+04  0.10442976003E+04  0.00000000000E+00 0. -1.
         25    2    1    2    0    0 -0.49499449308E+01  0.15446527801E+03  0.56937784047E+03  0.60307549474E+03  0.12499961229E+03 0.  0.
          2    1    1    2  501    0 -0.38685143683E+02 -0.53279532619E+02 -0.10084998265E+04  0.10106468963E+04  0.00000000000E+00 0. -1.
          1    1    1    2  502    0  0.43635088614E+02 -0.10118574539E+03  0.15194691503E+03  0.18769773844E+03  0.00000000000E+00 0. -1.
         22    1    3    3    0    0 -0.60173607469E+02  0.97869633893E+02  0.39957301052E+03  0.41576185372E+03  0.00000000000E+00 0. -1.
         22    1    3    3    0    0  0.55223662539E+02  0.56595644115E+02  0.16980482995E+03  0.18731364102E+03  0.00000000000E+00 0. -1.
</event>
<event>
 7    1  0.6122298E-006  0.9211414E+02  0.7818608E-02  0.1366748E+00
          2   -1    0    0  502    0  0.00000000000E+00  0.00000000000E+00  0.19724664210E+04  0.19724664210E+04  0.00000000000E+00 0. -1.
          1   -1    0    0  501    0 -0.00000000000E+00 -0.00000000000E+00 -0.60876667111E+03  0.60876667111E+03  0.00000000000E+00 0. -1.
         25    2    1    2    0    0 -0.55830266413E+02 -0.78063982072E+02  0.61500682074E+03  0.63487779865E+03  0.12500170286E+03 0.  0.
          2    1    1    2  501    0  0.84531732255E+02  0.36736558927E+02 -0.59481087933E+03  0.60190960342E+03  0.00000000000E+00 0. -1.
          1    1    1    2  502    0 -0.28701465842E+02  0.41327423145E+02  0.13435038084E+04  0.13444456900E+04  0.00000000000E+00 0. -1.
         22    1    3    3    0    0  0.88566807111E+01 -0.76830749857E+02  0.19265169993E+03  0.20759595951E+03  0.00000000000E+00 0.  1.
         22    1    3    3    0    0 -0.64686947125E+02 -0.12332322152E+01  0.42235512081E+03  0.42728183914E+03  0.00000000000E+00 0.  1.
</event>
<event>
 7    1  0.6122298E-006  0.1003784E+03  0.7818608E-02  0.1286300E+00
          2   -1    0    0  502    0  0.00000000000E+00  0.00000000000E+00  0.61785613805E+03  0.61785613805E+03  0.00000000000E+00 0. -1.
          1   -1    0    0  501    0 -0.00000000000E+00 -0.00000000000E+00 -0.16403729395E+03  0.16403729395E+03  0.00000000000E+00 0. -1.
         25    2    1    2    0    0 -0.55261502636E-01 -0.15876649796E+03  0.54108554303E+02  0.20918890361E+03  0.12500183126E+03 0.  0.
          2    1    1    2  501    0  0.54146720771E+02  0.76983659560E+02 -0.54006943747E+02  0.10851313829E+03  0.00000000000E+00 0. -1.
          1    1    1    2  502    0 -0.54091459269E+02  0.81782838396E+02  0.45371723355E+03  0.46419139010E+03  0.00000000000E+00 0. -1.
         22    1    3    3    0    0 -0.43463560306E+02 -0.69883701594E+02  0.71181526965E+02  0.10881002989E+03  0.00000000000E+00 0.  1.
         22    1    3    3    0    0  0.43408298803E+02 -0.88882796363E+02 -0.17072972662E+02  0.10037887372E+03  0.00000000000E+00 0.  1.
</event>
<event>
 7    1  0.6122298E-006  0.1464558E+03  0.7818608E-02  0.1344528E+00
          2   -1    0    0  502    0  0.00000000000E+00  0.00000000000E+00  0.14704234659E+04  0.14704234659E+04  0.00000000000E+00 0. -1.
          1   -1    0    0  501    0 -0.00000000000E+00 -0.00000000000E+00 -0.24099787773E+03  0.24099787773E+03  0.00000000000E+00 0. -1.
         25    2    1    2    0    0 -0.34062306725E+02  0.12797365925E+03  0.20261336015E+03  0.27242299423E+03  0.12499846349E+03 0.  0.
          2    1    1    2  501    0  0.72213875841E+02 -0.12970397558E+03 -0.17901844528E+03  0.23256304285E+03  0.00000000000E+00 0. -1.
          1    1    1    2  502    0 -0.38151569116E+02  0.17303163312E+01  0.12058306733E+04  0.12064353066E+04  0.00000000000E+00 0. -1.
         22    1    3    3    0    0 -0.48929505008E+02  0.44111648641E+02  0.16806071021E+03  0.18051131910E+03  0.00000000000E+00 0.  1.
         22    1    3    3    0    0  0.14867198283E+02  0.83862010610E+02  0.34552649936E+02  0.91911675134E+02  0.00000000000E+00 0.  1.
</event>
<event>
 7    1  0.6122298E-006  0.8891663E+02  0.7818608E-02  0.1328520E+00
          2   -1    0    0  502    0  0.00000000000E+00  0.00000000000E+00  0.32194154250E+03  0.32194154250E+03  0.00000000000E+00 0. -1.
          1   -1    0    0  501    0 -0.00000000000E+00 -0.00000000000E+00 -0.15640614573E+04  0.15640614573E+04  0.00000000000E+00 0. -1.
         25    2    1    2    0    0 -0.37816672886E+02  0.39740842819E+02  0.74000697472E+01  0.13669512825E+03  0.12498544603E+03 0.  0.
          2    1    1    2  501    0 -0.15468273057E+02 -0.88630952338E+02 -0.14927992726E+04  0.14955080680E+04  0.00000000000E+00 0. -1.
          1    1    1    2  502    0  0.53284945943E+02  0.48890109518E+02  0.24327928806E+03  0.25379980353E+03  0.00000000000E+00 0. -1.
         22    1    3    3    0    0  0.17186440310E+02 -0.37488276361E+02  0.72997682290E+01  0.41881155802E+02  0.00000000000E+00 0. -1.
         22    1    3    3    0    0 -0.55003113196E+02  0.77229119181E+02  0.10030151818E+00  0.94813972446E+02  0.00000000000E+00 0. -1.
</event>
<event>
 7    1  0.6122298E-006  0.6381030E+02  0.7818608E-02  0.1477748E+00
          2   -1    0    0  502    0  0.00000000000E+00  0.00000000000E+00  0.16365393260E+04  0.16365393260E+04  0.00000000000E+00 0. -1.
          1   -1    0    0  501    0 -0.00000000000E+00 -0.00000000000E+00 -0.70687049160E+03  0.70687049160E+03  0.00000000000E+00 0. -1.
         25    2    1    2    0    0  0.18599288051E+02 -0.45175476273E+02  0.65344116925E+02  0.14927083218E+03  0.12500068220E+03 0.  0.
          2    1    1    2  501    0  0.61439253941E+01  0.63811442103E+02 -0.66320455003E+03  0.66629567247E+03  0.00000000000E+00 0. -1.
          1    1    1    2  502    0 -0.24743213445E+02 -0.18635965831E+02  0.15275292675E+04  0.15278433130E+04  0.00000000000E+00 0. -1.
         22    1    3    3    0    0 -0.44913947532E+02 -0.32674243311E+02  0.63706108126E+02  0.84518264721E+02  0.00000000000E+00 0.  1.
         22    1    3    3    0    0  0.63513235583E+02 -0.12501232962E+02  0.16380087996E+01  0.64752567460E+02  0.00000000000E+00 0.  1.
</event>
<event>
 7    1  0.6122298E-006  0.2059879E+03  0.7818608E-02  0.1304961E+00
          2   -1    0    0  502    0  0.00000000000E+00  0.00000000000E+00  0.10695358178E+04  0.10695358178E+04  0.00000000000E+00 0. -1.
          1   -1    0    0  501    0 -0.00000000000E+00 -0.00000000000E+00 -0.15913162239E+04  0.15913162239E+04  0.00000000000E+00 0. -1.
         25    2    1    2    0    0 -0.19348318963E+03 -0.46844564349E+02 -0.35172125447E+03  0.42303974569E+03  0.12499851084E+03 0.  0.
          2    1    1    2  501    0 -0.12518157156E+02  0.36482237802E+02 -0.11933335651E+04  0.11939567227E+04  0.00000000000E+00 0. -1.
          1    1    1    2  502    0  0.20600134678E+03  0.10362326547E+02  0.10232744135E+04  0.10438555733E+04  0.00000000000E+00 0. -1.
         22    1    3    3    0    0 -0.65304703510E+02 -0.53446206024E+02 -0.23448475730E+03  0.24920734870E+03  0.00000000000E+00 0.  1.
         22    1    3    3    0    0 -0.12817848612E+03  0.66016416752E+01 -0.11723649717E+03  0.17383239700E+03  0.00000000000E+00 0.  1.
</event>
<event>
 7    1  0.6122298E-006  0.2352318E+03  0.7818608E-02  0.1290257E+00
          2   -1    0    0  502    0  0.00000000000E+00  0.00000000000E+00  0.13514945461E+04  0.13514945461E+04  0.00000000000E+00 0. -1.
          1   -1    0    0  501    0 -0.00000000000E+00 -0.00000000000E+00 -0.60484778987E+03  0.60484778987E+03  0.00000000000E+00 0. -1.
         25    2    1    2    0    0  0.17136274696E+03  0.10435547168E+03  0.40114216625E+02  0.23977181611E+03  0.12500447155E+03 0.  0.
          2    1    1    2  501    0  0.33377112240E+02  0.19582491099E+02 -0.49243313738E+03  0.49395131376E+03  0.00000000000E+00 0. -1.
          1    1    1    2  502    0 -0.20473985920E+03 -0.12393796278E+03  0.11989656770E+04  0.12226192061E+04  0.00000000000E+00 0. -1.
         22    1    3    3    0    0  0.13383626112E+03  0.70270529282E+02  0.83812074673E+02  0.17284257559E+03  0.00000000000E+00 0.  1.
         22    1    3    3    0    0  0.37526485846E+02  0.34084942396E+02 -0.43697858048E+02  0.66929240516E+02  0.00000000000E+00 0.  1.
</event>
<event>
 7    1  0.6122298E-006  0.5685081E+02  0.7818608E-02  0.1416403E+00
          2   -1    0    0  502    0  0.00000000000E+00  0.00000000000E+00  0.22896287859E+03  0.22896287859E+03  0.00000000000E+00 0. -1.
          1   -1    0    0  501    0 -0.00000000000E+00 -0.00000000000E+00 -0.37459873985E+03  0.37459873985E+03  0.00000000000E+00 0. -1.
         25    2    1    2    0    0  0.56641518007E+01 -0.95732031207E+02  0.23453835820E+02  0.15928502470E+03  0.12499972905E+03 0.  0.
          2    1    1    2  501    0  0.24846250109E+02  0.50274310699E+02 -0.29852104329E+03  0.30374274600E+03  0.00000000000E+00 0. -1.
          1    1    1    2  502    0 -0.30510401910E+02  0.45457720508E+02  0.12943134622E+03  0.14053384774E+03  0.00000000000E+00 0. -1.
         22    1    3    3    0    0 -0.58409350474E+02 -0.61198777946E+02  0.16217337920E+02  0.86139100843E+02  0.00000000000E+00 0.  1.
         22    1    3    3    0    0  0.64073502274E+02 -0.34533253261E+02  0.72364979001E+01  0.73145923853E+02  0.00000000000E+00 0.  1.
</event>
<event>
 7    1  0.6122298E-006  0.8256284E+02  0.7818608E-02  0.1436126E+00
          2   -1    0    0  502    0  0.00000000000E+00  0.00000000000E+00  0.25395808119E+04  0.25395808119E+04  0.00000000000E+00 0. -1.
          1   -1    0    0  501    0 -0.00000000000E+00 -0.00000000000E+00 -0.26929981209E+03  0.26929981209E+03  0.00000000000E+00 0. -1.
         25    2    1    2    0    0 -0.10584337392E+03  0.34955500708E+02  0.70347111961E+03  0.72313312614E+03  0.12500078065E+03 0.  0.
          2    1    1    2  501    0  0.32238972065E+02 -0.35718934539E+01 -0.25757472164E+03  0.25960902714E+03  0.00000000000E+00 0. -1.
          1    1    1    2  502    0  0.73604401851E+02 -0.31383607254E+02  0.18243846019E+04  0.18261384707E+04  0.00000000000E+00 0. -1.
         22    1    3    3    0    0 -0.27839003027E+02  0.66437837859E+02  0.19769823511E+03  0.21041290016E+03  0.00000000000E+00 0. -1.
         22    1    3    3    0    0 -0.78004370889E+02 -0.31482337152E+02  0.50577288450E+03  0.51272022598E+03  0.00000000000E+00 0. -1.
</event>
<event>
 7    1  0.6122298E-006  0.8206161E+02  0.7818608E-02  0.1401016E+00
          2   -1    0    0  502    0  0.00000000000E+00  0.00000000000E+00  0.78523108129E+03  0.78523108129E+03  0.00000000000E+00 0. -1.
          1   -1    0    0  501    0 -0.00000000000E+00 -0.00000000000E+00 -0.10607444017E+03  0.10607444017E+03  0.00000000000E+00 0. -1.
         25    2    1    2    0    0 -0.75941846076E+01 -0.83705285103E+02  0.48390627241E+02  0.15821477959E+03  0.12500406907E+03 0.  0.
          2    1    1    2  501    0 -0.34610329253E+02  0.76734511150E+02 -0.15344423689E+02  0.85565830976E+02  0.00000000000E+00 0. -1.
          1    1    1    2  502    0  0.42204513860E+02  0.69707739532E+01  0.64611043757E+03  0.64752491088E+03  0.00000000000E+00 0. -1.
         22    1    3    3    0    0 -0.31325629320E+02  0.16040679523E+02  0.42967854034E+02  0.55541290335E+02  0.00000000000E+00 0.  1.
         22    1    3    3    0    0  0.23731444713E+02 -0.99745964625E+02  0.54227732073E+01  0.10267348926E+03  0.00000000000E+00 0.  1.
</event>
<event>
 7    1  0.7486386E-006  0.7297904E+02  0.7818608E-02  0.1412736E+00
          2   -1    0    0  502    0  0.00000000000E+00  0.00000000000E+00  0.12582408797E+04  0.12582408797E+04  0.00000000000E+00 0. -1.
          1   -1    0    0  501    0 -0.00000000000E+00 -0.00000000000E+00 -0.88658688910E+03  0.88658688910E+03  0.00000000000E+00 0. -1.
         25    2    1    2    0    0 -0.12745499415E+02  0.29487327540E+02 -0.72235326030E+02  0.14790005441E+03  0.12499813409E+03 0.  0.
          2    1    1    2  501    0  0.53831857381E+01  0.43546519047E+02 -0.77479415330E+03  0.77603560356E+03  0.00000000000E+00 0. -1.
          1    1    1    2  502    0  0.73623136771E+01 -0.73033846587E+02  0.12186834699E+04  0.12208921108E+04  0.00000000000E+00 0. -1.
         22    1    3    3    0    0 -0.36225862260E+02 -0.32279183349E+02 -0.65449921166E+02  0.81473621221E+02  0.00000000000E+00 0. -1.
         22    1    3    3    0    0  0.23480362845E+02  0.61766510889E+02 -0.67854048642E+01  0.66426433187E+02  0.00000000000E+00 0. -1.
</event>
<event>
 7    1  0.6122298E-006  0.6638104E+02  0.7818608E-02  0.1437169E+00
          2   -1    0    0  502    0  0.00000000000E+00  0.00000000000E+00  0.52153416440E+03  0.52153416440E+03  0.00000000000E+00 0. -1.
          1   -1    0    0  501    0 -0.00000000000E+00 -0.00000000000E+00 -0.33724064587E+03  0.33724064587E+03  0.00000000000E+00 0. -1.
         25    2    1    2    0    0  0.15543076762E+01  0.74269926966E+02  0.65406669011E+02  0.15944264841E+03  0.12500195141E+03 0.  0.
          2    1    1    2  501    0  0.34485802144E+02 -0.56851109237E+02 -0.28541270931E+03  0.29305585441E+03  0.00000000000E+00 0. -1.
          1    1    1    2  502    0 -0.36040109820E+02 -0.17418817729E+02  0.40429955883E+03  0.40627630745E+03  0.00000000000E+00 0. -1.
         22    1    3    3    0    0 -0.55639581026E+02  0.24806232606E+02  0.56883426955E+02  0.83347683921E+02  0.00000000000E+00 0.  1.
         22    1    3    3    0    0  0.57193888703E+02  0.49463694360E+02  0.85232420567E+01  0.76094964484E+02  0.00000000000E+00 0.  1.
</event>
<event>
 7    1  0.6122298E-006  0.4799510E+02  0.7818608E-02  0.1502041E+00
          2   -1    0    0  502    0  0.00000000000E+00  0.00000000000E+00  0.11862962702E+04  0.11862962702E+04  0.00000000000E+00 0. -1.
          1   -1    0    0  501    0 -0.00000000000E+00 -0.00000000000E+00 -0.25756707338E+03  0.25756707338E+03  0.00000000000E+00 0. -1.
         25    2    1    2    0    0  0.17079428109E+02 -0.65030073247E+00  0.49024551719E+03  0.50621901864E+03  0.12499959181E+03 0.  0.
          2    1    1    2  501    0  0.34649180482E+02  0.28986288339E+01 -0.24738876946E+03  0.24982027742E+03  0.00000000000E+00 0. -1.
          1    1    1    2  502    0 -0.51728608591E+02 -0.22483281015E+01  0.68587244912E+03  0.68782404755E+03  0.00000000000E+00 0. -1.
         22    1    3    3    0    0  0.55026041491E+02  0.41760558371E+02  0.25545072148E+03  0.26462592575E+03  0.00000000000E+00 0.  1.
         22    1    3    3    0    0 -0.37946613382E+02 -0.42410859103E+02  0.23479479571E+03  0.24159309289E+03  0.00000000000E+00 0.  1.
</event>
<event>
 7    1  0.6122298E-006  0.8178210E+02  0.7818608E-02  0.1416000E+00
          2   -1    0    0  502    0  0.00000000000E+00  0.00000000000E+00  0.18576683648E+04  0.18576683648E+04  0.00000000000E+00 0. -1.
          1   -1    0    0  501    0 -0.00000000000E+00 -0.00000000000E+00 -0.46537244033E+03  0.46537244033E+03  0.00000000000E+00 0. -1.
         25    2    1    2    0    0  0.48134912758E+02 -0.57922298270E+02 -0.11500661751E+02  0.14638620844E+03  0.12499877735E+03 0.  0.
          2    1    1    2  501    0 -0.31033611176E+02 -0.22234204595E+02 -0.38454523811E+03  0.38643561563E+03  0.00000000000E+00 0. -1.
          1    1    1    2  502    0 -0.17101301582E+02  0.80156502865E+02  0.17883418243E+04  0.17902189810E+04  0.00000000000E+00 0. -1.
         22    1    3    3    0    0  0.85873757649E+02 -0.64181310264E+02 -0.32776159566E+01  0.10725803283E+03  0.00000000000E+00 0.  1.
         22    1    3    3    0    0 -0.37738844891E+02  0.62590119941E+01 -0.82230457944E+01  0.39128175615E+02  0.00000000000E+00 0.  1.
</event>
<event>
 7    1  0.6122298E-006  0.1594842E+03  0.7818608E-02  0.1324381E+00
          2   -1    0    0  502    0  0.00000000000E+00  0.00000000000E+00  0.93836617318E+03  0.93836617318E+03  0.00000000000E+00 0. -1.
          1   -1    0    0  501    0 -0.00000000000E+00 -0.00000000000E+00 -0.23411207666E+04  0.23411207666E+04  0.00000000000E+00 0. -1.
         25    2    1    2    0    0  0.10299156105E+03  0.13125546482E+03  0.16018026686E+03  0.26290241946E+03  0.12499882228E+03 0.  0.
          2    1    1    2  501    0  0.23339697481E+02 -0.34702471710E+02 -0.22808696426E+04  0.22812530175E+04  0.00000000000E+00 0. -1.
          1    1    1    2  502    0 -0.12633125853E+03 -0.96552993111E+02  0.71793478235E+03  0.73533150284E+03  0.00000000000E+00 0. -1.
         22    1    3    3    0    0  0.60238929104E+02  0.10999182375E+03  0.36938359765E+02  0.13073397528E+03  0.00000000000E+00 0. -1.
         22    1    3    3    0    0  0.42752631949E+02  0.21263641070E+02  0.12324190710E+03  0.13216844417E+03  0.00000000000E+00 0. -1.
</event>
<event>
 7    1  0.6122298E-006  0.1573294E+03  0.7818608E-02  0.1237482E+00
          2   -1    0    0  502    0  0.00000000000E+00  0.00000000000E+00  0.11523580816E+04  0.11523580816E+04  0.00000000000E+00 0. -1.
          1   -1    0    0  501    0 -0.00000000000E+00 -0.00000000000E+00 -0.54168989201E+03  0.54168989201E+03  0.00000000000E+00 0. -1.
         25    2    1    2    0    0 -0.88585845930E+02  0.18607336654E+03  0.11563230070E+03  0.26732789389E+03  0.12499049585E+03 0.  0.
          2    1    1    2  501    0 -0.33641548988E+02 -0.90867833307E+02 -0.45445607867E+03  0.46467089901E+03  0.00000000000E+00 0. -1.
          1    1    1    2  502    0  0.12222739492E+03 -0.95205533236E+02  0.94949196752E+03  0.96204918066E+03  0.00000000000E+00 0. -1.
         22    1    3    3    0    0 -0.26329908515E+02  0.12359908058E+03  0.12608310878E+03  0.17851315672E+03  0.00000000000E+00 0. -1.
         22    1    3    3    0    0 -0.62255937415E+02  0.62474285959E+02 -0.10450808080E+02  0.88814737173E+02  0.00000000000E+00 0. -1.
</event>
<event>
 7    1  0.6122298E-006  0.7959614E+02  0.7818608E-02  0.1336101E+00
          2   -1    0    0  502    0  0.00000000000E+00  0.00000000000E+00  0.28987457576E+04  0.28987457576E+04  0.00000000000E+00 0. -1.
          1   -1    0    0  501    0 -0.00000000000E+00 -0.00000000000E+00 -0.10560481518E+04  0.10560481518E+04  0.00000000000E+00 0. -1.
         25    2    1    2    0    0  0.52992778444E+02 -0.25100590575E+02  0.12756167943E+04  0.12830677025E+04  0.12500499630E+03 0.  0.
          2    1    1    2  501    0 -0.67215289142E+00  0.79657018705E+02 -0.10499309728E+04  0.10529485933E+04  0.00000000000E+00 0. -1.
          1    1    1    2  502    0 -0.52320625553E+02 -0.54556428130E+02  0.16170117843E+04  0.16187776136E+04  0.00000000000E+00 0. -1.
         22    1    3    3    0    0  0.21976676392E+02 -0.29191683147E+02  0.12081274640E+04  0.12086798989E+04  0.00000000000E+00 0. -1.
         22    1    3    3    0    0  0.31016102052E+02  0.40910925726E+01  0.67489330304E+02  0.74387803637E+02  0.00000000000E+00 0. -1.
</event>
<event>
 7    1  0.6122298E-006  0.7180854E+02  0.7818608E-02  0.1436778E+00
          2   -1    0    0  502    0  0.00000000000E+00  0.00000000000E+00  0.17713349673E+04  0.17713349673E+04  0.00000000000E+00 0. -1.
          1   -1    0    0  501    0 -0.00000000000E+00 -0.00000000000E+00 -0.39258088148E+03  0.39258088148E+03  0.00000000000E+00 0. -1.
         25    2    1    2    0    0 -0.28922087326E+02  0.19716332215E+02  0.52172396165E+03  0.53763523055E+03  0.12502211033E+03 0.  0.
          2    1    1    2  501    0  0.61326538005E+02 -0.37806099548E+02 -0.38097116842E+03  0.38772319584E+03  0.00000000000E+00 0. -1.
          1    1    1    2  502    0 -0.32404450679E+02  0.18089767333E+02  0.12380012926E+04  0.12385574224E+04  0.00000000000E+00 0. -1.
         22    1    3    3    0    0 -0.42861404256E+01  0.67739193096E+02  0.37934366517E+03  0.38536811698E+03  0.00000000000E+00 0.  1.
         22    1    3    3    0    0 -0.24635946900E+02 -0.48022860881E+02  0.14238029648E+03  0.15226711356E+03  0.00000000000E+00 0.  1.
</event>
<event>
 7    1  0.6122298E-006  0.6552168E+02  0.7818608E-02  0.1453954E+00
          2   -1    0    0  502    0  0.00000000000E+00  0.00000000000E+00  0.13189402308E+04  0.13189402308E+04  0.00000000000E+00 0. -1.
          1   -1    0    0  501    0 -0.00000000000E+00 -0.00000000000E+00 -0.42607601978E+03  0.42607601978E+03  0.00000000000E+00 0. -1.
         25    2    1    2    0    0 -0.17888497804E+02  0.26243650189E+02 -0.53999288307E+01  0.12909018176E+03  0.12500555294E+03 0.  0.
          2    1    1    2  501    0  0.43389512956E+02 -0.51381947630E+02 -0.35542204293E+03  0.36172860404E+03  0.00000000000E+00 0. -1.
          1    1    1    2  502    0 -0.25501015153E+02  0.25138297442E+02  0.12536861828E+04  0.12541974648E+04  0.00000000000E+00 0. -1.
         22    1    3    3    0    0 -0.13748497280E+02  0.31281249080E+02 -0.62707599943E+02  0.71412749646E+02  0.00000000000E+00 0. -1.
         22    1    3    3    0    0 -0.41400005236E+01 -0.50375988914E+01  0.57307671112E+02  0.57677432113E+02  0.00000000000E+00 0. -1.
</event>
<event>
 7    1  0.6122298E-006  0.3889299E+02  0.7818608E-02  0.1533001E+00
          2   -1    0    0  502    0  0.00000000000E+00  0.00000000000E+00  0.36548143014E+03  0.36548143014E+03  0.00000000000E+00 0. -1.
          1   -1    0    0  501    0 -0.00000000000E+00 -0.00000000000E+00 -0.92417659434E+02  0.92417659434E+02  0.00000000000E+00 0. -1.
         25    2    1    2    0    0 -0.19447226447E+02  0.22718605132E+02  0.28139061560E+03  0.30935419516E+03  0.12500003951E+03 0.  0.
          2    1    1    2  501    0 -0.29335602597E+02 -0.18830312398E+02 -0.64944664927E+02  0.73708668060E+02  0.00000000000E+00 0. -1.
          1    1    1    2  502    0  0.48782829044E+02 -0.38882927346E+01  0.56617820031E+02  0.74836226355E+02  0.00000000000E+00 0. -1.
         22    1    3    3    0    0 -0.31852647152E+02  0.40477616393E+02  0.28298350188E+03  0.28763290997E+03  0.00000000000E+00 0. -1.
         22    1    3    3    0    0  0.12405420705E+02 -0.17759011260E+02 -0.15928862774E+01  0.21721285195E+02  0.00000000000E+00 0. -1.
</event>
<event>
 7    1  0.6122298E-006  0.6347541E+02  0.7818608E-02  0.1474087E+00
          2   -1    0    0  502    0  0.00000000000E+00  0.00000000000E+00  0.24109521243E+04  0.24109521243E+04  0.00000000000E+00 0. -1.
          1   -1    0    0  501    0 -0.00000000000E+00 -0.00000000000E+00 -0.67003449546E+03  0.67003449546E+03  0.00000000000E+00 0. -1.
         25    2    1    2    0    0 -0.36125568650E+02  0.87137241502E+02  0.31394708117E+03  0.35083561561E+03  0.12499961534E+03 0.  0.
          2    1    1    2  501    0  0.87651666113E+01 -0.30734515202E+02 -0.65072528641E+03  0.65150965990E+03  0.00000000000E+00 0. -1.
          1    1    1    2  502    0  0.27360402038E+02 -0.56402726301E+02  0.20776958341E+04  0.20786413443E+04  0.00000000000E+00 0. -1.
         22    1    3    3    0    0 -0.44963540795E+02  0.86134857865E+01  0.26874783959E+02  0.53086402695E+02  0.00000000000E+00 0. -1.
         22    1    3    3    0    0  0.88379721456E+01  0.78523755716E+02  0.28707229721E+03  0.29774921291E+03  0.00000000000E+00 0. -1.
</event>
<event>
 7    1  0.6122298E-006  0.6956460E+02  0.7818608E-02  0.1361660E+00
          2   -1    0    0  502    0  0.00000000000E+00  0.00000000000E+00  0.30747653308E+03  0.30747653308E+03  0.00000000000E+00 0. -1.
          1   -1    0    0  501    0 -0.00000000000E+00 -0.00000000000E+00 -0.80646366591E+03  0.80646366591E+03  0.00000000000E+00 0. -1.
         25    2    1    2    0    0  0.81588483206E+01 -0.14561394793E+02 -0.42953897599E+02  0.13320493177E+03  0.12497966036E+03 0.  0.
          2    1    1    2  501    0  0.50963820998E+02  0.51130315360E+02 -0.71192128115E+03  0.71557217020E+03  0.00000000000E+00 0. -1.
          1    1    1    2  502    0 -0.59122669319E+02 -0.36568920566E+02  0.25588804592E+03  0.26516309702E+03  0.00000000000E+00 0. -1.
         22    1    3    3    0    0  0.52370836285E+02 -0.47609668743E+02 -0.21322099979E+02  0.73918989431E+02  0.00000000000E+00 0.  1.
         22    1    3    3    0    0 -0.44211987964E+02  0.33048273950E+02 -0.21631797621E+02  0.59285942340E+02  0.00000000000E+00 0.  1.
</event>
<event>
 7    1  0.6122298E-006  0.2401422E+03  0.7818608E-02  0.1240361E+00
          2   -1    0    0  502    0  0.00000000000E+00  0.00000000000E+00  0.75021174111E+03  0.75021174111E+03  0.00000000000E+00 0. -1.
          1   -1    0    0  501    0 -0.00000000000E+00 -0.00000000000E+00 -0.82610668110E+03  0.82610668110E+03  0.00000000000E+00 0. -1.
         25    2    1    2    0    0 -0.76484002086E+02 -0.18100544889E+03 -0.13781533736E+03  0.27061157367E+03  0.12499912596E+03 0.  0.
          2    1    1    2  501    0  0.93039890701E+02  0.24038999627E+03 -0.59367457649E+03  0.64721964922E+03  0.00000000000E+00 0. -1.
          1    1    1    2  502    0 -0.16555888615E+02 -0.59384547386E+02  0.65559497386E+03  0.65848719932E+03  0.00000000000E+00 0. -1.
         22    1    3    3    0    0 -0.20881015109E+02 -0.13454066010E+03 -0.14364384388E+03  0.19791604254E+03  0.00000000000E+00 0. -1.
         22    1    3    3    0    0 -0.55602986977E+02 -0.46464788790E+02  0.58285065140E+01  0.72695531130E+02  0.00000000000E+00 0. -1.
</event>
<event>
 7    1  0.6122298E-006  0.7538621E+02  0.7818608E-02  0.1458607E+00
          2   -1    0    0  502    0  0.00000000000E+00  0.00000000000E+00  0.19367380701E+04  0.19367380701E+04  0.00000000000E+00 0. -1.
          1   -1    0    0  501    0 -0.00000000000E+00 -0.00000000000E+00 -0.31915181274E+03  0.31915181274E+03  0.00000000000E+00 0. -1.
         25    2    1    2    0    0 -0.25602971584E+02 -0.99168042625E+02  0.26436820157E+02  0.16375268106E+03  0.12500488895E+03 0.  0.
          2    1    1    2  501    0 -0.33845664116E+01  0.29892034578E+02 -0.24882198573E+03  0.25063393546E+03  0.00000000000E+00 0. -1.
          1    1    1    2  502    0  0.28987537996E+02  0.69276008046E+02  0.18399714229E+04  0.18415032663E+04  0.00000000000E+00 0. -1.
         22    1    3    3    0    0  0.24933388863E+02 -0.10749643131E+03  0.19670924148E+02  0.11208970462E+03  0.00000000000E+00 0. -1.
         22    1    3    3    0    0 -0.50536360447E+02  0.83283886895E+01  0.67658960093E+01  0.51662976436E+02  0.00000000000E+00 0. -1.
</event>
<event>
 7    1  0.6122298E-006  0.7174030E+02  0.7818608E-02  0.1361677E+00
          2   -1    0    0  502    0  0.00000000000E+00  0.00000000000E+00  0.66213383294E+03  0.66213383294E+03  0.00000000000E+00 0. -1.
          1   -1    0    0  501    0 -0.00000000000E+00 -0.00000000000E+00 -0.12264041651E+03  0.12264041651E+03  0.00000000000E+00 0. -1.
         25    2    1    2    0    0 -0.20225006156E+02  0.27428343397E+01  0.12609092661E+03  0.17871982528E+03  0.12500112063E+03 0.  0.
          2    1    1    2  501    0  0.25231947187E+02  0.68822524949E+02 -0.79396957603E+02  0.10806048295E+03  0.00000000000E+00 0. -1.
          1    1    1    2  502    0 -0.50069410309E+01 -0.71565359289E+02  0.49279944743E+03  0.49799394122E+03  0.00000000000E+00 0. -1.
         22    1    3    3    0    0  0.31863818107E+01 -0.58833599660E+02  0.74867763513E+02  0.95271860963E+02  0.00000000000E+00 0.  1.
         22    1    3    3    0    0 -0.23411387967E+02  0.61576434000E+02  0.51223163099E+02  0.83447964316E+02  0.00000000000E+00 0.  1.
</event>
<event>
 7    1  0.6122298E-006  0.6398807E+02  0.7818608E-02  0.1531445E+00
          2   -1    0    0  502    0  0.00000000000E+00  0.00000000000E+00  0.10989374730E+04  0.10989374730E+04  0.00000000000E+00 0. -1.
          1   -1    0    0  501    0 -0.00000000000E+00 -0.00000000000E+00 -0.69048814301E+03  0.69048814301E+03  0.00000000000E+00 0. -1.
         25    2    1    2    0    0  0.58994539552E+01  0.84750696725E+02  0.79273822093E+03  0.80701736434E+03  0.12500262105E+03 0.  0.
          2    1    1    2  501    0 -0.87391960972E+00 -0.63943109053E+02 -0.68146663762E+03  0.68446056360E+03  0.00000000000E+00 0. -1.
          1    1    1    2  502    0 -0.50255343454E+01 -0.20807587672E+02  0.29717774671E+03  0.29794768809E+03  0.00000000000E+00 0. -1.
         22    1    3    3    0    0 -0.44553380293E+02  0.43050622631E+02  0.60562796279E+03  0.60878862434E+03  0.00000000000E+00 0. -1.
         22    1    3    3    0    0  0.50452834248E+02  0.41700074093E+02  0.18711025814E+03  0.19822874001E+03  0.00000000000E+00 0. -1.
</event>
<event>
 7    1  0.6122298E-006  0.9621297E+02  0.7818608E-02  0.1473324E+00
          2   -1    0    0  502    0  0.00000000000E+00  0.00000000000E+00  0.17676106713E+04  0.17676106713E+04  0.00000000000E+00 0. -1.
          1   -1    0    0  501    0 -0.00000000000E+00 -0.00000000000E+00 -0.22731015822E+03  0.22731015822E+03  0.00000000000E+00 0. -1.
         25    2    1    2    0    0  0.33624001467E+02  0.83696783226E+02  0.57548584424E+03  0.59577711588E+03  0.12502275748E+03 0.  0.
          2    1    1    2  501    0  0.21033241647E+02 -0.26557510821E+01 -0.21462037090E+03  0.21566491109E+03  0.00000000000E+00 0. -1.
          1    1    1    2  502    0 -0.54657243114E+02 -0.81041032144E+02  0.11794350397E+04  0.11834788026E+04  0.00000000000E+00 0. -1.
         22    1    3    3    0    0 -0.44154970754E+02  0.21725114684E+02  0.27190700595E+03  0.27632419715E+03  0.00000000000E+00 0.  1.
         22    1    3    3    0    0  0.77778972221E+02  0.61971668542E+02  0.30357883829E+03  0.31945291872E+03  0.00000000000E+00 0.  1.
</event>
<event>
 7    1  0.6122298E-006  0.9223923E+02  0.7818608E-02  0.1446927E+00
          2   -1    0    0  502    0  0.00000000000E+00  0.00000000000E+00  0.56755345145E+03  0.56755345145E+03  0.00000000000E+00 0. -1.
          1   -1    0    0  501    0 -0.00000000000E+00 -0.00000000000E+00 -0.55923029615E+03  0.55923029615E+03  0.00000000000E+00 0. -1.
         25    2    1    2    0    0 -0.13001379502E+02  0.11044859588E+03  0.27189693960E+03  0.31925049554E+03  0.12500001975E+03 0.  0.
          2    1    1    2  501    0  0.27373823102E+02 -0.87843926647E+02 -0.53092735422E+03  0.53884110562E+03  0.00000000000E+00 0. -1.
          1    1    1    2  502    0 -0.14372443601E+02 -0.22604669237E+02  0.26735356992E+03  0.26869214644E+03  0.00000000000E+00 0. -1.
         22    1    3    3    0    0  0.10375719774E+02  0.48000106478E+01  0.17075202901E+03  0.17113430713E+03  0.00000000000E+00 0. -1.
         22    1    3    3    0    0 -0.23377099276E+02  0.10564858524E+03  0.10114491059E+03  0.14811618842E+03  0.00000000000E+00 0. -1.
</event>
<event>
 7    1  0.6122298E-006  0.2087448E+03  0.7818608E-02  0.1253648E+00
          2   -1    0    0  502    0  0.00000000000E+00  0.00000000000E+00  0.39748223320E+04  0.39748223320E+04  0.00000000000E+00 0. -1.
          1   -1    0    0  501    0 -0.00000000000E+00 -0.00000000000E+00 -0.17774730225E+03  0.17774730225E+03  0.00000000000E+00 0. -1.
         25    2    1    2    0    0 -0.11336719210E+03 -0.14179818672E+03  0.85880617129E+02  0.23655644032E+03  0.12499849221E+03 0.  0.
          2    1    1    2  501    0  0.17426696531E+03  0.15377118068E+03  0.30049257354E+02  0.23434485075E+03  0.00000000000E+00 0. -1.
          1    1    1    2  502    0 -0.60899773208E+02 -0.11972993960E+02  0.36811451553E+04  0.36816683432E+04  0.00000000000E+00 0. -1.
         22    1    3    3    0    0 -0.10117088039E+03 -0.27914426514E+02  0.30235503068E+02  0.10921972300E+03  0.00000000000E+00 0.  1.
         22    1    3    3    0    0 -0.12196311709E+02 -0.11388376020E+03  0.55645114061E+02  0.12733671731E+03  0.00000000000E+00 0.  1.
</event>
<event>
 7    1  0.6122298E-006  0.1117459E+03  0.7818608E-02  0.1283019E+00
          2   -1    0    0  502    0  0.00000000000E+00  0.00000000000E+00  0.58575436307E+02  0.58575436307E+02  0.00000000000E+00 0. -1.
          1   -1    0    0  501    0 -0.00000000000E+00 -0.00000000000E+00 -0.26598206180E+04  0.26598206180E+04  0.00000000000E+00 0. -1.
         25    2    1    2    0    0  0.17649356044E+03  0.78332420105E+02 -0.38453912155E+03  0.44808598796E+03  0.12499908674E+03 0.  0.
          2    1    1    2  501    0 -0.91792647066E+02 -0.57581334218E+02 -0.21674464892E+04  0.21701534010E+04  0.00000000000E+00 0. -1.
          1    1    1    2  502    0 -0.84700913369E+02 -0.20751085887E+02 -0.49259570903E+02  0.10015666536E+03  0.00000000000E+00 0. -1.
         22    1    3    3    0    0  0.56148185099E+02  0.92016531817E+02 -0.20310999970E+03  0.22994202051E+03  0.00000000000E+00 0.  1.
         22    1    3    3    0    0  0.12034537534E+03 -0.13684111712E+02 -0.18142912185E+03  0.21814396745E+03  0.00000000000E+00 0.  1.
</event>
<event>
 7    1  0.6122298E-006  0.9513969E+02  0.7818608E-02  0.1361751E+00
          2   -1    0    0  502    0  0.00000000000E+00  0.00000000000E+00  0.17129926518E+04  0.17129926518E+04  0.00000000000E+00 0. -1.
          1   -1    0    0  501    0 -0.00000000000E+00 -0.00000000000E+00 -0.16769486520E+03  0.16769486520E+03  0.00000000000E+00 0. -1.
         25    2    1    2    0    0  0.34511844232E+02  0.37006371491E+02  0.59589317889E+03  0.61096155513E+03  0.12499920911E+03 0.  0.
          2    1    1    2  501    0 -0.40197239340E+02 -0.87478916454E+02 -0.14505099364E+03  0.17409241692E+03  0.00000000000E+00 0. -1.
          1    1    1    2  502    0  0.56853951080E+01  0.50472544963E+02  0.10944556014E+04  0.10956335450E+04  0.00000000000E+00 0. -1.
         22    1    3    3    0    0  0.28576642125E+01 -0.27812620794E+02  0.32085649595E+02  0.42558160558E+02  0.00000000000E+00 0.  1.
         22    1    3    3    0    0  0.31654180019E+02  0.64818992285E+02  0.56380752929E+03  0.56840339457E+03  0.00000000000E+00 0.  1.
</event>
<event>
 7    1  0.6122298E-006  0.5997196E+02  0.7818608E-02  0.1496444E+00
          2   -1    0    0  502    0  0.00000000000E+00  0.00000000000E+00  0.89187763648E+03  0.89187763648E+03  0.00000000000E+00 0. -1.
          1   -1    0    0  501    0 -0.00000000000E+00 -0.00000000000E+00 -0.38962718471E+03  0.38962718471E+03  0.00000000000E+00 0. -1.
         25    2    1    2    0    0  0.52765390991E+01 -0.31794112226E+02  0.16840707834E+03  0.21219172266E+03  0.12500270275E+03 0.  0.
          2    1    1    2  501    0 -0.18905329779E+02  0.57299796580E+02 -0.36495872121E+03  0.36991289024E+03  0.00000000000E+00 0. -1.
          1    1    1    2  502    0  0.13628790680E+02 -0.25505684354E+02  0.69880209464E+03  0.69940020828E+03  0.00000000000E+00 0. -1.
         22    1    3    3    0    0  0.42448659247E+02 -0.17824341376E+02  0.16615722754E+03  0.17241757475E+03  0.00000000000E+00 0.  1.
         22    1    3    3    0    0 -0.37172120148E+02 -0.13969770851E+02  0.22498507980E+01  0.39774147917E+02  0.00000000000E+00 0.  1.
</event>
<event>
 7    1  0.6122298E-006  0.1082329E+03  0.7818608E-02  0.1334813E+00
          2   -1    0    0  502    0  0.00000000000E+00  0.00000000000E+00  0.85597298187E+02  0.85597298187E+02  0.00000000000E+00 0. -1.
          1   -1    0    0  501    0 -0.00000000000E+00 -0.00000000000E+00 -0.73939535325E+03  0.73939535325E+03  0.00000000000E+00 0. -1.
         25    2    1    2    0    0 -0.15242016874E+03  0.19874419932E+02 -0.24705889242E+03  0.31668905182E+03  0.12500783501E+03 0.  0.
          2    1    1    2  501    0  0.96848435262E+02 -0.28372750278E+02 -0.43417419975E+03  0.44574866023E+03  0.00000000000E+00 0. -1.
          1    1    1    2  502    0  0.55571733479E+02  0.84983303456E+01  0.27435037104E+02  0.62554939385E+02  0.00000000000E+00 0. -1.
         22    1    3    3    0    0 -0.16132159948E+03 -0.30006988420E+01 -0.24317875200E+03  0.29183825671E+03  0.00000000000E+00 0. -1.
         22    1    3    3    0    0  0.89014307400E+01  0.22875118774E+02 -0.38801404162E+01  0.24850795114E+02  0.00000000000E+00 0. -1.
</event>
<event>
 7    1  0.6122298E-006  0.1456272E+03  0.7818608E-02  0.1223101E+00
          2   -1    0    0  502    0  0.00000000000E+00  0.00000000000E+00  0.26253530405E+04  0.26253530405E+04  0.00000000000E+00 0. -1.
          1   -1    0    0  501    0 -0.00000000000E+00 -0.00000000000E+00 -0.63437246677E+03  0.63437246677E+03  0.00000000000E+00 0. -1.
         25    2    1    2    0    0  0.94909293419E+02  0.90074702442E+02  0.66421027980E+02  0.19276378372E+03  0.12499958944E+03 0.  0.
          2    1    1    2  501    0  0.10798204111E+02 -0.14983196572E+03 -0.55981583997E+03  0.57962056023E+03  0.00000000000E+00 0. -1.
          1    1    1    2  502    0 -0.10570749753E+03  0.59757263281E+02  0.24843753857E+04  0.24873411633E+04  0.00000000000E+00 0. -1.
         22    1    3    3    0    0 -0.34929933131E-01  0.31864829363E+02  0.74575379385E+02  0.81097816129E+02  0.00000000000E+00 0. -1.
         22    1    3    3    0    0  0.94944223352E+02  0.58209873079E+02 -0.81543514052E+01  0.11166596759E+03  0.00000000000E+00 0. -1.
</event>
<event>
 7    1  0.6122298E-006  0.9052958E+02  0.7818608E-02  0.1334795E+00
          2   -1    0    0  502    0  0.00000000000E+00  0.00000000000E+00  0.16160003860E+04  0.16160003860E+04  0.00000000000E+00 0. -1.
          1   -1    0    0  501    0 -0.00000000000E+00 -0.00000000000E+00 -0.90072537180E+02  0.90072537180E+02  0.00000000000E+00 0. -1.
         25    2    1    2    0    0 -0.11765253048E+03  0.42814181300E+02  0.11876637748E+03  0.21308678039E+03  0.12500140602E+03 0.  0.
          2    1    1    2  501    0  0.29386467091E+02 -0.60458885253E+02 -0.14259413167E+02  0.68718062531E+02  0.00000000000E+00 0. -1.
          1    1    1    2  502    0  0.88266063393E+02  0.17644703953E+02  0.14214208845E+04  0.14242680803E+04  0.00000000000E+00 0. -1.
         22    1    3    3    0    0 -0.11316545111E+03  0.26023186494E+02  0.14240490156E+03  0.18374651439E+03  0.00000000000E+00 0. -1.
         22    1    3    3    0    0 -0.44870793775E+01  0.16790994806E+02 -0.23638524089E+02  0.29340266002E+02  0.00000000000E+00 0. -1.
</event>
<event>
 7    1  0.6122298E-006  0.1150935E+03  0.7818608E-02  0.1255089E+00
          2   -1    0    0  502    0  0.00000000000E+00  0.00000000000E+00  0.26368897941E+04  0.26368897941E+04  0.00000000000E+00 0. -1.
          1   -1    0    0  501    0 -0.00000000000E+00 -0.00000000000E+00 -0.37954617758E+02  0.37954617758E+02  0.00000000000E+00 0. -1.
         25    2    1    2    0    0  0.13688918809E+02  0.64838933260E+02  0.18936861595E+03  0.23638253347E+03  0.12499902263E+03 0.  0.
          2    1    1    2  501    0  0.10258584477E+03 -0.52179135205E+02  0.24446066277E+03  0.27019906243E+03  0.00000000000E+00 0. -1.
          1    1    1    2  502    0 -0.11627476358E+03 -0.12659798054E+02  0.21651058976E+04  0.21682628159E+04  0.00000000000E+00 0. -1.
         22    1    3    3    0    0  0.21077860169E+02  0.74210002253E+02  0.20364958772E+03  0.21777179616E+03  0.00000000000E+00 0. -1.
         22    1    3    3    0    0 -0.73889413604E+01 -0.93710689937E+01 -0.14280971771E+02  0.18610737310E+02  0.00000000000E+00 0. -1.
</event>
<event>
 7    1  0.6122298E-006  0.1219496E+03  0.7818608E-02  0.1313141E+00
          2   -1    0    0  502    0  0.00000000000E+00  0.00000000000E+00  0.11304943450E+04  0.11304943450E+04  0.00000000000E+00 0. -1.
          1   -1    0    0  501    0 -0.00000000000E+00 -0.00000000000E+00 -0.31194185091E+03  0.31194185091E+03  0.00000000000E+00 0. -1.
         25    2    1    2    0    0  0.10033307360E+03  0.21981734801E+02 -0.38775314537E+02  0.16636624604E+03  0.12499712190E+03 0.  0.
          2    1    1    2  501    0 -0.12693170960E+03  0.32337987657E+02 -0.18792412780E+03  0.22906960112E+03  0.00000000000E+00 0. -1.
          1    1    1    2  502    0  0.26598636002E+02 -0.54319722458E+02  0.10452519364E+04  0.10470003487E+04  0.00000000000E+00 0. -1.
         22    1    3    3    0    0  0.95762069584E+02 -0.77265774963E+01 -0.73114358743E+02  0.12073020925E+03  0.00000000000E+00 0. -1.
         22    1    3    3    0    0  0.45710040144E+01  0.29708312297E+02  0.34339044206E+02  0.45636036794E+02  0.00000000000E+00 0. -1.
</event>
<event>
 7    1  0.6122298E-006  0.1138631E+03  0.7818608E-02  0.1338630E+00
          2   -1    0    0  502    0  0.00000000000E+00  0.00000000000E+00  0.22086180558E+04  0.22086180558E+04  0.00000000000E+00 0. -1.
          1   -1    0    0  501    0 -0.00000000000E+00 -0.00000000000E+00 -0.13928731904E+04  0.13928731904E+04  0.00000000000E+00 0. -1.
         25    2    1    2    0    0  0.98452251227E+02 -0.98827561260E+02 -0.19016682628E+02  0.18827209296E+03  0.12500005653E+03 0.  0.
          2    1    1    2  501    0 -0.46944542088E+02  0.10318032967E+03 -0.12864215291E+04  0.12914063346E+04  0.00000000000E+00 0. -1.
          1    1    1    2  502    0 -0.51507709139E+02 -0.43527684075E+01  0.21211830772E+04  0.21218128187E+04  0.00000000000E+00 0. -1.
         22    1    3    3    0    0 -0.17332349984E+02 -0.17461014384E+02  0.29736004099E+02  0.38594394918E+02  0.00000000000E+00 0. -1.
         22    1    3    3    0    0  0.11578460121E+03 -0.81366546876E+02 -0.48752686726E+02  0.14967769804E+03  0.00000000000E+00 0. -1.
</event>
<event>
 7    1  0.6122298E-006  0.1409460E+03  0.7818608E-02  0.1346545E+00
          2   -1    0    0  502    0  0.00000000000E+00  0.00000000000E+00  0.21341155368E+03  0.21341155368E+03  0.00000000000E+00 0. -1.
          1   -1    0    0  501    0 -0.00000000000E+00 -0.00000000000E+00 -0.10761287675E+04  0.10761287675E+04  0.00000000000E+00 0. -1.
         25    2    1    2    0    0 -0.11411266868E+03  0.83327254519E+02 -0.12372548957E+03  0.22560575429E+03  0.12499930839E+03 0.  0.
          2    1    1    2  501    0  0.26838592494E+02  0.28299419578E+02 -0.87004942414E+03  0.87092316977E+03  0.00000000000E+00 0. -1.
          1    1    1    2  502    0  0.87274076191E+02 -0.11162667410E+03  0.13105769985E+03  0.19301139716E+03  0.00000000000E+00 0. -1.
         22    1    3    3    0    0 -0.13579919196E+03  0.76135434023E+02 -0.77205441838E+02  0.17377774627E+03  0.00000000000E+00 0.  1.
         22    1    3    3    0    0  0.21686523270E+02  0.71918204963E+01 -0.46520047737E+02  0.51828008017E+02  0.00000000000E+00 0.  1.
</event>
<event>
 7    1  0.6122298E-006  0.9905872E+02  0.7818608E-02  0.1429888E+00
          2   -1    0    0  502    0  0.00000000000E+00  0.00000000000E+00  0.26432377633E+03  0.26432377633E+03  0.00000000000E+00 0. -1.
          1   -1    0    0  501    0 -0.00000000000E+00 -0.00000000000E+00 -0.37629420945E+03  0.37629420945E+03  0.00000000000E+00 0. -1.
         25    2    1    2    0    0 -0.75887863906E+02  0.30495852124E+02 -0.53418879918E+00  0.14937685634E+03  0.12499677983E+03 0.  0.
          2    1    1    2  501    0 -0.25167267738E+02 -0.13025252979E+02 -0.28674338831E+03  0.28814027716E+03  0.00000000000E+00 0. -1.
          1    1    1    2  502    0  0.10105513164E+03 -0.17470599144E+02  0.17530714399E+03  0.20310085229E+03  0.00000000000E+00 0. -1.
         22    1    3    3    0    0 -0.89907512713E+01  0.34164654177E+02  0.52947046445E+02  0.63650977453E+02  0.00000000000E+00 0. -1.
         22    1    3    3    0    0 -0.66897112635E+02 -0.36688020538E+01 -0.53481235244E+02  0.85725878885E+02  0.00000000000E+00 0. -1.
</event>
<event>
 7    1  0.6122298E-006  0.4598790E+02  0.7818608E-02  0.1521375E+00
          2   -1    0    0  502    0  0.00000000000E+00  0.00000000000E+00  0.29118617228E+03  0.29118617228E+03  0.00000000000E+00 0. -1.
          1   -1    0    0  501    0 -0.00000000000E+00 -0.00000000000E+00 -0.10850917112E+04  0.10850917112E+04  0.00000000000E+00 0. -1.
         25    2    1    2    0    0  0.63110253659E+02 -0.41855473704E+02 -0.29369822345E+02  0.14907103571E+03  0.12499920971E+03 0.  0.
          2    1    1    2  501    0 -0.42061743084E+02  0.17964610965E+02 -0.99424745058E+03  0.99529890508E+03  0.00000000000E+00 0. -1.
          1    1    1    2  502    0 -0.21048510576E+02  0.23890862738E+02  0.22971173402E+03  0.23190794266E+03  0.00000000000E+00 0. -1.
         22    1    3    3    0    0  0.98638990916E+02 -0.23968679864E+02 -0.33991368477E+01  0.10156624574E+03  0.00000000000E+00 0.  1.
         22    1    3    3    0    0 -0.35528737256E+02 -0.17886793840E+02 -0.25970685498E+02  0.47504789970E+02  0.00000000000E+00 0.  1.
</event>
<event>
 7    1  0.6122298E-006  0.1061139E+03  0.7818608E-02  0.1312543E+00
          2   -1    0    0  502    0  0.00000000000E+00  0.00000000000E+00  0.72198877353E+03  0.72198877353E+03  0.00000000000E+00 0. -1.
          1   -1    0    0  501    0 -0.00000000000E+00 -0.00000000000E+00 -0.13024909847E+04  0.13024909847E+04  0.00000000000E+00 0. -1.
         25    2    1    2    0    0 -0.16114083318E+02 -0.44757217407E+02 -0.23885863206E+03  0.27375322721E+03  0.12499804442E+03 0.  0.
          2    1    1    2  501    0  0.48836061312E+02  0.10650772183E+03 -0.10411577805E+04  0.10477301082E+04  0.00000000000E+00 0. -1.
          1    1    1    2  502    0 -0.32721977995E+02 -0.61750504426E+02  0.69951420136E+03  0.70299642286E+03  0.00000000000E+00 0. -1.
         22    1    3    3    0    0 -0.34484357435E+02  0.35714264302E+02 -0.11057798531E+03  0.12121126357E+03  0.00000000000E+00 0.  1.
         22    1    3    3    0    0  0.18370274117E+02 -0.80471481709E+02 -0.12828064675E+03  0.15254196364E+03  0.00000000000E+00 0.  1.
</event>
<event>
 7    1  0.6122298E-006  0.7279445E+02  0.7818608E-02  0.1354948E+00
          2   -1    0    0  502    0  0.00000000000E+00  0.00000000000E+00  0.15667112933E+03  0.15667112933E+03  0.00000000000E+00 0. -1.
          1   -1    0    0  501    0 -0.00000000000E+00 -0.00000000000E+00 -0.16315809073E+03  0.16315809073E+03  0.00000000000E+00 0. -1.
         25    2    1    2    0    0 -0.46997459544E+02 -0.43130882475E+02  0.23738029302E+02  0.14233166857E+03  0.12500310243E+03 0.  0.
          2    1    1    2  501    0 -0.40650562730E+02  0.57353290129E+02 -0.50326888065E+02  0.86456138019E+02  0.00000000000E+00 0. -1.
          1    1    1    2  502    0  0.87648022274E+02 -0.14222407654E+02  0.20101897361E+02  0.91041413464E+02  0.00000000000E+00 0. -1.
         22    1    3    3    0    0  0.15594094002E+02  0.33970831641E+02  0.21236881258E+02  0.42990676847E+02  0.00000000000E+00 0. -1.
         22    1    3    3    0    0 -0.62591553547E+02 -0.77101714116E+02  0.25011480442E+01  0.99340991723E+02  0.00000000000E+00 0. -1.
</event>
<event>
 7    1  0.6122298E-006  0.6488386E+02  0.7818608E-02  0.1421717E+00
          2   -1    0    0  502    0  0.00000000000E+00  0.00000000000E+00  0.11519116784E+04  0.11519116784E+04  0.00000000000E+00 0. -1.
          1   -1    0    0  501    0 -0.00000000000E+00 -0.00000000000E+00 -0.40199292528E+03  0.40199292528E+03  0.00000000000E+00 0. -1.
         25    2    1    2    0    0  0.24559228536E+02 -0.52945038443E+02  0.10250680090E+03  0.17186468362E+03  0.12499396963E+03 0.  0.
          2    1    1    2  501    0  0.20582234136E+02  0.62027380660E+02 -0.36387903127E+03  0.36970119518E+03  0.00000000000E+00 0. -1.
          1    1    1    2  502    0 -0.45141462671E+02 -0.90823422166E+01  0.10112909835E+04  0.10123387248E+04  0.00000000000E+00 0. -1.
         22    1    3    3    0    0 -0.36807082829E+02  0.54557194406E+01 -0.20870487893E+01  0.37267707115E+02  0.00000000000E+00 0. -1.
         22    1    3    3    0    0  0.61366311364E+02 -0.58400757884E+02  0.10459384969E+03  0.13459697651E+03  0.00000000000E+00 0. -1.
</event>
<event>
 7    1  0.6122298E-006  0.2160910E+03  0.7818608E-02  0.1354084E+00
          2   -1    0    0  502    0  0.00000000000E+00  0.00000000000E+00  0.17597217860E+04  0.17597217860E+04  0.00000000000E+00 0. -1.
          1   -1    0    0  501    0 -0.00000000000E+00 -0.00000000000E+00 -0.24136412596E+03  0.24136412596E+03  0.00000000000E+00 0. -1.
         25    2    1    2    0    0 -0.13487429687E+03  0.17890176819E+03 -0.14914736712E+02  0.25698848157E+03  0.12499484656E+03 0.  0.
          2    1    1    2  501    0  0.14036630955E+03 -0.15568727976E+03 -0.10154975377E+01  0.20962409492E+03  0.00000000000E+00 0. -1.
          1    1    1    2  502    0 -0.54920126804E+01 -0.23214488430E+02  0.15342878943E+04  0.15344733354E+04  0.00000000000E+00 0. -1.
         22    1    3    3    0    0 -0.15625303621E+03  0.13307595088E+03 -0.41275257578E+01  0.20528335660E+03  0.00000000000E+00 0.  1.
         22    1    3    3    0    0  0.21378739336E+02  0.45825817313E+02 -0.10787210954E+02  0.51705124970E+02  0.00000000000E+00 0.  1.
</event>
<event>
 7    1  0.6122298E-006  0.1119490E+03  0.7818608E-02  0.1441612E+00
          2   -1    0    0  502    0  0.00000000000E+00  0.00000000000E+00  0.12488714100E+04  0.12488714100E+04  0.00000000000E+00 0. -1.
          1   -1    0    0  501    0 -0.00000000000E+00 -0.00000000000E+00 -0.14328033969E+04  0.14328033969E+04  0.00000000000E+00 0. -1.
         25    2    1    2    0    0  0.11786768834E+03  0.51127172388E+02  0.48941102176E+03  0.52120609977E+03  0.12500348196E+03 0.  0.
          2    1    1    2  501    0 -0.95864410121E+02 -0.57684624839E+02 -0.14145192188E+04  0.14189369688E+04  0.00000000000E+00 0. -1.
          1    1    1    2  502    0 -0.22003278220E+02  0.65574524511E+01  0.74117621018E+03  0.74153173834E+03  0.00000000000E+00 0. -1.
         22    1    3    3    0    0  0.36018521678E+02 -0.41421277243E+02  0.17433315689E+03  0.18277063688E+03  0.00000000000E+00 0. -1.
         22    1    3    3    0    0  0.81849166663E+02  0.92548449630E+02  0.31507786487E+03  0.33843546289E+03  0.00000000000E+00 0. -1.
</event>
<event>
 7    1  0.6122298E-006  0.1063407E+03  0.7818608E-02  0.1322032E+00
          2   -1    0    0  502    0  0.00000000000E+00  0.00000000000E+00  0.22795942912E+04  0.22795942912E+04  0.00000000000E+00 0. -1.
          1   -1    0    0  501    0 -0.00000000000E+00 -0.00000000000E+00 -0.80630390378E+03  0.80630390378E+03  0.00000000000E+00 0. -1.
         25    2    1    2    0    0  0.72759240676E+02  0.14367931926E+03  0.97566921008E+00  0.20387063495E+03  0.12499851990E+03 0.  0.
          2    1    1    2  501    0 -0.49578166255E+02 -0.40543038441E+02 -0.70211495580E+03  0.70502988851E+03  0.00000000000E+00 0. -1.
          1    1    1    2  502    0 -0.23181074421E+02 -0.10313628082E+03  0.21744296740E+04  0.21769976715E+04  0.00000000000E+00 0. -1.
         22    1    3    3    0    0 -0.57452376044E+01  0.10658622641E+03 -0.31306095310E+02  0.11123714765E+03  0.00000000000E+00 0. -1.
         22    1    3    3    0    0  0.78504478280E+02  0.37093092852E+02  0.32281764520E+02  0.92633487292E+02  0.00000000000E+00 0. -1.
</event>
<event>
 7    1  0.6999838E-006  0.4539164E+02  0.7818608E-02  0.1563121E+00
          2   -1    0    0  502    0  0.00000000000E+00  0.00000000000E+00  0.79360623925E+03  0.79360623925E+03  0.00000000000E+00 0. -1.
          1   -1    0    0  501    0 -0.00000000000E+00 -0.00000000000E+00 -0.19347277264E+04  0.19347277264E+04  0.00000000000E+00 0. -1.
         25    2    1    2    0    0  0.14195138570E+01 -0.28790436184E+02 -0.36224344663E+03  0.38428728006E+03  0.12500197899E+03 0.  0.
          2    1    1    2  501    0 -0.21500528689E+02 -0.11957485325E+02 -0.15607060965E+04  0.15608999884E+04  0.00000000000E+00 0. -1.
          1    1    1    2  502    0  0.20081014832E+02  0.40747921509E+02  0.78182805595E+03  0.78314669720E+03  0.00000000000E+00 0. -1.
         22    1    3    3    0    0  0.61355175361E+02 -0.39598852233E+01 -0.20954578305E+03  0.21837942538E+03  0.00000000000E+00 0.  1.
         22    1    3    3    0    0 -0.59935661504E+02 -0.24830550961E+02 -0.15269766358E+03  0.16590785468E+03  0.00000000000E+00 0.  1.
</event>
<event>
 7    1  0.6122298E-006  0.1083410E+03  0.7818608E-02  0.1285869E+00
          2   -1    0    0  502    0  0.00000000000E+00  0.00000000000E+00  0.33942812216E+03  0.33942812216E+03  0.00000000000E+00 0. -1.
          1   -1    0    0  501    0 -0.00000000000E+00 -0.00000000000E+00 -0.16383903225E+03  0.16383903225E+03  0.00000000000E+00 0. -1.
         25    2    1    2    0    0  0.74854990616E+02 -0.64515008122E+02  0.96504372050E+02  0.18628882300E+03  0.12499990343E+03 0.  0.
          2    1    1    2  501    0 -0.65482767524E+02 -0.58122283408E+02 -0.78144072465E+02  0.11735709920E+03  0.00000000000E+00 0. -1.
          1    1    1    2  502    0 -0.93722230916E+01  0.12263729153E+03  0.15722879032E+03  0.19962123220E+03  0.00000000000E+00 0. -1.
         22    1    3    3    0    0  0.42109670273E+02  0.24893333027E+02  0.73571921372E+02  0.88350042298E+02  0.00000000000E+00 0. -1.
         22    1    3    3    0    0  0.32745320343E+02 -0.89408341149E+02  0.22932450677E+02  0.97938780703E+02  0.00000000000E+00 0. -1.
</event>
<event>
 7    1  0.6122298E-006  0.1696496E+03  0.7818608E-02  0.1214302E+00
          2   -1    0    0  502    0  0.00000000000E+00  0.00000000000E+00  0.21735537151E+04  0.21735537151E+04  0.00000000000E+00 0. -1.
          1   -1    0    0  501    0 -0.00000000000E+00 -0.00000000000E+00 -0.24107910134E+03  0.24107910134E+03  0.00000000000E+00 0. -1.
         25    2    1    2    0    0  0.11545510505E+03  0.11949898397E+03  0.14974002178E+03  0.25623784795E+03  0.12500348853E+03 0.  0.
          2    1    1    2  501    0 -0.17542574285E+03 -0.22140788353E+02 -0.14414375799E+03  0.22812678214E+03  0.00000000000E+00 0. -1.
          1    1    1    2  502    0  0.59970637804E+02 -0.97358195618E+02  0.19268783499E+04  0.19302681863E+04  0.00000000000E+00 0. -1.
         22    1    3    3    0    0  0.78468625599E+02  0.81056390694E+02  0.16578606524E+03  0.20053050417E+03  0.00000000000E+00 0.  1.
         22    1    3    3    0    0  0.36986479447E+02  0.38442593277E+02 -0.16046043456E+02  0.55707343774E+02  0.00000000000E+00 0.  1.
</event>
<event>
 7    1  0.9804053E-006  0.4985256E+02  0.7818608E-02  0.1485760E+00
          2   -1    0    0  502    0  0.00000000000E+00  0.00000000000E+00  0.15659459101E+04  0.15659459101E+04  0.00000000000E+00 0. -1.
          1   -1    0    0  501    0 -0.00000000000E+00 -0.00000000000E+00 -0.13994162432E+04  0.13994162432E+04  0.00000000000E+00 0. -1.
         25    2    1    2    0    0  0.46634440095E+02  0.37637372426E+01 -0.64716502518E+03  0.66078446021E+03  0.12499838530E+03 0.  0.
          2    1    1    2  501    0 -0.39913592709E+02  0.33101014498E+02 -0.74431420602E+03  0.74611822745E+03  0.00000000000E+00 0. -1.
          1    1    1    2  502    0 -0.67208473860E+01 -0.36864751741E+02  0.15580088980E+04  0.15584594656E+04  0.00000000000E+00 0. -1.
         22    1    3    3    0    0  0.64101504707E+02 -0.11123269249E+02 -0.15520504031E+03  0.16828943687E+03  0.00000000000E+00 0. -1.
         22    1    3    3    0    0 -0.17467064612E+02  0.14887006491E+02 -0.49195998487E+03  0.49249502334E+03  0.00000000000E+00 0. -1.
</event>
<event>
 7    1  0.6122298E-006  0.6137690E+02  0.7818608E-02  0.1492411E+00
          2   -1    0    0  502    0  0.00000000000E+00  0.00000000000E+00  0.24414062881E+04  0.24414062881E+04  0.00000000000E+00 0. -1.
          1   -1    0    0  501    0 -0.00000000000E+00 -0.00000000000E+00 -0.51951616912E+02  0.51951616912E+02  0.00000000000E+00 0. -1.
         25    2    1    2    0    0  0.48731748207E+02 -0.30372220938E+02  0.97809079762E+03  0.98771600970E+03  0.12499620932E+03 0.  0.
          2    1    1    2  501    0 -0.30876348199E+02  0.53295506456E+02 -0.26809364018E+02  0.67175158247E+02  0.00000000000E+00 0. -1.
          1    1    1    2  502    0 -0.17855400009E+02 -0.22923285517E+02  0.14381732376E+04  0.14384667370E+04  0.00000000000E+00 0. -1.
         22    1    3    3    0    0 -0.39394920932E+02  0.98810768074E+01  0.27634444113E+03  0.27931316764E+03  0.00000000000E+00 0. -1.
         22    1    3    3    0    0  0.88126669139E+02 -0.40253297746E+02  0.70174635650E+03  0.70840284207E+03  0.00000000000E+00 0. -1.
</event>
<event>
 7    1  0.6122298E-006  0.6491658E+02  0.7818608E-02  0.1390011E+00
          2   -1    0    0  502    0  0.00000000000E+00  0.00000000000E+00  0.22065153857E+03  0.22065153857E+03  0.00000000000E+00 0. -1.
          1   -1    0    0  501    0 -0.00000000000E+00 -0.00000000000E+00 -0.83893065911E+03  0.83893065911E+03  0.00000000000E+00 0. -1.
         25    2    1    2    0    0 -0.75064291039E+02  0.17427939155E+02  0.48946361173E+02  0.15478566259E+03  0.12499789685E+03 0.  0.
          2    1    1    2  501    0  0.20369526095E+02 -0.55405487437E+02 -0.77546870453E+03  0.77771228442E+03  0.00000000000E+00 0. -1.
          1    1    1    2  502    0  0.54694764944E+02  0.37977548282E+02  0.10824322281E+03  0.12708425068E+03  0.00000000000E+00 0. -1.
         22    1    3    3    0    0 -0.45880908896E+01 -0.47529979608E+02  0.13442310931E+01  0.47769828310E+02  0.00000000000E+00 0.  1.
         22    1    3    3    0    0 -0.70476200149E+02  0.64957918763E+02  0.47602130080E+02  0.10701583428E+03  0.00000000000E+00 0.  1.
</event>
<event>
 7    1  0.6122298E-006  0.4973294E+02  0.7818608E-02  0.1451060E+00
          2   -1    0    0  502    0  0.00000000000E+00  0.00000000000E+00  0.18180154771E+04  0.18180154771E+04  0.00000000000E+00 0. -1.
          1   -1    0    0  501    0 -0.00000000000E+00 -0.00000000000E+00 -0.41792106870E+03  0.41792106870E+03  0.00000000000E+00 0. -1.
         25    2    1    2    0    0 -0.34344270889E+02 -0.51749627852E+02  0.66617398654E+02  0.15466135307E+03  0.12499881361E+03 0.  0.
          2    1    1    2  501    0  0.48034828391E+02  0.38588753343E+01 -0.37198126337E+03  0.37508971720E+03  0.00000000000E+00 0. -1.
          1    1    1    2  502    0 -0.13690557502E+02  0.47890752518E+02  0.17054582731E+04  0.17061854755E+04  0.00000000000E+00 0. -1.
         22    1    3    3    0    0 -0.41234643194E+02 -0.20146453401E+02 -0.28616735391E+02  0.54084128249E+02  0.00000000000E+00 0. -1.
         22    1    3    3    0    0  0.68903723051E+01 -0.31603174451E+02  0.95234134045E+02  0.10057722482E+03  0.00000000000E+00 0. -1.
</event>
<event>
 7    1  0.6122298E-006  0.6723648E+02  0.7818608E-02  0.1443815E+00
          2   -1    0    0  502    0  0.00000000000E+00  0.00000000000E+00  0.12168215716E+03  0.12168215716E+03  0.00000000000E+00 0. -1.
          1   -1    0    0  501    0 -0.00000000000E+00 -0.00000000000E+00 -0.21521653760E+04  0.21521653760E+04  0.00000000000E+00 0. -1.
         25    2    1    2    0    0  0.27570625450E+02  0.15514603715E+02 -0.30004468265E+03  0.32658162288E+03  0.12501160947E+03 0.  0.
          2    1    1    2  501    0 -0.63041739881E+02 -0.28004888176E+02 -0.18349233748E+04  0.18362195746E+04  0.00000000000E+00 0. -1.
          1    1    1    2  502    0  0.35471114431E+02  0.12490284461E+02  0.10448483862E+03  0.11104633567E+03  0.00000000000E+00 0. -1.
         22    1    3    3    0    0 -0.36848596111E+02  0.13557998725E+01 -0.27047892066E+02  0.45730139885E+02  0.00000000000E+00 0. -1.
         22    1    3    3    0    0  0.64419221561E+02  0.14158803843E+02 -0.27299679058E+03  0.28085148299E+03  0.00000000000E+00 0. -1.
</event>
<event>
 7    1  0.6122298E-006  0.7714646E+02  0.7818608E-02  0.1497844E+00
          2   -1    0    0  502    0  0.00000000000E+00  0.00000000000E+00  0.66797316212E+03  0.66797316212E+03  0.00000000000E+00 0. -1.
          1   -1    0    0  501    0 -0.00000000000E+00 -0.00000000000E+00 -0.13513753823E+04  0.13513753823E+04  0.00000000000E+00 0. -1.
         25    2    1    2    0    0  0.52908003942E+02  0.20909488652E+02  0.21932864427E+03  0.25877889320E+03  0.12499999109E+03 0.  0.
          2    1    1    2  501    0 -0.75027409855E+02 -0.18371217894E+02 -0.13302401732E+04  0.13324809688E+04  0.00000000000E+00 0. -1.
          1    1    1    2  502    0  0.22119405913E+02 -0.25382707579E+01  0.42750930875E+03  0.42808868241E+03  0.00000000000E+00 0. -1.
         22    1    3    3    0    0  0.92221883660E+02  0.23985728186E+02  0.17636510698E+03  0.20046157223E+03  0.00000000000E+00 0.  1.
         22    1    3    3    0    0 -0.39313879718E+02 -0.30762395344E+01  0.42963537287E+02  0.58317320964E+02  0.00000000000E+00 0.  1.
</event>
<event>
 7    1  0.6122298E-006  0.5911581E+02  0.7818608E-02  0.1412540E+00
          2   -1    0    0  502    0  0.00000000000E+00  0.00000000000E+00  0.73791216306E+02  0.73791216306E+02  0.00000000000E+00 0. -1.
          1   -1    0    0  501    0 -0.00000000000E+00 -0.00000000000E+00 -0.20192209045E+04  0.20192209045E+04  0.00000000000E+00 0. -1.
         25    2    1    2    0    0 -0.39385636698E+02  0.96840000523E+02 -0.26322569287E+03  0.30958383556E+03  0.12500068709E+03 0.  0.
          2    1    1    2  501    0  0.36597571153E+02 -0.40046539143E+02 -0.17162803189E+04  0.17171375136E+04  0.00000000000E+00 0. -1.
          1    1    1    2  502    0  0.27880655447E+01 -0.56793461380E+02  0.34076323646E+02  0.66290771592E+02  0.00000000000E+00 0. -1.
         22    1    3    3    0    0  0.23653195367E+00 -0.45908638877E+01 -0.15828999208E+03  0.15835672885E+03  0.00000000000E+00 0. -1.
         22    1    3    3    0    0 -0.39622168651E+02  0.10143086441E+03 -0.10493570078E+03  0.15122710671E+03  0.00000000000E+00 0. -1.
</event>
<event>
 7    1  0.6122298E-006  0.1133178E+03  0.7818608E-02  0.1454195E+00
          2   -1    0    0  502    0  0.00000000000E+00  0.00000000000E+00  0.77298953988E+03  0.77298953988E+03  0.00000000000E+00 0. -1.
          1   -1    0    0  501    0 -0.00000000000E+00 -0.00000000000E+00 -0.53424952813E+03  0.53424952813E+03  0.00000000000E+00 0. -1.
         25    2    1    2    0    0 -0.43049022570E+02 -0.11248600494E+03  0.49339273254E+03  0.52303500505E+03  0.12499163308E+03 0.  0.
          2    1    1    2  501    0  0.22433643840E+02  0.11100694139E+03 -0.51283746101E+03  0.52519336518E+03  0.00000000000E+00 0. -1.
          1    1    1    2  502    0  0.20615378730E+02  0.14790635482E+01  0.25818474024E+03  0.25901069777E+03  0.00000000000E+00 0. -1.
         22    1    3    3    0    0 -0.78540317345E+01 -0.83819617861E+02  0.45745979604E+03  0.46514178392E+03  0.00000000000E+00 0.  1.
         22    1    3    3    0    0 -0.35194990836E+02 -0.28666387082E+02  0.35932936492E+02  0.57893221133E+02  0.00000000000E+00 0.  1.
</event>
<event>
 7    1  0.6122298E-006  0.2978996E+03  0.7818608E-02  0.1227660E+00
          2   -1    0    0  502    0  0.00000000000E+00  0.00000000000E+00  0.23824841573E+04  0.23824841573E+04  0.00000000000E+00 0. -1.
          1   -1    0    0  501    0 -0.00000000000E+00 -0.00000000000E+00 -0.10824284233E+04  0.10824284233E+04  0.00000000000E+00 0. -1.
         25    2    1    2    0    0  0.25998560243E+03 -0.13487316314E+03 -0.29221508230E+03  0.43220315327E+03  0.12500651089E+03 0.  0.
          2    1    1    2  501    0 -0.23713819652E+03  0.18666867487E+03 -0.68823733710E+03  0.75149873626E+03  0.00000000000E+00 0. -1.
          1    1    1    2  502    0 -0.22847405907E+02 -0.51795511736E+02  0.22805081534E+04  0.22812106910E+04  0.00000000000E+00 0. -1.
         22    1    3    3    0    0  0.10943256347E+03 -0.34321932257E+01 -0.15502798222E+03  0.18979183641E+03  0.00000000000E+00 0. -1.
         22    1    3    3    0    0  0.15055303896E+03 -0.13144096991E+03 -0.13718710009E+03  0.24241131686E+03  0.00000000000E+00 0. -1.
</event>
<event>
 7    1  0.6122298E-006  0.4285047E+02  0.7818608E-02  0.1491145E+00
          2   -1    0    0  502    0  0.00000000000E+00  0.00000000000E+00  0.17208103275E+04  0.17208103275E+04  0.00000000000E+00 0. -1.
          1   -1    0    0  501    0 -0.00000000000E+00 -0.00000000000E+00 -0.20846925485E+03  0.20846925485E+03  0.00000000000E+00 0. -1.
         25    2    1    2    0    0  0.69758531894E+02 -0.41390511714E+02 -0.22434316599E+02  0.15069192350E+03  0.12500132005E+03 0.  0.
          2    1    1    2  501    0 -0.28296710393E+02  0.31019822427E+02 -0.11800632311E+03  0.12525344505E+03  0.00000000000E+00 0. -1.
          1    1    1    2  502    0 -0.41461821501E+02  0.10370689287E+02  0.16527817124E+04  0.16533342138E+04  0.00000000000E+00 0. -1.
         22    1    3    3    0    0  0.61967882734E+02  0.18294836321E+02 -0.52645191787E+02  0.83344080443E+02  0.00000000000E+00 0. -1.
         22    1    3    3    0    0  0.77906491595E+01 -0.59685348035E+02  0.30210875189E+02  0.67347843055E+02  0.00000000000E+00 0. -1.
</event>
<event>
 7    1  0.6122298E-006  0.6804342E+02  0.7818608E-02  0.1492310E+00
          2   -1    0    0  502    0  0.00000000000E+00  0.00000000000E+00  0.47486755559E+03  0.47486755559E+03  0.00000000000E+00 0. -1.
          1   -1    0    0  501    0 -0.00000000000E+00 -0.00000000000E+00 -0.86967972181E+03  0.86967972181E+03  0.00000000000E+00 0. -1.
         25    2    1    2    0    0 -0.43310442962E+02  0.32485183515E+02  0.23268947679E+03  0.26964020542E+03  0.12502146277E+03 0.  0.
          2    1    1    2  501    0 -0.25259855826E+02 -0.70612427983E+01 -0.84501846687E+03  0.84542541411E+03  0.00000000000E+00 0. -1.
          1    1    1    2  502    0  0.68570298788E+02 -0.25423940716E+02  0.21751682387E+03  0.22948165788E+03  0.00000000000E+00 0. -1.
         22    1    3    3    0    0  0.26989578053E+02  0.50930859831E+02  0.14313157438E+03  0.15430177378E+03  0.00000000000E+00 0. -1.
         22    1    3    3    0    0 -0.70300021015E+02 -0.18445676316E+02  0.89557902410E+02  0.11533843164E+03  0.00000000000E+00 0. -1.
</event>
<event>
 7    1  0.6122298E-006  0.6804278E+02  0.7818608E-02  0.1499790E+00
          2   -1    0    0  502    0  0.00000000000E+00  0.00000000000E+00  0.86794593596E+03  0.86794593596E+03  0.00000000000E+00 0. -1.
          1   -1    0    0  501    0 -0.00000000000E+00 -0.00000000000E+00 -0.56282785504E+03  0.56282785504E+03  0.00000000000E+00 0. -1.
         25    2    1    2    0    0  0.87638533602E+02 -0.29773358508E+02 -0.68739097195E+02  0.17004898182E+03  0.12499850914E+03 0.  0.
          2    1    1    2  501    0 -0.22884146416E+02  0.98339959293E+01 -0.44167808964E+03  0.44237984414E+03  0.00000000000E+00 0. -1.
          1    1    1    2  502    0 -0.64754387186E+02  0.19939362579E+02  0.81553526776E+03  0.81834496503E+03  0.00000000000E+00 0. -1.
         22    1    3    3    0    0  0.72827614471E+02 -0.24622221949E+02 -0.10523625584E+03  0.13032568736E+03  0.00000000000E+00 0. -1.
         22    1    3    3    0    0  0.14810919130E+02 -0.51511365586E+01  0.36497158646E+02  0.39723294457E+02  0.00000000000E+00 0. -1.
</event>
<event>
 7    1  0.6122298E-006  0.1248231E+03  0.7818608E-02  0.1385915E+00
          2   -1    0    0  502    0  0.00000000000E+00  0.00000000000E+00  0.16543534154E+04  0.16543534154E+04  0.00000000000E+00 0. -1.
          1   -1    0    0  501    0 -0.00000000000E+00 -0.00000000000E+00 -0.63215646853E+03  0.63215646853E+03  0.00000000000E+00 0. -1.
         25    2    1    2    0    0  0.65521659859E+02 -0.11827387198E+03 -0.87566564906E+02  0.20390042962E+03  0.12500274079E+03 0.  0.
          2    1    1    2  501    0 -0.31682014665E+02 -0.17556388109E+01 -0.48346626693E+03  0.48450641232E+03  0.00000000000E+00 0. -1.
          1    1    1    2  502    0 -0.33839645194E+02  0.12002951079E+03  0.15932297787E+04  0.15981030420E+04  0.00000000000E+00 0. -1.
         22    1    3    3    0    0 -0.26781798285E+02  0.31706042799E+01 -0.31293262455E+02  0.41310842717E+02  0.00000000000E+00 0. -1.
         22    1    3    3    0    0  0.92303458145E+02 -0.12144447626E+03 -0.56273302451E+02  0.16258958690E+03  0.00000000000E+00 0. -1.
</event>
<event>
 7    1  0.6122298E-006  0.7419980E+02  0.7818608E-02  0.1482383E+00
          2   -1    0    0  502    0  0.00000000000E+00  0.00000000000E+00  0.45963847560E+03  0.45963847560E+03  0.00000000000E+00 0. -1.
          1   -1    0    0  501    0 -0.00000000000E+00 -0.00000000000E+00 -0.13993598106E+04  0.13993598106E+04  0.00000000000E+00 0. -1.
         25    2    1    2    0    0  0.41861275713E+02 -0.83836652292E+02  0.91674131802E+02  0.18113555344E+03  0.12499996642E+03 0.  0.
          2    1    1    2  501    0 -0.21516371754E+02  0.14202015709E+02 -0.13504340110E+04  0.13506800767E+04  0.00000000000E+00 0. -1.
          1    1    1    2  502    0 -0.20344903959E+02  0.69634636583E+02  0.31903854422E+03  0.32718265606E+03  0.00000000000E+00 0. -1.
         22    1    3    3    0    0  0.71666814928E+02 -0.24252678166E+02  0.85588291499E+02  0.11423519774E+03  0.00000000000E+00 0. -1.
         22    1    3    3    0    0 -0.29805539215E+02 -0.59583974125E+02  0.60858403037E+01  0.66900355699E+02  0.00000000000E+00 0. -1.
</event>
<event>
 7    1  0.6122298E-006  0.7614343E+02  0.7818608E-02  0.1421277E+00
          2   -1    0    0  502    0  0.00000000000E+00  0.00000000000E+00  0.24324257337E+04  0.24324257337E+04  0.00000000000E+00 0. -1.
          1   -1    0    0  501    0 -0.00000000000E+00 -0.00000000000E+00 -0.91756639380E+03  0.91756639380E+03  0.00000000000E+00 0. -1.
         25    2    1    2    0    0 -0.82501161997E+02  0.19723517187E+02  0.11266803306E+04  0.11367622476E+04  0.12499752598E+03 0.  0.
          2    1    1    2  501    0  0.73818749116E+02  0.18676860339E+02 -0.91063818327E+03  0.91381613778E+03  0.00000000000E+00 0. -1.
          1    1    1    2  502    0  0.86824128804E+01 -0.38400377526E+02  0.12988171926E+04  0.12994137420E+04  0.00000000000E+00 0. -1.
         22    1    3    3    0    0 -0.68769985389E+01  0.40988262902E+02  0.11946399362E+03  0.12648706090E+03  0.00000000000E+00 0. -1.
         22    1    3    3    0    0 -0.75624163458E+02 -0.21264745716E+02  0.10072163370E+04  0.10102751867E+04  0.00000000000E+00 0. -1.
</event>
<event>
 7    1  0.6122298E-006  0.5442477E+02  0.7818608E-02  0.1502456E+00
          2   -1    0    0  502    0  0.00000000000E+00  0.00000000000E+00  0.86701091834E+03  0.86701091834E+03  0.00000000000E+00 0. -1.
          1   -1    0    0  501    0 -0.00000000000E+00 -0.00000000000E+00 -0.76743398258E+03  0.76743398258E+03  0.00000000000E+00 0. -1.
         25    2    1    2    0    0 -0.11510835074E+02  0.58572640445E+01 -0.62319239772E+03  0.63572914697E+03  0.12496390228E+03 0.  0.
          2    1    1    2  501    0 -0.18413299028E+02 -0.51317161591E+02 -0.13168741779E+03  0.14252745932E+03  0.00000000000E+00 0. -1.
          1    1    1    2  502    0  0.29924134102E+02  0.45459897547E+02  0.85445675127E+03  0.85618829464E+03  0.00000000000E+00 0. -1.
         22    1    3    3    0    0  0.38418179072E+02  0.23251200475E+00 -0.51508821378E+03  0.51651900112E+03  0.00000000000E+00 0.  1.
         22    1    3    3    0    0 -0.49929014146E+02  0.56247520397E+01 -0.10810418393E+03  0.11921014585E+03  0.00000000000E+00 0.  1.
</event>
<event>
 7    1  0.6122298E-006  0.3493288E+02  0.7818608E-02  0.1573190E+00
          2   -1    0    0  502    0  0.00000000000E+00  0.00000000000E+00  0.45769241202E+03  0.45769241202E+03  0.00000000000E+00 0. -1.
          1   -1    0    0  501    0 -0.00000000000E+00 -0.00000000000E+00 -0.69261626789E+03  0.69261626789E+03  0.00000000000E+00 0. -1.
         25    2    1    2    0    0 -0.19497542602E+02  0.11986839717E+02 -0.43131845409E+03  0.44965074337E+03  0.12500537460E+03 0.  0.
          2    1    1    2  501    0  0.35732074880E+02  0.13254655807E+02 -0.25018494984E+03  0.25307108923E+03  0.00000000000E+00 0. -1.
          1    1    1    2  502    0 -0.16234532278E+02 -0.25241495524E+02  0.44657954807E+03  0.44758684731E+03  0.00000000000E+00 0. -1.
         22    1    3    3    0    0  0.20883644030E+02  0.40006892477E+02 -0.59918663039E+02  0.75012826997E+02  0.00000000000E+00 0. -1.
         22    1    3    3    0    0 -0.40381186631E+02 -0.28020052760E+02 -0.37139979105E+03  0.37463791637E+03  0.00000000000E+00 0. -1.
</event>
<event>
 7    1  0.6122298E-006  0.8878446E+02  0.7818608E-02  0.1323810E+00
          2   -1    0    0  502    0  0.00000000000E+00  0.00000000000E+00  0.81110138991E+03  0.81110138991E+03  0.00000000000E+00 0. -1.
          1   -1    0    0  501    0 -0.00000000000E+00 -0.00000000000E+00 -0.21756297951E+03  0.21756297951E+03  0.00000000000E+00 0. -1.
         25    2    1    2    0    0 -0.16954387948E+01  0.13677757582E+03  0.28787886203E+03  0.34236082069E+03  0.12500285028E+03 0.  0.
          2    1    1    2  501    0  0.45360443001E+02 -0.75178959225E+02 -0.17710211084E+03  0.19767297074E+03  0.00000000000E+00 0. -1.
          1    1    1    2  502    0 -0.43665004206E+02 -0.61598616591E+02  0.48276165920E+03  0.48863057800E+03  0.00000000000E+00 0. -1.
         22    1    3    3    0    0 -0.31457726059E+02  0.13467115634E+03  0.27872953137E+03  0.31115279291E+03  0.00000000000E+00 0. -1.
         22    1    3    3    0    0  0.29762287264E+02  0.21064194802E+01  0.91493306642E+01  0.31208027779E+02  0.00000000000E+00 0. -1.
</event>
<event>
 7    1  0.6122298E-006  0.2008144E+03  0.7818608E-02  0.1312590E+00
          2   -1    0    0  502    0  0.00000000000E+00  0.00000000000E+00  0.91196682152E+02  0.91196682152E+02  0.00000000000E+00 0. -1.
          1   -1    0    0  501    0 -0.00000000000E+00 -0.00000000000E+00 -0.10807384258E+04  0.10807384258E+04  0.00000000000E+00 0. -1.
         25    2    1    2    0    0 -0.17377039363E+03  0.53793579383E+01 -0.43455713826E+03  0.48445287775E+03  0.12501838725E+03 0.  0.
          2    1    1    2  501    0 -0.36875481079E+02  0.16540889843E+01 -0.45091902207E+03  0.45242734398E+03  0.00000000000E+00 0. -1.
          1    1    1    2  502    0  0.21064587471E+03 -0.70334469226E+01 -0.10406558332E+03  0.23505488623E+03  0.00000000000E+00 0. -1.
         22    1    3    3    0    0 -0.12277483885E+03 -0.48512669015E+00 -0.40915694888E+03  0.42718064706E+03  0.00000000000E+00 0.  1.
         22    1    3    3    0    0 -0.50995554785E+02  0.58644846285E+01 -0.25400189375E+02  0.57272230689E+02  0.00000000000E+00 0.  1.
</event>
<event>
 7    1  0.6122298E-006  0.1278774E+03  0.7818608E-02  0.1365148E+00
          2   -1    0    0  502    0  0.00000000000E+00  0.00000000000E+00  0.59685505777E+03  0.59685505777E+03  0.00000000000E+00 0. -1.
          1   -1    0    0  501    0 -0.00000000000E+00 -0.00000000000E+00 -0.25982770574E+04  0.25982770574E+04  0.00000000000E+00 0. -1.
         25    2    1    2    0    0  0.16489984794E+02 -0.10670790496E+03 -0.26146456562E+03  0.30926898218E+03  0.12500035073E+03 0.  0.
          2    1    1    2  501    0 -0.51045488990E+02  0.11916003315E+03 -0.23105028611E+04  0.23141366050E+04  0.00000000000E+00 0. -1.
          1    1    1    2  502    0  0.34555504196E+02 -0.12452128196E+02  0.57054542712E+03  0.57172652796E+03  0.00000000000E+00 0. -1.
         22    1    3    3    0    0  0.38266694019E+02 -0.73690432327E+02 -0.56286533616E+02  0.10031347643E+03  0.00000000000E+00 0. -1.
         22    1    3    3    0    0 -0.21776709225E+02 -0.33017472629E+02 -0.20517803200E+03  0.20895550574E+03  0.00000000000E+00 0. -1.
</event>
<event>
 7    1  0.6122298E-006  0.1474954E+03  0.7818608E-02  0.1244268E+00
          2   -1    0    0  502    0  0.00000000000E+00  0.00000000000E+00  0.45616305074E+03  0.45616305074E+03  0.00000000000E+00 0. -1.
          1   -1    0    0  501    0 -0.00000000000E+00 -0.00000000000E+00 -0.14437521108E+03  0.14437521108E+03  0.00000000000E+00 0. -1.
         25    2    1    2    0    0  0.49802794738E+01  0.15546425010E+03  0.12708392818E+03  0.23657661460E+03  0.12499693410E+03 0.  0.
          2    1    1    2  501    0 -0.94835269028E+02 -0.12032063839E+03 -0.26489078739E+01  0.15322467487E+03  0.00000000000E+00 0. -1.
          1    1    1    2  502    0  0.89854989555E+02 -0.35143611705E+02  0.18735281936E+03  0.21073697235E+03  0.00000000000E+00 0. -1.
         22    1    3    3    0    0  0.29550544266E+02  0.15616317159E+03  0.68543053383E+02  0.17308472201E+03  0.00000000000E+00 0. -1.
         22    1    3    3    0    0 -0.24570264792E+02 -0.69892149065E+00  0.58540874792E+02  0.63491892590E+02  0.00000000000E+00 0. -1.
</event>
<event>
 7    1  0.6122298E-006  0.1440772E+03  0.7818608E-02  0.1229977E+00
          2   -1    0    0  502    0  0.00000000000E+00  0.00000000000E+00  0.93378470722E+03  0.93378470722E+03  0.00000000000E+00 0. -1.
          1   -1    0    0  501    0 -0.00000000000E+00 -0.00000000000E+00 -0.47832231002E+03  0.47832231002E+03  0.00000000000E+00 0. -1.
         25    2    1    2    0    0  0.77051475847E+02 -0.23427833425E+03 -0.60179979076E+00  0.27649377681E+03  0.12500071449E+03 0.  0.
          2    1    1    2  501    0 -0.27202273367E+02  0.13144569322E+03 -0.32217960331E+03  0.34902382545E+03  0.00000000000E+00 0. -1.
          1    1    1    2  502    0 -0.49849202480E+02  0.10283264103E+03  0.77824380031E+03  0.78658941498E+03  0.00000000000E+00 0. -1.
         22    1    3    3    0    0  0.77573301693E+02 -0.53940847444E+02  0.14217228429E+02  0.95547693549E+02  0.00000000000E+00 0.  1.
         22    1    3    3    0    0 -0.52182584567E+00 -0.18033748681E+03 -0.14819028220E+02  0.18094608326E+03  0.00000000000E+00 0.  1.
</event>
<event>
 7    1  0.6122298E-006  0.1119561E+03  0.7818608E-02  0.1258253E+00
          2   -1    0    0  502    0  0.00000000000E+00  0.00000000000E+00  0.56574264026E+03  0.56574264026E+03  0.00000000000E+00 0. -1.
          1   -1    0    0  501    0 -0.00000000000E+00 -0.00000000000E+00 -0.18880802943E+03  0.18880802943E+03  0.00000000000E+00 0. -1.
         25    2    1    2    0    0 -0.12246339453E+03  0.33479023082E+02  0.16389872047E+03  0.24208537085E+03  0.12499763286E+03 0.  0.
          2    1    1    2  501    0  0.41000076590E+02 -0.10824081021E+03 -0.11689255088E+03  0.16450212073E+03  0.00000000000E+00 0. -1.
          1    1    1    2  502    0  0.81463317940E+02  0.74761787124E+02  0.32992844123E+03  0.34796317810E+03  0.00000000000E+00 0. -1.
         22    1    3    3    0    0 -0.35119441871E+02 -0.20535316025E+02  0.12635307741E+03  0.13274100562E+03  0.00000000000E+00 0.  1.
         22    1    3    3    0    0 -0.87343952658E+02  0.54014339107E+02  0.37545643067E+02  0.10934436523E+03  0.00000000000E+00 0.  1.
</event>
<event>
 7    1  0.6122298E-006  0.1273990E+03  0.7818608E-02  0.1232690E+00
          2   -1    0    0  502    0  0.00000000000E+00  0.00000000000E+00  0.43223505874E+03  0.43223505874E+03  0.00000000000E+00 0. -1.
          1   -1    0    0  501    0 -0.00000000000E+00 -0.00000000000E+00 -0.64392776407E+03  0.64392776407E+03  0.00000000000E+00 0. -1.
         25    2    1    2    0    0  0.74949912139E+02 -0.17347309161E+02  0.40356719415E+02  0.15220759589E+03  0.12498027436E+03 0.  0.
          2    1    1    2  501    0 -0.25488909671E+02 -0.12482320626E+03 -0.56366721863E+03  0.57788515355E+03  0.00000000000E+00 0. -1.
          1    1    1    2  502    0 -0.49461002469E+02  0.14217051542E+03  0.31161779388E+03  0.34607007337E+03  0.00000000000E+00 0. -1.
         22    1    3    3    0    0 -0.19285560893E+02  0.33550348739E+02  0.18521137705E+02  0.42902113018E+02  0.00000000000E+00 0.  1.
         22    1    3    3    0    0  0.94235473033E+02 -0.50897657900E+02  0.21835581711E+02  0.10930548287E+03  0.00000000000E+00 0.  1.
</event>
<event>
 7    1  0.6122298E-006  0.7661713E+02  0.7818608E-02  0.1400224E+00
          2   -1    0    0  502    0  0.00000000000E+00  0.00000000000E+00  0.75024721479E+02  0.75024721479E+02  0.00000000000E+00 0. -1.
          1   -1    0    0  501    0 -0.00000000000E+00 -0.00000000000E+00 -0.23375763192E+04  0.23375763192E+04  0.00000000000E+00 0. -1.
         25    2    1    2    0    0 -0.10378344190E+03 -0.44766070661E+02 -0.89829258451E+02  0.19097226490E+03  0.12500442549E+03 0.  0.
          2    1    1    2  501    0  0.75764539431E+02  0.81530744765E+01 -0.21741672471E+04  0.21755022309E+04  0.00000000000E+00 0. -1.
          1    1    1    2  502    0  0.28018902469E+02  0.36612996185E+02  0.14449078699E+01  0.46126544895E+02  0.00000000000E+00 0. -1.
         22    1    3    3    0    0 -0.54505821151E+02 -0.54389056170E+02 -0.11213916717E+03  0.13603031568E+03  0.00000000000E+00 0.  1.
         22    1    3    3    0    0 -0.49277620749E+02  0.96229855083E+01  0.22309908719E+02  0.54941949217E+02  0.00000000000E+00 0.  1.
</event>
<event>
 7    1  0.8861620E-006  0.1021804E+03  0.7818608E-02  0.1276621E+00
          2   -1    0    0  502    0  0.00000000000E+00  0.00000000000E+00  0.12773869429E+04  0.12773869429E+04  0.00000000000E+00 0. -1.
          1   -1    0    0  501    0 -0.00000000000E+00 -0.00000000000E+00 -0.13515044568E+04  0.13515044568E+04  0.00000000000E+00 0. -1.
         25    2    1    2    0    0 -0.94309443256E+00  0.23462109077E+01 -0.10601787639E+03  0.16392681149E+03  0.12500326107E+03 0.  0.
          2    1    1    2  501    0 -0.85292540528E+01  0.10099768912E+03 -0.12122568739E+04  0.12164867487E+04  0.00000000000E+00 0. -1.
          1    1    1    2  502    0  0.94723484853E+01 -0.10334390003E+03  0.12441572364E+04  0.12484778396E+04  0.00000000000E+00 0. -1.
         22    1    3    3    0    0 -0.53593360765E+02  0.29938189882E+02 -0.32747611044E+02  0.69576932676E+02  0.00000000000E+00 0. -1.
         22    1    3    3    0    0  0.52650266333E+02 -0.27591978975E+02 -0.73270265349E+02  0.94349878818E+02  0.00000000000E+00 0. -1.
</event>
<event>
 7    1  0.6122298E-006  0.1885802E+03  0.7818608E-02  0.1212749E+00
          2   -1    0    0  502    0  0.00000000000E+00  0.00000000000E+00  0.71017833031E+03  0.71017833031E+03  0.00000000000E+00 0. -1.
          1   -1    0    0  501    0 -0.00000000000E+00 -0.00000000000E+00 -0.66070085903E+03  0.66070085903E+03  0.00000000000E+00 0. -1.
         25    2    1    2    0    0 -0.25723776114E+03 -0.88022336327E+02  0.18852386268E+03  0.35368236851E+03  0.12502309207E+03 0.  0.
          2    1    1    2  501    0  0.10409138719E+03  0.10059861804E+02 -0.55624553847E+03  0.56599056245E+03  0.00000000000E+00 0. -1.
          1    1    1    2  502    0  0.15314637395E+03  0.77962474523E+02  0.41719914707E+03  0.45120625838E+03  0.00000000000E+00 0. -1.
         22    1    3    3    0    0 -0.58265829894E+02  0.26819703127E+02  0.70819587066E+02  0.95549030980E+02  0.00000000000E+00 0. -1.
         22    1    3    3    0    0 -0.19897193124E+03 -0.11484203945E+03  0.11770427561E+03  0.25813333754E+03  0.00000000000E+00 0. -1.
</event>
<event>
 7    1  0.6122298E-006  0.6926121E+02  0.7818608E-02  0.1525572E+00
          2   -1    0    0  502    0  0.00000000000E+00  0.00000000000E+00  0.68954311561E+03  0.68954311561E+03  0.00000000000E+00 0. -1.
          1   -1    0    0  501    0 -0.00000000000E+00 -0.00000000000E+00 -0.22057451005E+03  0.22057451005E+03  0.00000000000E+00 0. -1.
         25    2    1    2    0    0  0.41516673432E+02  0.47346091972E+02 -0.57461712136E+01  0.14008510291E+03  0.12500212389E+03 0.  0.
          2    1    1    2  501    0 -0.12915262592E+02  0.15995862450E+02 -0.14499119727E+03  0.14644152044E+03  0.00000000000E+00 0. -1.
          1    1    1    2  502    0 -0.28601410840E+02 -0.63341954422E+02  0.61970597404E+03  0.62359100230E+03  0.00000000000E+00 0. -1.
         22    1    3    3    0    0 -0.11782766977E+02  0.49451686465E+02  0.43935588803E+02  0.67191062317E+02  0.00000000000E+00 0.  1.
         22    1    3    3    0    0  0.53299440409E+02 -0.21055944929E+01 -0.49681760017E+02  0.72894040596E+02  0.00000000000E+00 0.  1.
</event>
<event>
 7    1  0.6122298E-006  0.2638823E+03  0.7818608E-02  0.1157358E+00
          2   -1    0    0  502    0  0.00000000000E+00  0.00000000000E+00  0.32989650702E+04  0.32989650702E+04  0.00000000000E+00 0. -1.
          1   -1    0    0  501    0 -0.00000000000E+00 -0.00000000000E+00 -0.16680213227E+03  0.16680213227E+03  0.00000000000E+00 0. -1.
         25    2    1    2    0    0 -0.16155046882E+02 -0.26516069928E+03  0.15383315791E+04  0.15660963909E+04  0.12499070605E+03 0.  0.
          2    1    1    2  501    0 -0.13497652259E+03  0.31385185551E+02 -0.10770678459E+03  0.17551194538E+03  0.00000000000E+00 0. -1.
          1    1    1    2  502    0  0.15113156947E+03  0.23377551373E+03  0.17015381435E+04  0.17241588662E+04  0.00000000000E+00 0. -1.
         22    1    3    3    0    0 -0.56421948514E+02 -0.54398558554E+02  0.45884734982E+03  0.46549278177E+03  0.00000000000E+00 0. -1.
         22    1    3    3    0    0  0.40266901631E+02 -0.21076214073E+03  0.10794842292E+04  0.11006036092E+04  0.00000000000E+00 0. -1.
</event>
<event>
 7    1  0.6122298E-006  0.4515969E+02  0.7818608E-02  0.1530796E+00
          2   -1    0    0  502    0  0.00000000000E+00  0.00000000000E+00  0.28331537047E+04  0.28331537047E+04  0.00000000000E+00 0. -1.
          1   -1    0    0  501    0 -0.00000000000E+00 -0.00000000000E+00 -0.49013741862E+03  0.49013741862E+03  0.00000000000E+00 0. -1.
         25    2    1    2    0    0 -0.19877092685E+02  0.18448738433E+02  0.44737290476E+03  0.46529873080E+03  0.12499975285E+03 0.  0.
          2    1    1    2  501    0 -0.25822418669E+02 -0.16157033103E+02 -0.48047194543E+03  0.48143653514E+03  0.00000000000E+00 0. -1.
          1    1    1    2  502    0  0.45699511354E+02 -0.22917053305E+01  0.23761153267E+04  0.23765558574E+04  0.00000000000E+00 0. -1.
         22    1    3    3    0    0  0.14572875939E+02  0.66149219731E+02  0.27249274883E+03  0.28078530259E+03  0.00000000000E+00 0. -1.
         22    1    3    3    0    0 -0.34449968625E+02 -0.47700481298E+02  0.17488015593E+03  0.18451342821E+03  0.00000000000E+00 0. -1.
</event>
<event>
 7    1  0.6122298E-006  0.5286701E+02  0.7818608E-02  0.1498591E+00
          2   -1    0    0  502    0  0.00000000000E+00  0.00000000000E+00  0.23450332250E+03  0.23450332250E+03  0.00000000000E+00 0. -1.
          1   -1    0    0  501    0 -0.00000000000E+00 -0.00000000000E+00 -0.14176439492E+04  0.14176439492E+04  0.00000000000E+00 0. -1.
         25    2    1    2    0    0  0.17817373849E+02 -0.39779376493E+02  0.11083792236E+03  0.17265614109E+03  0.12500096167E+03 0.  0.
          2    1    1    2  501    0 -0.46608917514E+02  0.25088708864E+02 -0.13833973457E+04  0.13844096398E+04  0.00000000000E+00 0. -1.
          1    1    1    2  502    0  0.28791543665E+02  0.14690667629E+02  0.89418796669E+02  0.95081490837E+02  0.00000000000E+00 0. -1.
         22    1    3    3    0    0  0.43973920051E+00 -0.36850193050E+02 -0.19113994878E+02  0.41514755191E+02  0.00000000000E+00 0. -1.
         22    1    3    3    0    0  0.17377634648E+02 -0.29291834425E+01  0.12995191724E+03  0.13114138590E+03  0.00000000000E+00 0. -1.
</event>
<event>
 7    1  0.6122298E-006  0.6503462E+02  0.7818608E-02  0.1466905E+00
          2   -1    0    0  502    0  0.00000000000E+00  0.00000000000E+00  0.10190231493E+04  0.10190231493E+04  0.00000000000E+00 0. -1.
          1   -1    0    0  501    0 -0.00000000000E+00 -0.00000000000E+00 -0.15618121945E+03  0.15618121945E+03  0.00000000000E+00 0. -1.
         25    2    1    2    0    0  0.34721882810E+02 -0.52122302912E+02  0.12434417553E+03  0.18710949382E+03  0.12500458025E+03 0.  0.
          2    1    1    2  501    0 -0.30088782722E+02 -0.13156363264E+02 -0.12137310894E+03  0.12573725110E+03  0.00000000000E+00 0. -1.
          1    1    1    2  502    0 -0.46331000886E+01  0.65278666176E+02  0.85987086325E+03  0.86235762381E+03  0.00000000000E+00 0. -1.
         22    1    3    3    0    0  0.80805440475E+02 -0.42438499248E+02  0.68846269330E+02  0.11432564992E+03  0.00000000000E+00 0. -1.
         22    1    3    3    0    0 -0.46083557665E+02 -0.96838036642E+01  0.55497906202E+02  0.72783843902E+02  0.00000000000E+00 0. -1.
</event>
<event>
 7    1  0.6122298E-006  0.4596125E+02  0.7818608E-02  0.1520418E+00
          2   -1    0    0  502    0  0.00000000000E+00  0.00000000000E+00  0.64825863251E+02  0.64825863251E+02  0.00000000000E+00 0. -1.
          1   -1    0    0  501    0 -0.00000000000E+00 -0.00000000000E+00 -0.54670051699E+03  0.54670051699E+03  0.00000000000E+00 0. -1.
         25    2    1    2    0    0  0.15459324126E+02 -0.37852010323E+02 -0.12371871814E+03  0.18056441802E+03  0.12500168978E+03 0.  0.
          2    1    1    2  501    0  0.16031174925E+02  0.43884562043E+02 -0.38580512640E+03  0.38862378841E+03  0.00000000000E+00 0. -1.
          1    1    1    2  502    0 -0.31490499051E+02 -0.60325517198E+01  0.27649190799E+02  0.42338173822E+02  0.00000000000E+00 0. -1.
         22    1    3    3    0    0 -0.32890714986E+02 -0.51332024304E+02 -0.18051787094E+02  0.63581780950E+02  0.00000000000E+00 0.  1.
         22    1    3    3    0    0  0.48350039112E+02  0.13480013981E+02 -0.10566693104E+03  0.11698263707E+03  0.00000000000E+00 0.  1.
</event>
<event>
 7    1  0.6122298E-006  0.1108638E+03  0.7818608E-02  0.1403941E+00
          2   -1    0    0  502    0  0.00000000000E+00  0.00000000000E+00  0.18402209008E+03  0.18402209008E+03  0.00000000000E+00 0. -1.
          1   -1    0    0  501    0 -0.00000000000E+00 -0.00000000000E+00 -0.11178774785E+04  0.11178774785E+04  0.00000000000E+00 0. -1.
         25    2    1    2    0    0 -0.78019613137E+02 -0.11041428534E+03 -0.62528904255E+02  0.19445573457E+03  0.12499917759E+03 0.  0.
          2    1    1    2  501    0  0.49724415157E+02  0.97895341008E+02 -0.98425132601E+03  0.99035684882E+03  0.00000000000E+00 0. -1.
          1    1    1    2  502    0  0.28295197980E+02  0.12518944331E+02  0.11292484184E+03  0.11708698519E+03  0.00000000000E+00 0. -1.
         22    1    3    3    0    0  0.13500649467E+02 -0.76703745723E+01  0.26397767021E+02  0.30625876082E+02  0.00000000000E+00 0. -1.
         22    1    3    3    0    0 -0.91520262604E+02 -0.10274391077E+03 -0.88926671276E+02  0.16382985848E+03  0.00000000000E+00 0. -1.
</event>
<event>
 7    1  0.6122298E-006  0.5072025E+02  0.7818608E-02  0.1485335E+00
          2   -1    0    0  502    0  0.00000000000E+00  0.00000000000E+00  0.13174138500E+04  0.13174138500E+04  0.00000000000E+00 0. -1.
          1   -1    0    0  501    0 -0.00000000000E+00 -0.00000000000E+00 -0.16168949320E+02  0.16168949320E+02  0.00000000000E+00 0. -1.
         25    2    1    2    0    0  0.43891700176E+02  0.17888056141E+02  0.93424720955E+03  0.94376374086E+03  0.12500274441E+03 0.  0.
          2    1    1    2  501    0  0.96399966849E+01 -0.35661356591E+02  0.28508877385E+02  0.46662811529E+02  0.00000000000E+00 0. -1.
          1    1    1    2  502    0 -0.53531696861E+02  0.17773300450E+02  0.33848881375E+03  0.34315624694E+03  0.00000000000E+00 0. -1.
         22    1    3    3    0    0  0.85931404088E+02  0.18344230496E+02  0.72734847475E+03  0.73263669081E+03  0.00000000000E+00 0.  1.
         22    1    3    3    0    0 -0.42039703913E+02 -0.45617435506E+00  0.20689873481E+03  0.21112705005E+03  0.00000000000E+00 0.  1.
</event>
<event>
 7    1  0.6122298E-006  0.1053743E+03  0.7818608E-02  0.1463010E+00
          2   -1    0    0  502    0  0.00000000000E+00  0.00000000000E+00  0.14996826396E+04  0.14996826396E+04  0.00000000000E+00 0. -1.
          1   -1    0    0  501    0 -0.00000000000E+00 -0.00000000000E+00 -0.13801081349E+04  0.13801081349E+04  0.00000000000E+00 0. -1.
         25    2    1    2    0    0  0.52457810670E+02  0.72304295816E+02 -0.23467819598E+02  0.15541899670E+03  0.12499837153E+03 0.  0.
          2    1    1    2  501    0 -0.72773961110E+02 -0.76970624792E+02 -0.12884153145E+04  0.12927623715E+04  0.00000000000E+00 0. -1.
          1    1    1    2  502    0  0.20316150440E+02  0.46663289757E+01  0.14314576388E+04  0.14316094064E+04  0.00000000000E+00 0. -1.
         22    1    3    3    0    0 -0.38709105058E+01 -0.20444901423E+01  0.41510241014E+02  0.41740435996E+02  0.00000000000E+00 0.  1.
         22    1    3    3    0    0  0.56328721176E+02  0.74348785958E+02 -0.64978060613E+02  0.11367856070E+03  0.00000000000E+00 0.  1.
</event>
<event>
 7    1  0.6122298E-006  0.1545014E+03  0.7818608E-02  0.1294107E+00
          2   -1    0    0  502    0  0.00000000000E+00  0.00000000000E+00  0.31709637319E+04  0.31709637319E+04  0.00000000000E+00 0. -1.
          1   -1    0    0  501    0 -0.00000000000E+00 -0.00000000000E+00 -0.36192281535E+02  0.36192281535E+02  0.00000000000E+00 0. -1.
         25    2    1    2    0    0 -0.90509280768E+02 -0.17118461922E+03  0.85498984441E+03  0.88551063410E+03  0.12500138121E+03 0.  0.
          2    1    1    2  501    0 -0.44360159039E+01  0.56665531271E+02  0.25222401006E+02  0.62183841823E+02  0.00000000000E+00 0. -1.
          1    1    1    2  502    0  0.94945296672E+02  0.11451908795E+03  0.22545592050E+04  0.22594615375E+04  0.00000000000E+00 0. -1.
         22    1    3    3    0    0 -0.10722400073E+03 -0.70535756631E+02  0.48982329978E+03  0.50635871109E+03  0.00000000000E+00 0.  1.
         22    1    3    3    0    0  0.16714719959E+02 -0.10064886259E+03  0.36516654463E+03  0.37915192301E+03  0.00000000000E+00 0.  1.
</event>
<event>
 7    1  0.6122298E-006  0.7523759E+02  0.7818608E-02  0.1353282E+00
          2   -1    0    0  502    0  0.00000000000E+00  0.00000000000E+00  0.29434029929E+03  0.29434029929E+03  0.00000000000E+00 0. -1.
          1   -1    0    0  501    0 -0.00000000000E+00 -0.00000000000E+00 -0.42258263175E+03  0.42258263175E+03  0.00000000000E+00 0. -1.
         25    2    1    2    0    0  0.29253050281E+02 -0.30239460883E+02  0.10508178969E+03  0.16862723624E+03  0.12499118502E+03 0.  0.
          2    1    1    2  501    0 -0.25460679331E+02 -0.64112572271E+02 -0.37320429731E+03  0.37952617255E+03  0.00000000000E+00 0. -1.
          1    1    1    2  502    0 -0.37923709500E+01  0.94352033155E+02  0.13988017517E+03  0.16876952226E+03  0.00000000000E+00 0. -1.
         22    1    3    3    0    0  0.43094883740E+02  0.37328409181E+02  0.72818590618E+02  0.92483113465E+02  0.00000000000E+00 0. -1.
         22    1    3    3    0    0 -0.13841833459E+02 -0.67567870064E+02  0.32263199068E+02  0.76144122771E+02  0.00000000000E+00 0. -1.
</event>
<event>
 7    1  0.6122298E-006  0.1063054E+03  0.7818608E-02  0.1305122E+00
          2   -1    0    0  502    0  0.00000000000E+00  0.00000000000E+00  0.14735133012E+04  0.14735133012E+04  0.00000000000E+00 0. -1.
          1   -1    0    0  501    0 -0.00000000000E+00 -0.00000000000E+00 -0.18928459046E+03  0.18928459046E+03  0.00000000000E+00 0. -1.
         25    2    1    2    0    0 -0.42289366902E+02  0.52087142628E+02  0.35335996942E+03  0.38077897503E+03  0.12501159488E+03 0.  0.
          2    1    1    2  501    0  0.35423284989E+02  0.65684009692E+02 -0.16433175405E+03  0.18048302867E+03  0.00000000000E+00 0. -1.
          1    1    1    2  502    0  0.68660819128E+01 -0.11777115232E+03  0.10952004954E+04  0.11015358880E+04  0.00000000000E+00 0. -1.
         22    1    3    3    0    0 -0.71880706703E+02  0.34234223979E+02  0.32900099444E+03  0.33849737433E+03  0.00000000000E+00 0.  1.
         22    1    3    3    0    0  0.29591339801E+02  0.17852918649E+02  0.24358974985E+02  0.42281600701E+02  0.00000000000E+00 0.  1.
</event>
<event>
 7    1  0.6122298E-006  0.1072130E+03  0.7818608E-02  0.1434739E+00
          2   -1    0    0  502    0  0.00000000000E+00  0.00000000000E+00  0.43523174145E+03  0.43523174145E+03  0.00000000000E+00 0. -1.
          1   -1    0    0  501    0 -0.00000000000E+00 -0.00000000000E+00 -0.52354888309E+03  0.52354888309E+03  0.00000000000E+00 0. -1.
         25    2    1    2    0    0  0.12518030468E+03  0.23333994170E+02  0.13302201189E+03  0.22256740813E+03  0.12500724599E+03 0.  0.
          2    1    1    2  501    0 -0.23537542966E+02 -0.91145509875E+01 -0.46819357528E+03  0.46887345298E+03  0.00000000000E+00 0. -1.
          1    1    1    2  502    0 -0.10164276171E+03 -0.14219443183E+02  0.24685442176E+03  0.26733976344E+03  0.00000000000E+00 0. -1.
         22    1    3    3    0    0  0.19946596518E+02  0.43240684112E+02  0.99559195221E+02  0.11036148254E+03  0.00000000000E+00 0.  1.
         22    1    3    3    0    0  0.10523370816E+03 -0.19906689941E+02  0.33462816669E+02  0.11220592559E+03  0.00000000000E+00 0.  1.
</event>
<event>
 7    1  0.6122298E-006  0.5587430E+02  0.7818608E-02  0.1537822E+00
          2   -1    0    0  502    0  0.00000000000E+00  0.00000000000E+00  0.31619184925E+03  0.31619184925E+03  0.00000000000E+00 0. -1.
          1   -1    0    0  501    0 -0.00000000000E+00 -0.00000000000E+00 -0.16223595611E+03  0.16223595611E+03  0.00000000000E+00 0. -1.
         25    2    1    2    0    0  0.33735202816E+02 -0.25866707948E+02  0.21776859317E+03  0.25466832436E+03  0.12500257906E+03 0.  0.
          2    1    1    2  501    0  0.20558636604E+02 -0.11405666442E+02 -0.12898312894E+03  0.13110833046E+03  0.00000000000E+00 0. -1.
          1    1    1    2  502    0 -0.54293839420E+02  0.37272374390E+02  0.65170428905E+02  0.92651150534E+02  0.00000000000E+00 0. -1.
         22    1    3    3    0    0  0.19091260492E+02 -0.26383833170E+02  0.23198052471E+03  0.23425530245E+03  0.00000000000E+00 0.  1.
         22    1    3    3    0    0  0.14643942324E+02  0.51712522164E+00 -0.14211931543E+02  0.20413021909E+02  0.00000000000E+00 0.  1.
</event>
<event>
 7    1  0.6122298E-006  0.1138872E+03  0.7818608E-02  0.1369572E+00
          2   -1    0    0  502    0  0.00000000000E+00  0.00000000000E+00  0.44930763396E+03  0.44930763396E+03  0.00000000000E+00 0. -1.
          1   -1    0    0  501    0 -0.00000000000E+00 -0.00000000000E+00 -0.10237680610E+03  0.10237680610E+03  0.00000000000E+00 0. -1.
         25    2    1    2    0    0  0.10514487252E+03 -0.95664528159E+02  0.14542608446E+03  0.23870522652E+03  0.12499717181E+03 0.  0.
          2    1    1    2  501    0 -0.88061973940E+02  0.59768395901E+02 -0.11769441810E+01  0.10643569702E+03  0.00000000000E+00 0. -1.
          1    1    1    2  502    0 -0.17082898585E+02  0.35896132258E+02  0.20268168759E+03  0.20654351652E+03  0.00000000000E+00 0. -1.
         22    1    3    3    0    0  0.33174022871E+02  0.22006714533E+02  0.22180027707E+01  0.39871428546E+02  0.00000000000E+00 0.  1.
         22    1    3    3    0    0  0.71970849654E+02 -0.11767124269E+03  0.14320808168E+03  0.19883379797E+03  0.00000000000E+00 0.  1.
</event>
<event>
 7    1  0.6122298E-006  0.4933953E+02  0.7818608E-02  0.1482908E+00
          2   -1    0    0  502    0  0.00000000000E+00  0.00000000000E+00  0.14130958805E+03  0.14130958805E+03  0.00000000000E+00 0. -1.
          1   -1    0    0  501    0 -0.00000000000E+00 -0.00000000000E+00 -0.22361141114E+04  0.22361141114E+04  0.00000000000E+00 0. -1.
         25    2    1    2    0    0 -0.69440287531E+02 -0.22447805700E+02 -0.61325335184E+03  0.63010334558E+03  0.12499878022E+03 0.  0.
          2    1    1    2  501    0  0.47749803761E+02 -0.95154043114E+01 -0.16112530595E+04  0.16119885261E+04  0.00000000000E+00 0. -1.
          1    1    1    2  502    0  0.21690483770E+02  0.31963210012E+02  0.12970188793E+03  0.13533182779E+03  0.00000000000E+00 0. -1.
         22    1    3    3    0    0 -0.31762720932E+02  0.52045152090E+02 -0.27879616283E+03  0.28538547389E+03  0.00000000000E+00 0. -1.
         22    1    3    3    0    0 -0.37677566599E+02 -0.74492957791E+02 -0.33445718901E+03  0.34471787170E+03  0.00000000000E+00 0. -1.
</event>
<event>
 7    1  0.6122298E-006  0.5722951E+02  0.7818608E-02  0.1437424E+00
          2   -1    0    0  502    0  0.00000000000E+00  0.00000000000E+00  0.20861637469E+04  0.20861637469E+04  0.00000000000E+00 0. -1.
          1   -1    0    0  501    0 -0.00000000000E+00 -0.00000000000E+00 -0.68165754373E+03  0.68165754373E+03  0.00000000000E+00 0. -1.
         25    2    1    2    0    0  0.10845589416E+02 -0.10673572449E+02  0.42630015513E+03  0.44450753068E+03  0.12499428231E+03 0.  0.
          2    1    1    2  501    0  0.45207073391E+02 -0.10187651290E+02 -0.67121296454E+03  0.67281075458E+03  0.00000000000E+00 0. -1.
          1    1    1    2  502    0 -0.56052662807E+02  0.20861223739E+02  0.16494190126E+04  0.16505030054E+04  0.00000000000E+00 0. -1.
         22    1    3    3    0    0  0.56459936165E+01  0.56559067249E+02  0.23111769158E+03  0.23800460646E+03  0.00000000000E+00 0.  1.
         22    1    3    3    0    0  0.51995957996E+01 -0.67232639699E+02  0.19518246355E+03  0.20650292423E+03  0.00000000000E+00 0.  1.
</event>
<event>
 7    1  0.6122298E-006  0.8071094E+02  0.7818608E-02  0.1457813E+00
          2   -1    0    0  502    0  0.00000000000E+00  0.00000000000E+00  0.36959865752E+04  0.36959865752E+04  0.00000000000E+00 0. -1.
          1   -1    0    0  501    0 -0.00000000000E+00 -0.00000000000E+00 -0.38486293502E+03  0.38486293502E+03  0.00000000000E+00 0. -1.
         25    2    1    2    0    0  0.24897482241E+02  0.79182847666E+02 -0.21800627083E+03  0.26465001364E+03  0.12499235022E+03 0.  0.
          2    1    1    2  501    0  0.23982799295E+02 -0.14950850057E+02 -0.14169569920E+03  0.14448658676E+03  0.00000000000E+00 0. -1.
          1    1    1    2  502    0 -0.48880281536E+02 -0.64231997609E+02  0.36708256102E+04  0.36717129098E+04  0.00000000000E+00 0. -1.
         22    1    3    3    0    0  0.40676639714E+02  0.58019280280E+02 -0.33701199485E+02  0.78463983771E+02  0.00000000000E+00 0. -1.
         22    1    3    3    0    0 -0.15779157472E+02  0.21163567387E+02 -0.18430507135E+03  0.18618602987E+03  0.00000000000E+00 0. -1.
</event>
<event>
 7    1  0.6122298E-006  0.1310342E+03  0.7818608E-02  0.1275856E+00
          2   -1    0    0  502    0  0.00000000000E+00  0.00000000000E+00  0.97104693306E+03  0.97104693306E+03  0.00000000000E+00 0. -1.
          1   -1    0    0  501    0 -0.00000000000E+00 -0.00000000000E+00 -0.86643933240E+02  0.86643933240E+02  0.00000000000E+00 0. -1.
         25    2    1    2    0    0  0.20566795032E+02  0.11127848478E+03  0.21407668574E+03  0.27250624729E+03  0.12499973282E+03 0.  0.
          2    1    1    2  501    0  0.56282163057E+02 -0.13209843226E+03  0.38908497851E+02  0.14876676003E+03  0.00000000000E+00 0. -1.
          1    1    1    2  502    0 -0.76848958089E+02  0.20819947484E+02  0.63141781623E+03  0.63641785898E+03  0.00000000000E+00 0. -1.
         22    1    3    3    0    0  0.24439630457E+02  0.33266604042E+02  0.18437859410E+03  0.18894292378E+03  0.00000000000E+00 0. -1.
         22    1    3    3    0    0 -0.38728354245E+01  0.78011880736E+02  0.29698091633E+02  0.83563323515E+02  0.00000000000E+00 0. -1.
</event>
<event>
 7    1  0.6122298E-006  0.2329807E+03  0.7818608E-02  0.1264503E+00
          2   -1    0    0  502    0  0.00000000000E+00  0.00000000000E+00  0.35610887510E+03  0.35610887510E+03  0.00000000000E+00 0. -1.
          1   -1    0    0  501    0 -0.00000000000E+00 -0.00000000000E+00 -0.14644756176E+04  0.14644756176E+04  0.00000000000E+00 0. -1.
         25    2    1    2    0    0 -0.13712284264E+03 -0.23800900699E+03  0.15326982927E+02  0.30217662465E+03  0.12499933880E+03 0.  0.
          2    1    1    2  501    0  0.13289655428E+03  0.18821367479E+03 -0.13076455047E+04  0.13277886306E+04  0.00000000000E+00 0. -1.
          1    1    1    2  502    0  0.42262883551E+01  0.49795332193E+02  0.18395177924E+03  0.19061923751E+03  0.00000000000E+00 0. -1.
         22    1    3    3    0    0 -0.66444063979E+02 -0.70972356271E+02 -0.50089566505E+02  0.10936568779E+03  0.00000000000E+00 0. -1.
         22    1    3    3    0    0 -0.70678778657E+02 -0.16703665071E+03  0.65416549432E+02  0.19281093686E+03  0.00000000000E+00 0. -1.
</event>
<event>
 7    1  0.6122298E-006  0.6346497E+02  0.7818608E-02  0.1501065E+00
          2   -1    0    0  502    0  0.00000000000E+00  0.00000000000E+00  0.80739256249E+02  0.80739256249E+02  0.00000000000E+00 0. -1.
          1   -1    0    0  501    0 -0.00000000000E+00 -0.00000000000E+00 -0.59092963191E+03  0.59092963191E+03  0.00000000000E+00 0. -1.
         25    2    1    2    0    0  0.52622157373E+02  0.87478662925E+01 -0.86745812567E+02  0.16123087912E+03  0.12499977509E+03 0.  0.
          2    1    1    2  501    0  0.36576288268E+01  0.26217420725E+02 -0.44108046998E+03  0.44187409111E+03  0.00000000000E+00 0. -1.
          1    1    1    2  502    0 -0.56279786200E+02 -0.34965287018E+02  0.17635906882E+02  0.68563917934E+02  0.00000000000E+00 0. -1.
         22    1    3    3    0    0 -0.10804479767E+02  0.46006139740E+02  0.30882915924E+00  0.47258830416E+02  0.00000000000E+00 0.  1.
         22    1    3    3    0    0  0.63426637139E+02 -0.37258273448E+02 -0.87054641726E+02  0.11397204870E+03  0.00000000000E+00 0.  1.
</event>
<event>
 7    1  0.6122298E-006  0.1140751E+03  0.7818608E-02  0.1449925E+00
          2   -1    0    0  502    0  0.00000000000E+00  0.00000000000E+00  0.10638486846E+04  0.10638486846E+04  0.00000000000E+00 0. -1.
          1   -1    0    0  501    0 -0.00000000000E+00 -0.00000000000E+00 -0.82244747589E+03  0.82244747589E+03  0.00000000000E+00 0. -1.
         25    2    1    2    0    0  0.76244413348E+02  0.75118546244E+02  0.14391210680E+02  0.16519686190E+03  0.12500755849E+03 0.  0.
          2    1    1    2  501    0 -0.94589023028E+02 -0.64521671476E+02 -0.74254092471E+03  0.75131694660E+03  0.00000000000E+00 0. -1.
          1    1    1    2  502    0  0.18344609680E+02 -0.10596874769E+02  0.96955092269E+03  0.96978235195E+03  0.00000000000E+00 0. -1.
         22    1    3    3    0    0 -0.34891000725E+01 -0.57468382897E+01 -0.39094602813E+02  0.39668475377E+02  0.00000000000E+00 0.  1.
         22    1    3    3    0    0  0.79733513420E+02  0.80865384534E+02  0.53485813493E+02  0.12552838652E+03  0.00000000000E+00 0.  1.
</event>
<event>
 7    1  0.6122298E-006  0.1755724E+03  0.7818608E-02  0.1275242E+00
          2   -1    0    0  502    0  0.00000000000E+00  0.00000000000E+00  0.27083973130E+04  0.27083973130E+04  0.00000000000E+00 0. -1.
          1   -1    0    0  501    0 -0.00000000000E+00 -0.00000000000E+00 -0.18214869779E+04  0.18214869779E+04  0.00000000000E+00 0. -1.
         25    2    1    2    0    0  0.24387539514E+01  0.23426274199E+03 -0.11878754955E+03  0.29089839953E+03  0.12500566832E+03 0.  0.
          2    1    1    2  501    0  0.39656266875E+01 -0.59641001139E+02 -0.16131789677E+04  0.16142859589E+04  0.00000000000E+00 0. -1.
          1    1    1    2  502    0 -0.64043806389E+01 -0.17462174085E+03  0.26188768523E+04  0.26246999325E+04  0.00000000000E+00 0. -1.
         22    1    3    3    0    0  0.38849980392E+01  0.25646329278E+02  0.26180076826E+02  0.36854088481E+02  0.00000000000E+00 0.  1.
         22    1    3    3    0    0 -0.14462440877E+01  0.20861641271E+03 -0.14496762638E+03  0.25404431104E+03  0.00000000000E+00 0.  1.
</event>
<event>
 7    1  0.6122298E-006  0.1945420E+03  0.7818608E-02  0.1216604E+00
          2   -1    0    0  502    0  0.00000000000E+00  0.00000000000E+00  0.13756535919E+04  0.13756535919E+04  0.00000000000E+00 0. -1.
          1   -1    0    0  501    0 -0.00000000000E+00 -0.00000000000E+00 -0.22655252361E+04  0.22655252361E+04  0.00000000000E+00 0. -1.
         25    2    1    2    0    0 -0.10342325806E+03 -0.12389925626E+03  0.64240000998E+03  0.67405546542E+03  0.12500240652E+03 0.  0.
          2    1    1    2  501    0  0.33839185240E+02  0.19193150642E+03 -0.22421507256E+04  0.22506049565E+04  0.00000000000E+00 0. -1.
          1    1    1    2  502    0  0.69584072824E+02 -0.68032250156E+02  0.70987907147E+03  0.71651840616E+03  0.00000000000E+00 0. -1.
         22    1    3    3    0    0 -0.85489433421E+02 -0.69489137328E+01  0.27743160474E+03  0.29038771657E+03  0.00000000000E+00 0.  1.
         22    1    3    3    0    0 -0.17933824643E+02 -0.11695034253E+03  0.36496840524E+03  0.38366774885E+03  0.00000000000E+00 0.  1.
</event>
<event>
 7    1  0.6122298E-006  0.6182844E+02  0.7818608E-02  0.1530585E+00
          2   -1    0    0  502    0  0.00000000000E+00  0.00000000000E+00  0.28292149120E+03  0.28292149120E+03  0.00000000000E+00 0. -1.
          1   -1    0    0  501    0 -0.00000000000E+00 -0.00000000000E+00 -0.27014470925E+03  0.27014470925E+03  0.00000000000E+00 0. -1.
         25    2    1    2    0    0  0.82701037744E+01 -0.41015407581E+02 -0.15657320694E+03  0.20467497986E+03  0.12500407983E+03 0.  0.
          2    1    1    2  501    0  0.14469286465E+02 -0.16941418448E+02 -0.84309278469E+02  0.87203362010E+02  0.00000000000E+00 0. -1.
          1    1    1    2  502    0 -0.22739390239E+02  0.57956826029E+02  0.25365926736E+03  0.26118785858E+03  0.00000000000E+00 0. -1.
         22    1    3    3    0    0  0.49067294219E+02 -0.16491853042E+02 -0.14736454893E+03  0.15619183992E+03  0.00000000000E+00 0.  1.
         22    1    3    3    0    0 -0.40797190445E+02 -0.24523554539E+02 -0.92086580109E+01  0.48483139933E+02  0.00000000000E+00 0.  1.
</event>
<event>
 7    1  0.6122298E-006  0.3882700E+02  0.7818608E-02  0.1544692E+00
          2   -1    0    0  502    0  0.00000000000E+00  0.00000000000E+00  0.12582900233E+04  0.12582900233E+04  0.00000000000E+00 0. -1.
          1   -1    0    0  501    0 -0.00000000000E+00 -0.00000000000E+00 -0.11154539913E+02  0.11154539913E+02  0.00000000000E+00 0. -1.
         25    2    1    2    0    0 -0.16520830829E+00 -0.40476171327E+02  0.95293652245E+03  0.96195183324E+03  0.12499986363E+03 0.  0.
          2    1    1    2  501    0 -0.30182780046E+02  0.11657886203E+02  0.48809214313E+02  0.58559763694E+02  0.00000000000E+00 0. -1.
          1    1    1    2  502    0  0.30347988354E+02  0.28818285124E+02  0.24538974659E+03  0.24893296625E+03  0.00000000000E+00 0. -1.
         22    1    3    3    0    0 -0.34928473158E+02 -0.74550446211E+02  0.56257827524E+03  0.56857020942E+03  0.00000000000E+00 0.  1.
         22    1    3    3    0    0  0.34763264849E+02  0.34074274884E+02  0.39035824721E+03  0.39338162382E+03  0.00000000000E+00 0.  1.
</event>
<event>
 7    1  0.6122298E-006  0.4831766E+02  0.7818608E-02  0.1521740E+00
          2   -1    0    0  502    0  0.00000000000E+00  0.00000000000E+00  0.80753185472E+03  0.80753185472E+03  0.00000000000E+00 0. -1.
          1   -1    0    0  501    0 -0.00000000000E+00 -0.00000000000E+00 -0.16353637112E+03  0.16353637112E+03  0.00000000000E+00 0. -1.
         25    2    1    2    0    0 -0.63323824421E+02  0.25907226947E+02 -0.14555276318E+02  0.14324056510E+03  0.12499964909E+03 0.  0.
          2    1    1    2  501    0  0.15155164556E+02 -0.26158356448E+02 -0.81130305905E+02  0.86579819595E+02  0.00000000000E+00 0. -1.
          1    1    1    2  502    0  0.48168659866E+02  0.25112950100E+00  0.73968106583E+03  0.74124784114E+03  0.00000000000E+00 0. -1.
         22    1    3    3    0    0 -0.19333590745E+02  0.41218059591E+02 -0.61890088937E+02  0.76831629399E+02  0.00000000000E+00 0.  1.
         22    1    3    3    0    0 -0.43990233676E+02 -0.15310832644E+02  0.47334812618E+02  0.66408935700E+02  0.00000000000E+00 0.  1.
</event>
<event>
 7    1  0.6122298E-006  0.1006271E+03  0.7818608E-02  0.1351702E+00
          2   -1    0    0  502    0  0.00000000000E+00  0.00000000000E+00  0.18872252790E+03  0.18872252790E+03  0.00000000000E+00 0. -1.
          1   -1    0    0  501    0 -0.00000000000E+00 -0.00000000000E+00 -0.11738413614E+04  0.11738413614E+04  0.00000000000E+00 0. -1.
         25    2    1    2    0    0  0.90056617930E+02 -0.27520366955E+02 -0.57050413297E+03  0.59158118121E+03  0.12500305274E+03 0.  0.
          2    1    1    2  501    0 -0.22118996895E+02 -0.47365027926E+02 -0.57717795332E+03  0.57954040903E+03  0.00000000000E+00 0. -1.
          1    1    1    2  502    0 -0.67937621035E+02  0.74885394880E+02  0.16256325278E+03  0.19144229907E+03  0.00000000000E+00 0. -1.
         22    1    3    3    0    0  0.68419545382E+02 -0.74773261211E+02 -0.42972261478E+03  0.44151308070E+03  0.00000000000E+00 0. -1.
         22    1    3    3    0    0  0.21637072549E+02  0.47252894256E+02 -0.14078151820E+03  0.15006810051E+03  0.00000000000E+00 0. -1.
</event>
<event>
 7    1  0.6122298E-006  0.6917025E+02  0.7818608E-02  0.1384993E+00
          2   -1    0    0  502    0  0.00000000000E+00  0.00000000000E+00  0.30209543932E+04  0.30209543932E+04  0.00000000000E+00 0. -1.
          1   -1    0    0  501    0 -0.00000000000E+00 -0.00000000000E+00 -0.90767652305E+03  0.90767652305E+03  0.00000000000E+00 0. -1.
         25    2    1    2    0    0 -0.11642620705E+03 -0.16786594943E+02  0.61776773103E+03  0.64117012182E+03  0.12500121660E+03 0.  0.
          2    1    1    2  501    0  0.67646513709E+02 -0.14012271035E+02 -0.89429509232E+03  0.89695936737E+03  0.00000000000E+00 0. -1.
          1    1    1    2  502    0  0.48779693342E+02  0.30798865978E+02  0.23898052315E+04  0.23905014271E+04  0.00000000000E+00 0. -1.
         22    1    3    3    0    0 -0.31464632093E+02 -0.32223911568E+02  0.45219258682E+03  0.45442990562E+03  0.00000000000E+00 0. -1.
         22    1    3    3    0    0 -0.84961574958E+02  0.15437316626E+02  0.16557514421E+03  0.18674021619E+03  0.00000000000E+00 0. -1.
</event>
<event>
 7    1  0.6122298E-006  0.1019475E+03  0.7818608E-02  0.1316256E+00
          2   -1    0    0  502    0  0.00000000000E+00  0.00000000000E+00  0.10681424587E+04  0.10681424587E+04  0.00000000000E+00 0. -1.
          1   -1    0    0  501    0 -0.00000000000E+00 -0.00000000000E+00 -0.31412320454E+04  0.31412320454E+04  0.00000000000E+00 0. -1.
         25    2    1    2    0    0  0.10143152315E+03 -0.17951047795E+02  0.22846102904E+03  0.28007648764E+03  0.12505120206E+03 0.  0.
          2    1    1    2  501    0 -0.88272647534E+02 -0.51153977289E+02 -0.31130669882E+04  0.31147383297E+04  0.00000000000E+00 0. -1.
          1    1    1    2  502    0 -0.13158875612E+02  0.69105025084E+02  0.81151637244E+03  0.81455968673E+03  0.00000000000E+00 0. -1.
         22    1    3    3    0    0  0.11837509977E+03 -0.28703113237E+02  0.22967219887E+03  0.25997279067E+03  0.00000000000E+00 0. -1.
         22    1    3    3    0    0 -0.16943576619E+02  0.10752065442E+02 -0.12111698257E+01  0.20103696980E+02  0.00000000000E+00 0. -1.
</event>
<event>
 7    1  0.6122298E-006  0.4754110E+02  0.7818608E-02  0.1465050E+00
          2   -1    0    0  502    0  0.00000000000E+00  0.00000000000E+00  0.21119787475E+02  0.21119787475E+02  0.00000000000E+00 0. -1.
          1   -1    0    0  501    0 -0.00000000000E+00 -0.00000000000E+00 -0.21881070280E+04  0.21881070280E+04  0.00000000000E+00 0. -1.
         25    2    1    2    0    0  0.23974827143E+02 -0.27137771660E+00 -0.28723781003E+03  0.31417438138E+03  0.12500046568E+03 0.  0.
          2    1    1    2  501    0  0.17724661792E+02 -0.41935392022E+02 -0.17675074357E+04  0.17680936841E+04  0.00000000000E+00 0. -1.
          1    1    1    2  502    0 -0.41699488935E+02  0.42206769738E+02 -0.11224199481E+03  0.12695874994E+03  0.00000000000E+00 0. -1.
         22    1    3    3    0    0  0.22491220937E+02 -0.40067639482E+02 -0.32349947595E+02  0.56194215559E+02  0.00000000000E+00 0. -1.
         22    1    3    3    0    0  0.14836062052E+01  0.39796261765E+02 -0.25488786244E+03  0.25798016582E+03  0.00000000000E+00 0. -1.
</event>
<event>
 7    1  0.6122298E-006  0.3966468E+02  0.7818608E-02  0.1591678E+00
          2   -1    0    0  502    0  0.00000000000E+00  0.00000000000E+00  0.87747966983E+03  0.87747966983E+03  0.00000000000E+00 0. -1.
          1   -1    0    0  501    0 -0.00000000000E+00 -0.00000000000E+00 -0.14192366164E+03  0.14192366164E+03  0.00000000000E+00 0. -1.
         25    2    1    2    0    0  0.75818942332E+01 -0.17609065604E+02  0.45867905575E+03  0.47579056441E+03  0.12499048240E+03 0.  0.
          2    1    1    2  501    0  0.15145079937E+02 -0.18084245849E+02 -0.13122233891E+03  0.13332560003E+03  0.00000000000E+00 0. -1.
          1    1    1    2  502    0 -0.22726974171E+02  0.35693311454E+02  0.40809929135E+03  0.41028716704E+03  0.00000000000E+00 0. -1.
         22    1    3    3    0    0  0.19106026797E+02 -0.63576266495E+02  0.36297959296E+03  0.36900022605E+03  0.00000000000E+00 0. -1.
         22    1    3    3    0    0 -0.11524132564E+02  0.45967200890E+02  0.95699462783E+02  0.10679033836E+03  0.00000000000E+00 0. -1.
</event>
<event>
 7    1  0.6122298E-006  0.1455164E+03  0.7818608E-02  0.1418410E+00
          2   -1    0    0  502    0  0.00000000000E+00  0.00000000000E+00  0.66538615468E+03  0.66538615468E+03  0.00000000000E+00 0. -1.
          1   -1    0    0  501    0 -0.00000000000E+00 -0.00000000000E+00 -0.19896975902E+04  0.19896975902E+04  0.00000000000E+00 0. -1.
         25    2    1    2    0    0 -0.11882528367E+03 -0.10736592736E+03 -0.13975691592E+04  0.14122576714E+04  0.12500114123E+03 0.  0.
          2    1    1    2  501    0  0.18226359920E+01  0.20981036617E+02 -0.57655362210E+03  0.57693812931E+03  0.00000000000E+00 0. -1.
          1    1    1    2  502    0  0.11700264768E+03  0.86384890743E+02  0.64981134584E+03  0.66588794410E+03  0.00000000000E+00 0. -1.
         22    1    3    3    0    0 -0.13120781401E+01 -0.50893551287E+02 -0.74815885154E+03  0.74988901996E+03  0.00000000000E+00 0.  1.
         22    1    3    3    0    0 -0.11751320553E+03 -0.56472376073E+02 -0.64941030769E+03  0.66236865149E+03  0.00000000000E+00 0.  1.
</event>
<event>
 7    1  0.6122298E-006  0.4889272E+02  0.7818608E-02  0.1455219E+00
          2   -1    0    0  502    0  0.00000000000E+00  0.00000000000E+00  0.62930035449E+03  0.62930035449E+03  0.00000000000E+00 0. -1.
          1   -1    0    0  501    0 -0.00000000000E+00 -0.00000000000E+00 -0.48427998256E+03  0.48427998256E+03  0.00000000000E+00 0. -1.
         25    2    1    2    0    0 -0.12354351069E+02  0.26806517867E+01 -0.15065282351E+03  0.19616625006E+03  0.12500043419E+03 0.  0.
          2    1    1    2  501    0  0.37263781408E+02  0.37816789716E+02 -0.30766159767E+03  0.31220883663E+03  0.00000000000E+00 0. -1.
          1    1    1    2  502    0 -0.24909430339E+02 -0.40497441503E+02  0.60333479311E+03  0.60520525036E+03  0.00000000000E+00 0. -1.
         22    1    3    3    0    0  0.11830086553E+02 -0.72631527837E+01 -0.16551011940E+03  0.16609125191E+03  0.00000000000E+00 0.  1.
         22    1    3    3    0    0 -0.24184437622E+02  0.99438045704E+01  0.14857295893E+02  0.30074998150E+02  0.00000000000E+00 0.  1.
</event>
<event>
 7    1  0.6122298E-006  0.9645100E+02  0.7818608E-02  0.1449118E+00
          2   -1    0    0  502    0  0.00000000000E+00  0.00000000000E+00  0.58709187140E+03  0.58709187140E+03  0.00000000000E+00 0. -1.
          1   -1    0    0  501    0 -0.00000000000E+00 -0.00000000000E+00 -0.16664551556E+04  0.16664551556E+04  0.00000000000E+00 0. -1.
         25    2    1    2    0    0 -0.12013044311E+03 -0.15989661451E+02 -0.19175359834E+03  0.25900151450E+03  0.12500139759E+03 0.  0.
          2    1    1    2  501    0  0.24893827014E+02  0.39543363773E+01 -0.14368038999E+04  0.14370249776E+04  0.00000000000E+00 0. -1.
          1    1    1    2  502    0  0.95236616092E+02  0.12035325074E+02  0.54919421406E+03  0.55752053491E+03  0.00000000000E+00 0. -1.
         22    1    3    3    0    0 -0.13318004678E+03 -0.38425979920E+02 -0.18674634161E+03  0.23256757490E+03  0.00000000000E+00 0.  1.
         22    1    3    3    0    0  0.13049603671E+02  0.22436318469E+02 -0.50072567392E+01  0.26433939594E+02  0.00000000000E+00 0.  1.
</event>
<event>
 7    1  0.6122298E-006  0.6215803E+02  0.7818608E-02  0.1493101E+00
          2   -1    0    0  502    0  0.00000000000E+00  0.00000000000E+00  0.78360260558E+03  0.78360260558E+03  0.00000000000E+00 0. -1.
          1   -1    0    0  501    0 -0.00000000000E+00 -0.00000000000E+00 -0.32963516857E+03  0.32963516857E+03  0.00000000000E+00 0. -1.
         25    2    1    2    0    0  0.19187443746E+02 -0.30575314545E+02  0.77736768263E+02  0.15156255487E+03  0.12500078016E+03 0.  0.
          2    1    1    2  501    0 -0.43572005395E+02  0.45433129051E+02 -0.28902812223E+03  0.29580389502E+03  0.00000000000E+00 0. -1.
          1    1    1    2  502    0  0.24384561649E+02 -0.14857814505E+02  0.66525879098E+03  0.66587132426E+03  0.00000000000E+00 0. -1.
         22    1    3    3    0    0  0.22111509844E+02 -0.42883058349E+02 -0.20566540785E+02  0.52448624013E+02  0.00000000000E+00 0.  1.
         22    1    3    3    0    0 -0.29240660985E+01  0.12307743804E+02  0.98303309048E+02  0.99113930857E+02  0.00000000000E+00 0.  1.
</event>
<event>
 7    1  0.6122298E-006  0.1284984E+03  0.7818608E-02  0.1304671E+00
          2   -1    0    0  502    0  0.00000000000E+00  0.00000000000E+00  0.20801027170E+03  0.20801027170E+03  0.00000000000E+00 0. -1.
          1   -1    0    0  501    0 -0.00000000000E+00 -0.00000000000E+00 -0.84303035804E+03  0.84303035804E+03  0.00000000000E+00 0. -1.
         25    2    1    2    0    0 -0.97500372653E+02  0.78526831241E+02 -0.11704845456E+02  0.17729928425E+03  0.12500098758E+03 0.  0.
          2    1    1    2  501    0 -0.33631979898E+02 -0.52078114329E+02 -0.71106102284E+03  0.71375837527E+03  0.00000000000E+00 0. -1.
          1    1    1    2  502    0  0.13113235255E+03 -0.26448716912E+02  0.87745781951E+02  0.15998297022E+03  0.00000000000E+00 0. -1.
         22    1    3    3    0    0 -0.11497941728E+02 -0.33642491518E+02 -0.14413631080E+01  0.35582262816E+02  0.00000000000E+00 0.  1.
         22    1    3    3    0    0 -0.86002430925E+02  0.11216932276E+03 -0.10263482348E+02  0.14171702143E+03  0.00000000000E+00 0.  1.
</event>
<event>
 7    1  0.6122298E-006  0.1102666E+03  0.7818608E-02  0.1263887E+00
          2   -1    0    0  502    0  0.00000000000E+00  0.00000000000E+00  0.78865098870E+03  0.78865098870E+03  0.00000000000E+00 0. -1.
          1   -1    0    0  501    0 -0.00000000000E+00 -0.00000000000E+00 -0.91679576612E+02  0.91679576612E+02  0.00000000000E+00 0. -1.
         25    2    1    2    0    0 -0.19130855221E+02 -0.11569052934E+03  0.19759189995E+03  0.26156803329E+03  0.12499995566E+03 0.  0.
          2    1    1    2  501    0 -0.85736215577E+02  0.62718405709E+02  0.49298787239E+00  0.10622871605E+03  0.00000000000E+00 0. -1.
          1    1    1    2  502    0  0.10486707080E+03  0.52972123628E+02  0.49888652427E+03  0.51253381597E+03  0.00000000000E+00 0. -1.
         22    1    3    3    0    0 -0.19077254100E+02  0.18528491633E+02  0.53810405455E+01  0.27133046706E+02  0.00000000000E+00 0.  1.
         22    1    3    3    0    0 -0.53601121584E-01 -0.13421902097E+03  0.19221085940E+03  0.23443498659E+03  0.00000000000E+00 0.  1.
</event>
<event>
 7    1  0.6122298E-006  0.5963943E+02  0.7818608E-02  0.1475644E+00
          2   -1    0    0  502    0  0.00000000000E+00  0.00000000000E+00  0.60380315475E+03  0.60380315475E+03  0.00000000000E+00 0. -1.
          1   -1    0    0  501    0 -0.00000000000E+00 -0.00000000000E+00 -0.35158609645E+03  0.35158609645E+03  0.00000000000E+00 0. -1.
         25    2    1    2    0    0  0.39408979201E+02  0.46857834005E+02 -0.51618089505E+02  0.14845270525E+03  0.12500021714E+03 0.  0.
          2    1    1    2  501    0 -0.57302313053E+02 -0.18370172332E+02 -0.24743189411E+03  0.25464398782E+03  0.00000000000E+00 0. -1.
          1    1    1    2  502    0  0.17893333852E+02 -0.28487661672E+02  0.55126704191E+03  0.55229255813E+03  0.00000000000E+00 0. -1.
         22    1    3    3    0    0  0.47797523707E+02 -0.33517197315E+02 -0.21662079442E+02  0.62267579639E+02  0.00000000000E+00 0. -1.
         22    1    3    3    0    0 -0.83885445056E+01  0.80375031319E+02 -0.29956010064E+02  0.86185125616E+02  0.00000000000E+00 0. -1.
</event>
<event>
 7    1  0.6122298E-006  0.9620763E+02  0.7818608E-02  0.1380168E+00
          2   -1    0    0  502    0  0.00000000000E+00  0.00000000000E+00  0.88074612357E+03  0.88074612357E+03  0.00000000000E+00 0. -1.
          1   -1    0    0  501    0 -0.00000000000E+00 -0.00000000000E+00 -0.18768743884E+03  0.18768743884E+03  0.00000000000E+00 0. -1.
         25    2    1    2    0    0  0.72270107276E+02 -0.95984277281E+02  0.11520586054E+03  0.20816464242E+03  0.12499671260E+03 0.  0.
          2    1    1    2  501    0  0.63426352837E+01  0.42665978662E+02 -0.13468696465E+03  0.14142557479E+03  0.00000000000E+00 0. -1.
          1    1    1    2  502    0 -0.78612742560E+02  0.53318298619E+02  0.71253978883E+03  0.71884334520E+03  0.00000000000E+00 0. -1.
         22    1    3    3    0    0  0.69486237439E+02 -0.12505503011E+03  0.86314897252E+02  0.16708488632E+03  0.00000000000E+00 0.  1.
         22    1    3    3    0    0  0.27838698373E+01  0.29070752832E+02  0.28890963292E+02  0.41079756102E+02  0.00000000000E+00 0.  1.
</event>
<event>
 7    1  0.6122298E-006  0.1369044E+03  0.7818608E-02  0.1223519E+00
          2   -1    0    0  502    0  0.00000000000E+00  0.00000000000E+00  0.18099312109E+03  0.18099312109E+03  0.00000000000E+00 0. -1.
          1   -1    0    0  501    0 -0.00000000000E+00 -0.00000000000E+00 -0.13472725220E+04  0.13472725220E+04  0.00000000000E+00 0. -1.
         25    2    1    2    0    0 -0.13610327615E+03  0.21052449982E+01 -0.27537621108E+03  0.33163593430E+03  0.12498720517E+03 0.  0.
          2    1    1    2  501    0  0.84038484609E+02 -0.11969885566E+03 -0.10104883398E+04  0.10210176139E+04  0.00000000000E+00 0. -1.
          1    1    1    2  502    0  0.52064791545E+02  0.11759361066E+03  0.11958514997E+03  0.17561209492E+03  0.00000000000E+00 0. -1.
         22    1    3    3    0    0 -0.56842129277E+02 -0.43484701127E+02 -0.46963018934E+02  0.85600654439E+02  0.00000000000E+00 0. -1.
         22    1    3    3    0    0 -0.79261146877E+02  0.45589946125E+02 -0.22841319215E+03  0.24603527986E+03  0.00000000000E+00 0. -1.
</event>
<event>
 7    1  0.6122298E-006  0.1086233E+03  0.7818608E-02  0.1342867E+00
          2   -1    0    0  502    0  0.00000000000E+00  0.00000000000E+00  0.46704100563E+03  0.46704100563E+03  0.00000000000E+00 0. -1.
          1   -1    0    0  501    0 -0.00000000000E+00 -0.00000000000E+00 -0.35156107480E+03  0.35156107480E+03  0.00000000000E+00 0. -1.
         25    2    1    2    0    0 -0.13345996449E+03 -0.19354199341E+02 -0.11006564353E+03  0.21430272658E+03  0.12500026233E+03 0.  0.
          2    1    1    2  501    0  0.28410963143E+02  0.43832149022E+02 -0.17856145189E+03  0.18604470489E+03  0.00000000000E+00 0. -1.
          1    1    1    2  502    0  0.10504900134E+03 -0.24477949681E+02  0.40410702625E+03  0.41825464895E+03  0.00000000000E+00 0. -1.
         22    1    3    3    0    0  0.15479847510E+02 -0.28676561050E+02 -0.81521441688E+01  0.33592086674E+02  0.00000000000E+00 0.  1.
         22    1    3    3    0    0 -0.14893981200E+03  0.93223617086E+01 -0.10191349936E+03  0.18071063991E+03  0.00000000000E+00 0.  1.
</event>
<event>
 7    1  0.6122298E-006  0.1201300E+03  0.7818608E-02  0.1277889E+00
          2   -1    0    0  502    0  0.00000000000E+00  0.00000000000E+00  0.15068945387E+04  0.15068945387E+04  0.00000000000E+00 0. -1.
          1   -1    0    0  501    0 -0.00000000000E+00 -0.00000000000E+00 -0.94068764994E+02  0.94068764994E+02  0.00000000000E+00 0. -1.
         25    2    1    2    0    0 -0.15460476405E+03 -0.10604587499E+03  0.36844913160E+03  0.43188889912E+03  0.12499959176E+03 0.  0.
          2    1    1    2  501    0  0.71781128941E+02  0.86173805320E+02 -0.87635057249E+01  0.11249557426E+03  0.00000000000E+00 0. -1.
          1    1    1    2  502    0  0.82823635110E+02  0.19872069668E+02  0.10531401478E+04  0.10565788303E+04  0.00000000000E+00 0. -1.
         22    1    3    3    0    0 -0.51200832607E+02 -0.10712692558E+03  0.23267692193E+03  0.26122069873E+03  0.00000000000E+00 0.  1.
         22    1    3    3    0    0 -0.10340393144E+03  0.10810505892E+01  0.13577220966E+03  0.17066820039E+03  0.00000000000E+00 0.  1.
</event>
<event>
 7    1  0.6122298E-006  0.1418543E+03  0.7818608E-02  0.1393946E+00
          2   -1    0    0  502    0  0.00000000000E+00  0.00000000000E+00  0.13841608420E+03  0.13841608420E+03  0.00000000000E+00 0. -1.
          1   -1    0    0  501    0 -0.00000000000E+00 -0.00000000000E+00 -0.92469594015E+03  0.92469594015E+03  0.00000000000E+00 0. -1.
         25    2    1    2    0    0  0.11378721714E+03 -0.50319268780E+02 -0.19285738648E+03  0.26133867984E+03  0.12499749784E+03 0.  0.
          2    1    1    2  501    0 -0.12606117341E+03  0.73439150097E+02 -0.68817603172E+03  0.70347066665E+03  0.00000000000E+00 0. -1.
          1    1    1    2  502    0  0.12273956274E+02 -0.23119881316E+02  0.94753562254E+02  0.98302677861E+02  0.00000000000E+00 0. -1.
         22    1    3    3    0    0  0.46543859075E+01  0.36316590553E+02 -0.33162009573E+02  0.49399159269E+02  0.00000000000E+00 0. -1.
         22    1    3    3    0    0  0.10913283123E+03 -0.86635859333E+02 -0.15969537691E+03  0.21193952057E+03  0.00000000000E+00 0. -1.
</event>
<event>
 7    1  0.6122298E-006  0.1832091E+03  0.7818608E-02  0.1343450E+00
          2   -1    0    0  502    0  0.00000000000E+00  0.00000000000E+00  0.48814139874E+03  0.48814139874E+03  0.00000000000E+00 0. -1.
          1   -1    0    0  501    0 -0.00000000000E+00 -0.00000000000E+00 -0.45082493361E+03  0.45082493361E+03  0.00000000000E+00 0. -1.
         25    2    1    2    0    0 -0.33176420956E+02  0.17254288957E+03  0.71839143606E+02  0.22728057040E+03  0.12499548583E+03 0.  0.
          2    1    1    2  501    0  0.48232112291E+01 -0.18460986288E+03 -0.34945455295E+03  0.39524998345E+03  0.00000000000E+00 0. -1.
          1    1    1    2  502    0  0.28353209727E+02  0.12066973311E+02  0.31493187448E+03  0.31643577849E+03  0.00000000000E+00 0. -1.
         22    1    3    3    0    0  0.78060615762E+01  0.17329260695E+03  0.67198780191E+02  0.18602940165E+03  0.00000000000E+00 0.  1.
         22    1    3    3    0    0 -0.40982482532E+02 -0.74971737351E+00  0.46403634141E+01  0.41251168750E+02  0.00000000000E+00 0.  1.
</event>
<event>
 7    1  0.6122298E-006  0.5178405E+02  0.7818608E-02  0.1531532E+00
          2   -1    0    0  502    0  0.00000000000E+00  0.00000000000E+00  0.33406123527E+03  0.33406123527E+03  0.00000000000E+00 0. -1.
          1   -1    0    0  501    0 -0.00000000000E+00 -0.00000000000E+00 -0.99144641534E+03  0.99144641534E+03  0.00000000000E+00 0. -1.
         25    2    1    2    0    0  0.56750319550E+02  0.53573628026E+02  0.22617860796E+03  0.26994415117E+03  0.12498939822E+03 0.  0.
          2    1    1    2  501    0 -0.38882308071E+02 -0.34091041792E+02 -0.96682472997E+03  0.96820663678E+03  0.00000000000E+00 0. -1.
          1    1    1    2  502    0 -0.17868011479E+02 -0.19482586235E+02  0.83260941941E+02  0.87356862659E+02  0.00000000000E+00 0. -1.
         22    1    3    3    0    0 -0.30021240106E+02 -0.29341291060E+01  0.11116343481E+03  0.11518330265E+03  0.00000000000E+00 0.  1.
         22    1    3    3    0    0  0.86771559655E+02  0.56507757132E+02  0.11501517315E+03  0.15476084852E+03  0.00000000000E+00 0.  1.
</event>
<event>
 7    1  0.6675661E-006  0.8967840E+02  0.7818608E-02  0.1324432E+00
          2   -1    0    0  502    0  0.00000000000E+00  0.00000000000E+00  0.27325975372E+04  0.27325975372E+04  0.00000000000E+00 0. -1.
          1   -1    0    0  501    0 -0.00000000000E+00 -0.00000000000E+00 -0.52526398150E+03  0.52526398150E+03  0.00000000000E+00 0. -1.
         25    2    1    2    0    0  0.11316000229E+03 -0.93470456691E+02 -0.16067060648E+03  0.25096258603E+03  0.12500105363E+03 0.  0.
          2    1    1    2  501    0 -0.73122161363E+02  0.13406791144E+02 -0.31436549944E+03  0.32303600383E+03  0.00000000000E+00 0. -1.
          1    1    1    2  502    0 -0.40037840929E+02  0.80063665547E+02  0.26823696616E+04  0.26838629288E+04  0.00000000000E+00 0. -1.
         22    1    3    3    0    0  0.43612209739E+02 -0.55814246941E+02  0.11580736121E+01  0.70842050608E+02  0.00000000000E+00 0. -1.
         22    1    3    3    0    0  0.69547792553E+02 -0.37656209750E+02 -0.16182868009E+03  0.18012053542E+03  0.00000000000E+00 0. -1.
</event>
<event>
 7    1  0.6122298E-006  0.5773338E+02  0.7818608E-02  0.1432493E+00
          2   -1    0    0  502    0  0.00000000000E+00  0.00000000000E+00  0.21845312635E+03  0.21845312635E+03  0.00000000000E+00 0. -1.
          1   -1    0    0  501    0 -0.00000000000E+00 -0.00000000000E+00 -0.30998331201E+03  0.30998331201E+03  0.00000000000E+00 0. -1.
         25    2    1    2    0    0  0.12920723392E+02 -0.10904362540E+02 -0.13341012010E+03  0.18360045628E+03  0.12500006874E+03 0.  0.
          2    1    1    2  501    0  0.30308568242E+02  0.49171471312E+02 -0.14136547062E+03  0.15271096615E+03  0.00000000000E+00 0. -1.
          1    1    1    2  502    0 -0.43229291634E+02 -0.38267108772E+02  0.18324540507E+03  0.19212501593E+03  0.00000000000E+00 0. -1.
         22    1    3    3    0    0 -0.22911688184E+02 -0.45671416876E+02 -0.12231936076E+02  0.52539928008E+02  0.00000000000E+00 0. -1.
         22    1    3    3    0    0  0.35832411576E+02  0.34767054336E+02 -0.12117818403E+03  0.13106052827E+03  0.00000000000E+00 0. -1.
</event>
<event>
 7    1  0.6122298E-006  0.6602487E+02  0.7818608E-02  0.1444458E+00
          2   -1    0    0  502    0  0.00000000000E+00  0.00000000000E+00  0.14301443814E+04  0.14301443814E+04  0.00000000000E+00 0. -1.
          1   -1    0    0  501    0 -0.00000000000E+00 -0.00000000000E+00 -0.31333935032E+02  0.31333935032E+02  0.00000000000E+00 0. -1.
         25    2    1    2    0    0  0.40000438175E+02 -0.17813519450E+01  0.30265920154E+03  0.32989525258E+03  0.12500030852E+03 0.  0.
          2    1    1    2  501    0 -0.69238372543E+02 -0.22668338086E+02  0.59045642996E+02  0.93777362625E+02  0.00000000000E+00 0. -1.
          1    1    1    2  502    0  0.29237934368E+02  0.24449690031E+02  0.10371056018E+04  0.10378057012E+04  0.00000000000E+00 0. -1.
         22    1    3    3    0    0 -0.17755639819E+02 -0.42208878243E+01 -0.32797393650E+01  0.18542797246E+02  0.00000000000E+00 0.  1.
         22    1    3    3    0    0  0.57756077994E+02  0.24395358793E+01  0.30593894091E+03  0.31135245533E+03  0.00000000000E+00 0.  1.
</event>
<event>
 7    1  0.6122298E-006  0.2567581E+02  0.7818608E-02  0.1669949E+00
          2   -1    0    0  502    0  0.00000000000E+00  0.00000000000E+00  0.14768107080E+04  0.14768107080E+04  0.00000000000E+00 0. -1.
          1   -1    0    0  501    0 -0.00000000000E+00 -0.00000000000E+00 -0.35126676837E+03  0.35126676837E+03  0.00000000000E+00 0. -1.
         25    2    1    2    0    0  0.18256466002E+02  0.12921783600E+02  0.51313214670E+03  0.52860908970E+03  0.12499079443E+03 0.  0.
          2    1    1    2  501    0  0.59335250212E+01 -0.22392202914E+02 -0.34296101764E+03  0.34374245750E+03  0.00000000000E+00 0. -1.
          1    1    1    2  502    0 -0.24189991024E+02  0.94704193139E+01  0.95537281061E+03  0.95572592920E+03  0.00000000000E+00 0. -1.
         22    1    3    3    0    0 -0.47285008059E+02  0.58076966835E+01  0.34050543419E+03  0.34382197725E+03  0.00000000000E+00 0.  1.
         22    1    3    3    0    0  0.65541474062E+02  0.71140869166E+01  0.17262671251E+03  0.18478711245E+03  0.00000000000E+00 0.  1.
</event>
<event>
 7    1  0.6122298E-006  0.3772355E+02  0.7818608E-02  0.1556392E+00
          2   -1    0    0  502    0  0.00000000000E+00  0.00000000000E+00  0.21590847360E+03  0.21590847360E+03  0.00000000000E+00 0. -1.
          1   -1    0    0  501    0 -0.00000000000E+00 -0.00000000000E+00 -0.14119125317E+04  0.14119125317E+04  0.00000000000E+00 0. -1.
         25    2    1    2    0    0  0.36910004741E+02  0.15201615432E+02 -0.56677778495E+02  0.14293563572E+03  0.12499915129E+03 0.  0.
          2    1    1    2  501    0 -0.34422288141E+02  0.15591207367E+02 -0.13104503481E+04  0.13109950780E+04  0.00000000000E+00 0. -1.
          1    1    1    2  502    0 -0.24877166006E+01 -0.30792822798E+02  0.17112406852E+03  0.17389029156E+03  0.00000000000E+00 0. -1.
         22    1    3    3    0    0  0.42591762965E+02 -0.48983906962E+02 -0.40463691302E+02  0.76490468214E+02  0.00000000000E+00 0.  1.
         22    1    3    3    0    0 -0.56817582239E+01  0.64185522394E+02 -0.16214087194E+02  0.66445167507E+02  0.00000000000E+00 0.  1.
</event>
<event>
 7    1  0.6122298E-006  0.1217084E+03  0.7818608E-02  0.1338353E+00
          2   -1    0    0  502    0  0.00000000000E+00  0.00000000000E+00  0.10401282266E+03  0.10401282266E+03  0.00000000000E+00 0. -1.
          1   -1    0    0  501    0 -0.00000000000E+00 -0.00000000000E+00 -0.13050541998E+04  0.13050541998E+04  0.00000000000E+00 0. -1.
         25    2    1    2    0    0 -0.78718837643E+02 -0.12645938183E+03 -0.98527310714E+02  0.21798800388E+03  0.12499003251E+03 0.  0.
          2    1    1    2  501    0  0.43464365653E+02  0.21465399725E+02 -0.10761348709E+04  0.10772261485E+04  0.00000000000E+00 0. -1.
          1    1    1    2  502    0  0.35254471990E+02  0.10499398210E+03 -0.26379195438E+02  0.11385287008E+03  0.00000000000E+00 0. -1.
         22    1    3    3    0    0  0.16734783416E+02 -0.68744018874E+02 -0.76659211967E+02  0.10431887598E+03  0.00000000000E+00 0.  1.
         22    1    3    3    0    0 -0.95453621059E+02 -0.57715362951E+02 -0.21868098747E+02  0.11366912790E+03  0.00000000000E+00 0.  1.
</event>
<event>
 7    1  0.6122298E-006  0.5422706E+02  0.7818608E-02  0.1527417E+00
          2   -1    0    0  502    0  0.00000000000E+00  0.00000000000E+00  0.27669048944E+03  0.27669048944E+03  0.00000000000E+00 0. -1.
          1   -1    0    0  501    0 -0.00000000000E+00 -0.00000000000E+00 -0.12382434404E+04  0.12382434404E+04  0.00000000000E+00 0. -1.
         25    2    1    2    0    0  0.48145767266E+01 -0.49225217837E+02  0.28199762678E+02  0.13735309659E+03  0.12499737721E+03 0.  0.
          2    1    1    2  501    0  0.25700587395E+02  0.35137196701E+01 -0.11796269226E+04  0.11799120912E+04  0.00000000000E+00 0. -1.
          1    1    1    2  502    0 -0.30515164121E+02  0.45711498167E+02  0.18987420902E+03  0.19766874199E+03  0.00000000000E+00 0. -1.
         22    1    3    3    0    0 -0.26031664432E+02 -0.23632222451E+02  0.70684372064E+02  0.78945613844E+02  0.00000000000E+00 0. -1.
         22    1    3    3    0    0  0.30846241159E+02 -0.25592995386E+02 -0.42484609386E+02  0.58407482750E+02  0.00000000000E+00 0. -1.
</event>
<event>
 7    1  0.6122298E-006  0.4305267E+02  0.7818608E-02  0.1571452E+00
          2   -1    0    0  502    0  0.00000000000E+00  0.00000000000E+00  0.10836908607E+04  0.10836908607E+04  0.00000000000E+00 0. -1.
          1   -1    0    0  501    0 -0.00000000000E+00 -0.00000000000E+00 -0.10510496845E+03  0.10510496845E+03  0.00000000000E+00 0. -1.
         25    2    1    2    0    0  0.16041171383E+02  0.50111205793E+02  0.31385436485E+03  0.34190334212E+03  0.12499952358E+03 0.  0.
          2    1    1    2  501    0 -0.23331046380E+02 -0.78517215128E+01 -0.88796303388E+02  0.92145378350E+02  0.00000000000E+00 0. -1.
          1    1    1    2  502    0  0.72898749965E+01 -0.42259484280E+02  0.75352783079E+03  0.75474710868E+03  0.00000000000E+00 0. -1.
         22    1    3    3    0    0  0.56332332184E+02  0.58790682594E+02  0.26870697568E+03  0.28077235404E+03  0.00000000000E+00 0.  1.
         22    1    3    3    0    0 -0.40291160801E+02 -0.86794768005E+01  0.45147389165E+02  0.61130988088E+02  0.00000000000E+00 0.  1.
</event>
<event>
 7    1  0.6122298E-006  0.1607960E+03  0.7818608E-02  0.1263259E+00
          2   -1    0    0  502    0  0.00000000000E+00  0.00000000000E+00  0.17542717007E+03  0.17542717007E+03  0.00000000000E+00 0. -1.
          1   -1    0    0  501    0 -0.00000000000E+00 -0.00000000000E+00 -0.18814408477E+04  0.18814408477E+04  0.00000000000E+00 0. -1.
         25    2    1    2    0    0 -0.14646568537E+03  0.16450088182E+03 -0.34635495139E+03  0.42906848136E+03  0.12500108892E+03 0.  0.
          2    1    1    2  501    0  0.12268786378E+03 -0.95171208187E+02 -0.14793356688E+04  0.14874622320E+04  0.00000000000E+00 0. -1.
          1    1    1    2  502    0  0.23777821597E+02 -0.69329673635E+02  0.11967694250E+03  0.14033730442E+03  0.00000000000E+00 0. -1.
         22    1    3    3    0    0 -0.13021711852E+03  0.11053895265E+03 -0.32798202083E+03  0.36979394802E+03  0.00000000000E+00 0. -1.
         22    1    3    3    0    0 -0.16248566854E+02  0.53961929171E+02 -0.18372930562E+02  0.59274533335E+02  0.00000000000E+00 0. -1.
</event>
<event>
 7    1  0.6122298E-006  0.1153170E+03  0.7818608E-02  0.1313237E+00
          2   -1    0    0  502    0  0.00000000000E+00  0.00000000000E+00  0.12661311536E+04  0.12661311536E+04  0.00000000000E+00 0. -1.
          1   -1    0    0  501    0 -0.00000000000E+00 -0.00000000000E+00 -0.31810100117E+03  0.31810100117E+03  0.00000000000E+00 0. -1.
         25    2    1    2    0    0  0.37061424697E+02 -0.42565971725E+02  0.32818858674E+03  0.35569436334E+03  0.12500128198E+03 0.  0.
          2    1    1    2  501    0 -0.95811578211E+02  0.67712258557E+02 -0.29188114844E+03  0.31457815133E+03  0.00000000000E+00 0. -1.
          1    1    1    2  502    0  0.58750153514E+02 -0.25146286832E+02  0.91172271409E+03  0.91395964006E+03  0.00000000000E+00 0. -1.
         22    1    3    3    0    0 -0.34336644716E+01  0.32768471821E+02  0.19250125514E+03  0.19530052746E+03  0.00000000000E+00 0.  1.
         22    1    3    3    0    0  0.40495089168E+02 -0.75334443547E+02  0.13568733160E+03  0.16039383588E+03  0.00000000000E+00 0.  1.
</event>
<event>
 7    1  0.7136603E-006  0.6225012E+02  0.7818608E-02  0.1496465E+00
          2   -1    0    0  502    0  0.00000000000E+00  0.00000000000E+00  0.85114740792E+03  0.85114740792E+03  0.00000000000E+00 0. -1.
          1   -1    0    0  501    0 -0.00000000000E+00 -0.00000000000E+00 -0.19541113770E+04  0.19541113770E+04  0.00000000000E+00 0. -1.
         25    2    1    2    0    0  0.12278201567E+02  0.40637967306E+02 -0.21618366407E+03  0.25330317728E+03  0.12499969755E+03 0.  0.
          2    1    1    2  501    0  0.26659727892E+02  0.80762006615E+01 -0.17180870793E+04  0.17183128872E+04  0.00000000000E+00 0. -1.
          1    1    1    2  502    0 -0.38937929459E+02 -0.48714167968E+02  0.83130677427E+03  0.83364272051E+03  0.00000000000E+00 0. -1.
         22    1    3    3    0    0 -0.39206452287E+02  0.35151282432E+02 -0.18613347357E+03  0.19343843605E+03  0.00000000000E+00 0. -1.
         22    1    3    3    0    0  0.51484653854E+02  0.54866848741E+01 -0.30050190493E+02  0.59864741226E+02  0.00000000000E+00 0. -1.
</event>
<event>
 7    1  0.6122298E-006  0.1081523E+03  0.7818608E-02  0.1266533E+00
          2   -1    0    0  502    0  0.00000000000E+00  0.00000000000E+00  0.20065821890E+03  0.20065821890E+03  0.00000000000E+00 0. -1.
          1   -1    0    0  501    0 -0.00000000000E+00 -0.00000000000E+00 -0.10724298553E+04  0.10724298553E+04  0.00000000000E+00 0. -1.
         25    2    1    2    0    0  0.16266343280E+03 -0.41218999256E+02 -0.17110718534E+03  0.27029806499E+03  0.12499990716E+03 0.  0.
          2    1    1    2  501    0 -0.65882452359E+02  0.83332668044E+02 -0.82948076294E+03  0.83625544374E+03  0.00000000000E+00 0. -1.
          1    1    1    2  502    0 -0.96780980445E+02 -0.42113668788E+02  0.12881631191E+03  0.16653456544E+03  0.00000000000E+00 0. -1.
         22    1    3    3    0    0  0.17225540749E+03 -0.12581022629E+02 -0.11790603114E+03  0.20912206895E+03  0.00000000000E+00 0. -1.
         22    1    3    3    0    0 -0.95919746877E+01 -0.28637976627E+02 -0.53201154202E+02  0.61175996045E+02  0.00000000000E+00 0. -1.
</event>
<event>
 7    1  0.6122298E-006  0.1231138E+03  0.7818608E-02  0.1254593E+00
          2   -1    0    0  502    0  0.00000000000E+00  0.00000000000E+00  0.71042259362E+03  0.71042259362E+03  0.00000000000E+00 0. -1.
          1   -1    0    0  501    0 -0.00000000000E+00 -0.00000000000E+00 -0.11345407284E+04  0.11345407284E+04  0.00000000000E+00 0. -1.
         25    2    1    2    0    0 -0.46558815770E+02  0.20820807940E+03  0.13048471333E+03  0.27960295336E+03  0.12503288951E+03 0.  0.
          2    1    1    2  501    0 -0.10938697641E+02 -0.12124452715E+03 -0.10510542340E+04  0.10580807594E+04  0.00000000000E+00 0. -1.
          1    1    1    2  502    0  0.57497513411E+02 -0.86963552258E+02  0.49645138590E+03  0.50727960932E+03  0.00000000000E+00 0. -1.
         22    1    3    3    0    0 -0.41713373430E+02  0.29653733745E+02 -0.10256946348E+02  0.52197264261E+02  0.00000000000E+00 0.  1.
         22    1    3    3    0    0 -0.48454423403E+01  0.17855434566E+03  0.14074165968E+03  0.22740568910E+03  0.00000000000E+00 0.  1.
</event>
<event>
 7    1  0.6122298E-006  0.6925975E+02  0.7818608E-02  0.1517191E+00
          2   -1    0    0  502    0  0.00000000000E+00  0.00000000000E+00  0.20707565151E+04  0.20707565151E+04  0.00000000000E+00 0. -1.
          1   -1    0    0  501    0 -0.00000000000E+00 -0.00000000000E+00 -0.26368632208E+03  0.26368632208E+03  0.00000000000E+00 0. -1.
         25    2    1    2    0    0 -0.13167479142E+02 -0.47180223582E+02  0.21096516201E+03  0.25006062630E+03  0.12499864496E+03 0.  0.
          2    1    1    2  501    0 -0.12133596232E+02 -0.18041631549E+02 -0.24298815589E+03  0.24395894845E+03  0.00000000000E+00 0. -1.
          1    1    1    2  502    0  0.25301075374E+02  0.65221855131E+02  0.18390931869E+04  0.18404232625E+04  0.00000000000E+00 0. -1.
         22    1    3    3    0    0  0.26218720661E+02 -0.59656107898E+02  0.45402181536E+02  0.79420593116E+02  0.00000000000E+00 0. -1.
         22    1    3    3    0    0 -0.39386199803E+02  0.12475884316E+02  0.16556298047E+03  0.17064003319E+03  0.00000000000E+00 0. -1.
</event>
<event>
 7    1  0.6122298E-006  0.8890364E+02  0.7818608E-02  0.1362798E+00
          2   -1    0    0  502    0  0.00000000000E+00  0.00000000000E+00  0.33243168031E+03  0.33243168031E+03  0.00000000000E+00 0. -1.
          1   -1    0    0  501    0 -0.00000000000E+00 -0.00000000000E+00 -0.13974727341E+03  0.13974727341E+03  0.00000000000E+00 0. -1.
         25    2    1    2    0    0 -0.81912396356E+02 -0.29829276783E+02 -0.36924625534E+02  0.15680577025E+03  0.12500078073E+03 0.  0.
          2    1    1    2  501    0 -0.51904686916E+01  0.53629485557E+02 -0.13914844642E+02  0.55647871368E+02  0.00000000000E+00 0. -1.
          1    1    1    2  502    0  0.87102865048E+02 -0.23800208775E+02  0.24352387708E+03  0.25972531210E+03  0.00000000000E+00 0. -1.
         22    1    3    3    0    0 -0.25082334002E+02 -0.46508061687E+02 -0.70977691282E+02  0.88487038263E+02  0.00000000000E+00 0.  1.
         22    1    3    3    0    0 -0.56830062354E+02  0.16678784905E+02  0.34053065748E+02  0.68318731984E+02  0.00000000000E+00 0.  1.
</event>
<event>
 7    1  0.6122298E-006  0.1545110E+03  0.7818608E-02  0.1201741E+00
          2   -1    0    0  502    0  0.00000000000E+00  0.00000000000E+00  0.18821807566E+04  0.18821807566E+04  0.00000000000E+00 0. -1.
          1   -1    0    0  501    0 -0.00000000000E+00 -0.00000000000E+00 -0.13324769489E+04  0.13324769489E+04  0.00000000000E+00 0. -1.
         25    2    1    2    0    0 -0.95287492348E+02 -0.40009767075E+02  0.78995072646E+03  0.80642799949E+03  0.12499392168E+03 0.  0.
          2    1    1    2  501    0 -0.97127317183E+02 -0.10581530170E+03 -0.13068114363E+04  0.13146812252E+04  0.00000000000E+00 0. -1.
          1    1    1    2  502    0  0.19241480953E+03  0.14582506878E+03  0.10665645176E+04  0.10935484808E+04  0.00000000000E+00 0. -1.
         22    1    3    3    0    0 -0.46373060248E+01  0.21771343072E+02  0.24284224673E+02  0.32942670722E+02  0.00000000000E+00 0.  1.
         22    1    3    3    0    0 -0.90650186323E+02 -0.61781110147E+02  0.76566650179E+03  0.77348532877E+03  0.00000000000E+00 0.  1.
</event>
<event>
 7    1  0.6122298E-006  0.2709971E+02  0.7818608E-02  0.1643410E+00
          2   -1    0    0  502    0  0.00000000000E+00  0.00000000000E+00  0.10601323243E+04  0.10601323243E+04  0.00000000000E+00 0. -1.
          1   -1    0    0  501    0 -0.00000000000E+00 -0.00000000000E+00 -0.88562044694E+03  0.88562044694E+03  0.00000000000E+00 0. -1.
         25    2    1    2    0    0  0.19134013217E+02  0.75544248707E+01 -0.94455099287E+02  0.15801744074E+03  0.12499826399E+03 0.  0.
          2    1    1    2  501    0 -0.28001314397E+01 -0.27090415927E+02 -0.75898225703E+03  0.75947073535E+03  0.00000000000E+00 0. -1.
          1    1    1    2  502    0 -0.16333881778E+02  0.19535991056E+02  0.10279492337E+04  0.10282645952E+04  0.00000000000E+00 0. -1.
         22    1    3    3    0    0 -0.30669674558E+02  0.21024086595E+02 -0.99458792895E+02  0.10618235559E+03  0.00000000000E+00 0. -1.
         22    1    3    3    0    0  0.49803687775E+02 -0.13469661724E+02  0.50036936073E+01  0.51835085152E+02  0.00000000000E+00 0. -1.
</event>
<event>
 7    1  0.6122298E-006  0.7269619E+02  0.7818608E-02  0.1352330E+00
          2   -1    0    0  502    0  0.00000000000E+00  0.00000000000E+00  0.21761139906E+04  0.21761139906E+04  0.00000000000E+00 0. -1.
          1   -1    0    0  501    0 -0.00000000000E+00 -0.00000000000E+00 -0.34017674905E+02  0.34017674905E+02  0.00000000000E+00 0. -1.
         25    2    1    2    0    0 -0.62442212035E+02 -0.42112377501E+02  0.46562702749E+03  0.48796041497E+03  0.12499742266E+03 0.  0.
          2    1    1    2  501    0 -0.53056539945E+01  0.72502317395E+02  0.38015885075E+02  0.82036232910E+02  0.00000000000E+00 0. -1.
          1    1    1    2  502    0  0.67747866029E+02 -0.30389939894E+02  0.16384534031E+04  0.16401350176E+04  0.00000000000E+00 0. -1.
         22    1    3    3    0    0 -0.75025426120E+02 -0.57594800229E+02  0.19632958534E+03  0.21792494501E+03  0.00000000000E+00 0. -1.
         22    1    3    3    0    0  0.12583214085E+02  0.15482422727E+02  0.26929744215E+03  0.27003546996E+03  0.00000000000E+00 0. -1.
</event>
<event>
 7    1  0.6122298E-006  0.5598490E+02  0.7818608E-02  0.1480138E+00
          2   -1    0    0  502    0  0.00000000000E+00  0.00000000000E+00  0.20183365226E+04  0.20183365226E+04  0.00000000000E+00 0. -1.
          1   -1    0    0  501    0 -0.00000000000E+00 -0.00000000000E+00 -0.17406663925E+04  0.17406663925E+04  0.00000000000E+00 0. -1.
         25    2    1    2    0    0 -0.22217708139E+02 -0.60119821017E+02 -0.81028468832E+01  0.14071253371E+03  0.12500536622E+03 0.  0.
          2    1    1    2  501    0 -0.12068033466E+02  0.54683212805E+02 -0.16656337873E+04  0.16665748722E+04  0.00000000000E+00 0. -1.
          1    1    1    2  502    0  0.34285741605E+02  0.54366082122E+01  0.19514067643E+04  0.19517155091E+04  0.00000000000E+00 0. -1.
         22    1    3    3    0    0  0.22709265931E+01  0.36910145173E+02 -0.16075545875E+02  0.40322935155E+02  0.00000000000E+00 0.  1.
         22    1    3    3    0    0 -0.24488634732E+02 -0.97029966190E+02  0.79726989917E+01  0.10038959856E+03  0.00000000000E+00 0.  1.
</event>
<event>
 7    1  0.6122298E-006  0.1224726E+03  0.7818608E-02  0.1279728E+00
          2   -1    0    0  502    0  0.00000000000E+00  0.00000000000E+00  0.41503320590E+03  0.41503320590E+03  0.00000000000E+00 0. -1.
          1   -1    0    0  501    0 -0.00000000000E+00 -0.00000000000E+00 -0.72321050137E+03  0.72321050137E+03  0.00000000000E+00 0. -1.
         25    2    1    2    0    0  0.43577366355E+02 -0.86146531500E+02 -0.19053999098E+03  0.24748412775E+03  0.12499077397E+03 0.  0.
          2    1    1    2  501    0 -0.12166129930E+03  0.60804232697E+02 -0.49047876884E+03  0.50898727798E+03  0.00000000000E+00 0. -1.
          1    1    1    2  502    0  0.78083932945E+02  0.25342298804E+02  0.37284146435E+03  0.38177230155E+03  0.00000000000E+00 0. -1.
         22    1    3    3    0    0 -0.42506941778E+02 -0.36111713497E+02 -0.90723410572E+02  0.10649710408E+03  0.00000000000E+00 0. -1.
         22    1    3    3    0    0  0.86084308133E+02 -0.50034818004E+02 -0.99816580404E+02  0.14098702367E+03  0.00000000000E+00 0. -1.
</event>
<event>
 7    1  0.6122298E-006  0.5595625E+02  0.7818608E-02  0.1437698E+00
          2   -1    0    0  502    0  0.00000000000E+00  0.00000000000E+00  0.38016052441E+04  0.38016052441E+04  0.00000000000E+00 0. -1.
          1   -1    0    0  501    0 -0.00000000000E+00 -0.00000000000E+00 -0.20556596571E+03  0.20556596571E+03  0.00000000000E+00 0. -1.
         25    2    1    2    0    0 -0.19695360265E+02 -0.68759486455E+02  0.73125511486E+03  0.74530316740E+03  0.12500797627E+03 0.  0.
          2    1    1    2  501    0  0.43680465302E+02  0.18141767511E+02 -0.19546509455E+03  0.20110621563E+03  0.00000000000E+00 0. -1.
          1    1    1    2  502    0 -0.23985105037E+02  0.50617718944E+02  0.30602492580E+04  0.30607618268E+04  0.00000000000E+00 0. -1.
         22    1    3    3    0    0  0.22587214985E+01  0.59778825976E+01  0.52169548173E+03  0.52173461890E+03  0.00000000000E+00 0. -1.
         22    1    3    3    0    0 -0.21954081763E+02 -0.74737369053E+02  0.20955963313E+03  0.22356854849E+03  0.00000000000E+00 0. -1.
</event>
<event>
 7    1  0.6122298E-006  0.1741830E+03  0.7818608E-02  0.1230634E+00
          2   -1    0    0  502    0  0.00000000000E+00  0.00000000000E+00  0.61298349234E+03  0.61298349234E+03  0.00000000000E+00 0. -1.
          1   -1    0    0  501    0 -0.00000000000E+00 -0.00000000000E+00 -0.82003222722E+03  0.82003222722E+03  0.00000000000E+00 0. -1.
         25    2    1    2    0    0  0.90642763935E+02 -0.23066743606E+03  0.21555769421E+03  0.35144585491E+03  0.12500197074E+03 0.  0.
          2    1    1    2  501    0 -0.41254065913E+02  0.84338154152E+02 -0.73082089136E+03  0.73682697931E+03  0.00000000000E+00 0. -1.
          1    1    1    2  502    0 -0.49388698022E+02  0.14632928191E+03  0.30821446227E+03  0.34474288533E+03  0.00000000000E+00 0. -1.
         22    1    3    3    0    0  0.10528978988E+03 -0.98772982548E+02  0.12287583742E+03  0.18957983373E+03  0.00000000000E+00 0.  1.
         22    1    3    3    0    0 -0.14647025945E+02 -0.13189445351E+03  0.92681856794E+02  0.16186602119E+03  0.00000000000E+00 0.  1.
</event>
<event>
 7    1  0.6122298E-006  0.8550572E+02  0.7818608E-02  0.1321287E+00
          2   -1    0    0  502    0  0.00000000000E+00  0.00000000000E+00  0.21776054341E+04  0.21776054341E+04  0.00000000000E+00 0. -1.
          1   -1    0    0  501    0 -0.00000000000E+00 -0.00000000000E+00 -0.28245080280E+03  0.28245080280E+03  0.00000000000E+00 0. -1.
         25    2    1    2    0    0 -0.16721746737E+01  0.12814630170E+03  0.11063341152E+03  0.21044655630E+03  0.12499492192E+03 0.  0.
          2    1    1    2  501    0  0.53021451963E+02 -0.60147427227E+02 -0.22470271029E+03  0.23857974638E+03  0.00000000000E+00 0. -1.
          1    1    1    2  502    0 -0.51349277289E+02 -0.67998874477E+02  0.20092239301E+04  0.20110299343E+04  0.00000000000E+00 0. -1.
         22    1    3    3    0    0  0.24614528492E+02  0.79673757058E+01  0.79420743363E+02  0.83528489540E+02  0.00000000000E+00 0. -1.
         22    1    3    3    0    0 -0.26286703166E+02  0.12017892600E+03  0.31212668161E+02  0.12691806676E+03  0.00000000000E+00 0. -1.
</event>
<event>
 7    1  0.6122298E-006  0.1130360E+03  0.7818608E-02  0.1270364E+00
          2   -1    0    0  502    0  0.00000000000E+00  0.00000000000E+00  0.16538827441E+04  0.16538827441E+04  0.00000000000E+00 0. -1.
          1   -1    0    0  501    0 -0.00000000000E+00 -0.00000000000E+00 -0.23775939915E+03  0.23775939915E+03  0.00000000000E+00 0. -1.
         25    2    1    2    0    0  0.80067069395E+01 -0.37977723750E+02 -0.21593573833E+01  0.13090602038E+03  0.12500123395E+03 0.  0.
          2    1    1    2  501    0 -0.83500917133E+02 -0.49958217384E+02 -0.15509696472E+03  0.18309367851E+03  0.00000000000E+00 0. -1.
          1    1    1    2  502    0  0.75494210193E+02  0.87935941135E+02  0.15733796671E+04  0.15776424444E+04  0.00000000000E+00 0. -1.
         22    1    3    3    0    0 -0.48682373794E+02 -0.26342859808E+01 -0.31391843476E+02  0.57985867396E+02  0.00000000000E+00 0.  1.
         22    1    3    3    0    0  0.56689080733E+02 -0.35343437770E+02  0.29232486092E+02  0.72920152982E+02  0.00000000000E+00 0.  1.
</event>
<event>
 7    1  0.6122298E-006  0.5035130E+02  0.7818608E-02  0.1444658E+00
          2   -1    0    0  502    0  0.00000000000E+00  0.00000000000E+00  0.26384722183E+03  0.26384722183E+03  0.00000000000E+00 0. -1.
          1   -1    0    0  501    0 -0.00000000000E+00 -0.00000000000E+00 -0.77939044967E+03  0.77939044967E+03  0.00000000000E+00 0. -1.
         25    2    1    2    0    0  0.98104333909E+01  0.17261811684E+02 -0.71499918480E+02  0.14535772190E+03  0.12498965649E+03 0.  0.
          2    1    1    2  501    0  0.36108547531E+02 -0.36802133727E+02 -0.66721132038E+03  0.66920039621E+03  0.00000000000E+00 0. -1.
          1    1    1    2  502    0 -0.45918980921E+02  0.19540322043E+02  0.22316801102E+03  0.22867955339E+03  0.00000000000E+00 0. -1.
         22    1    3    3    0    0 -0.29360275199E+02  0.21133141592E+02  0.23082387844E+02  0.42911910490E+02  0.00000000000E+00 0.  1.
         22    1    3    3    0    0  0.39170708590E+02 -0.38713299086E+01 -0.94582306324E+02  0.10244581141E+03  0.00000000000E+00 0.  1.
</event>
<event>
 7    1  0.6122298E-006  0.1093733E+03  0.7818608E-02  0.1324251E+00
          2   -1    0    0  502    0  0.00000000000E+00  0.00000000000E+00  0.22425531109E+04  0.22425531109E+04  0.00000000000E+00 0. -1.
          1   -1    0    0  501    0 -0.00000000000E+00 -0.00000000000E+00 -0.57418649225E+02  0.57418649225E+02  0.00000000000E+00 0. -1.
         25    2    1    2    0    0 -0.15448411538E+03  0.49793252591E+02  0.34274347056E+03  0.39930268686E+03  0.12499935685E+03 0.  0.
          2    1    1    2  501    0  0.61032897066E+02  0.15498054178E+01  0.61796787094E+01  0.61364524361E+02  0.00000000000E+00 0. -1.
          1    1    1    2  502    0  0.93451218316E+02 -0.51343058009E+02  0.18362113124E+04  0.18393045489E+04  0.00000000000E+00 0. -1.
         22    1    3    3    0    0 -0.31050666386E+02  0.55289185906E+02  0.47440934422E+02  0.79193940551E+02  0.00000000000E+00 0. -1.
         22    1    3    3    0    0 -0.12343344900E+03 -0.54959333151E+01  0.29530253614E+03  0.32010874631E+03  0.00000000000E+00 0. -1.
</event>
<event>
 7    1  0.6122298E-006  0.2502524E+02  0.7818608E-02  0.1686750E+00
          2   -1    0    0  502    0  0.00000000000E+00  0.00000000000E+00  0.19440313361E+04  0.19440313361E+04  0.00000000000E+00 0. -1.
          1   -1    0    0  501    0 -0.00000000000E+00 -0.00000000000E+00 -0.91442491541E+02  0.91442491541E+02  0.00000000000E+00 0. -1.
         25    2    1    2    0    0 -0.23660875346E+00  0.45688771128E+02  0.27344643786E+03  0.30411614969E+03  0.12500463323E+03 0.  0.
          2    1    1    2  501    0 -0.44383768246E+01 -0.21227960588E+02 -0.74467037481E+02  0.77560719251E+02  0.00000000000E+00 0. -1.
          1    1    1    2  502    0  0.46749855780E+01 -0.24460810539E+02  0.16536094441E+04  0.16537969587E+04  0.00000000000E+00 0. -1.
         22    1    3    3    0    0  0.28830054160E+02 -0.22420901700E+02  0.18588629369E+03  0.18944018327E+03  0.00000000000E+00 0. -1.
         22    1    3    3    0    0 -0.29066662913E+02  0.68109672828E+02  0.87560144171E+02  0.11467596641E+03  0.00000000000E+00 0. -1.
</event>
<event>
 7    1  0.6122298E-006  0.6389632E+02  0.7818608E-02  0.1464305E+00
          2   -1    0    0  502    0  0.00000000000E+00  0.00000000000E+00  0.91498682897E+02  0.91498682897E+02  0.00000000000E+00 0. -1.
          1   -1    0    0  501    0 -0.00000000000E+00 -0.00000000000E+00 -0.37450316357E+03  0.37450316357E+03  0.00000000000E+00 0. -1.
         25    2    1    2    0    0 -0.10911499364E+02  0.80184770042E+02 -0.11936525664E+03  0.19084214856E+03  0.12499601198E+03 0.  0.
          2    1    1    2  501    0  0.32128592603E+02 -0.53544949806E+02 -0.20917519135E+03  0.21829697384E+03  0.00000000000E+00 0. -1.
          1    1    1    2  502    0 -0.21217093239E+02 -0.26639820236E+02  0.45535967321E+02  0.56862724060E+02  0.00000000000E+00 0. -1.
         22    1    3    3    0    0  0.12636867122E+02  0.86214983359E+02 -0.13590539378E+03  0.16144035996E+03  0.00000000000E+00 0. -1.
         22    1    3    3    0    0 -0.23548366487E+02 -0.60302133165E+01  0.16540137132E+02  0.29401788605E+02  0.00000000000E+00 0. -1.
</event>
<event>
 7    1  0.6122298E-006  0.8916729E+02  0.7818608E-02  0.1370014E+00
          2   -1    0    0  502    0  0.00000000000E+00  0.00000000000E+00  0.13011507020E+03  0.13011507020E+03  0.00000000000E+00 0. -1.
          1   -1    0    0  501    0 -0.00000000000E+00 -0.00000000000E+00 -0.16000873119E+04  0.16000873119E+04  0.00000000000E+00 0. -1.
         25    2    1    2    0    0 -0.15486996332E+02  0.81745450380E+02 -0.50484224081E+03  0.52670040562E+03  0.12500185383E+03 0.  0.
          2    1    1    2  501    0  0.50580766166E+02  0.92761822634E+00 -0.10667111963E+04  0.10679101323E+04  0.00000000000E+00 0. -1.
          1    1    1    2  502    0 -0.35093769834E+02 -0.82673068607E+02  0.10158119539E+03  0.13559184419E+03  0.00000000000E+00 0. -1.
         22    1    3    3    0    0 -0.36429295782E+02  0.26876121164E+02 -0.47555868038E+02  0.65658054075E+02  0.00000000000E+00 0.  1.
         22    1    3    3    0    0  0.20942299451E+02  0.54869329216E+02 -0.45728637277E+03  0.46104235154E+03  0.00000000000E+00 0.  1.
</event>
<event>
 7    1  0.6122298E-006  0.1111140E+03  0.7818608E-02  0.1367471E+00
          2   -1    0    0  502    0  0.00000000000E+00  0.00000000000E+00  0.14816911965E+04  0.14816911965E+04  0.00000000000E+00 0. -1.
          1   -1    0    0  501    0 -0.00000000000E+00 -0.00000000000E+00 -0.66243308093E+03  0.66243308093E+03  0.00000000000E+00 0. -1.
         25    2    1    2    0    0  0.45549225537E+02  0.67542654157E+02 -0.43383366752E+03  0.45877480054E+03  0.12500369777E+03 0.  0.
          2    1    1    2  501    0 -0.13792272037E+02  0.39101144543E+02 -0.21201102021E+03  0.21602731069E+03  0.00000000000E+00 0. -1.
          1    1    1    2  502    0 -0.31756953500E+02 -0.10664379870E+03  0.14651028033E+04  0.14693221662E+04  0.00000000000E+00 0. -1.
         22    1    3    3    0    0  0.83563198615E+02  0.71906179822E+02 -0.34052392343E+03  0.35792436253E+03  0.00000000000E+00 0. -1.
         22    1    3    3    0    0 -0.38013973078E+02 -0.43635256649E+01 -0.93309744085E+02  0.10085043801E+03  0.00000000000E+00 0. -1.
</event>
<event>
 7    1  0.6122298E-006  0.8481357E+02  0.7818608E-02  0.1431033E+00
          2   -1    0    0  502    0  0.00000000000E+00  0.00000000000E+00  0.79465927950E+03  0.79465927950E+03  0.00000000000E+00 0. -1.
          1   -1    0    0  501    0 -0.00000000000E+00 -0.00000000000E+00 -0.79491297160E+03  0.79491297160E+03  0.00000000000E+00 0. -1.
         25    2    1    2    0    0 -0.41176738326E+02  0.40547276136E+02  0.52700167898E+03  0.54469861035E+03  0.12500480428E+03 0.  0.
          2    1    1    2  501    0  0.73966410647E+02 -0.41754420937E+02 -0.78271766154E+03  0.78731277093E+03  0.00000000000E+00 0. -1.
          1    1    1    2  502    0 -0.32789672322E+02  0.12071448015E+01  0.25546229047E+03  0.25756086982E+03  0.00000000000E+00 0. -1.
         22    1    3    3    0    0  0.29349696111E+02  0.70033120251E+00  0.33532872483E+03  0.33661142111E+03  0.00000000000E+00 0. -1.
         22    1    3    3    0    0 -0.70526434437E+02  0.39846944933E+02  0.19167295415E+03  0.20808718924E+03  0.00000000000E+00 0. -1.
</event>
<event>
 7    1  0.6122298E-006  0.9140635E+02  0.7818608E-02  0.1328046E+00
          2   -1    0    0  502    0  0.00000000000E+00  0.00000000000E+00  0.27367490007E+04  0.27367490007E+04  0.00000000000E+00 0. -1.
          1   -1    0    0  501    0 -0.00000000000E+00 -0.00000000000E+00 -0.44047885364E+03  0.44047885364E+03  0.00000000000E+00 0. -1.
         25    2    1    2    0    0 -0.63725576901E+02 -0.14421938119E+03  0.95141628376E+02  0.22256972185E+03  0.12500069029E+03 0.  0.
          2    1    1    2  501    0  0.47742449415E+02  0.75410673239E+02 -0.37098720268E+03  0.38157255623E+03  0.00000000000E+00 0. -1.
          1    1    1    2  502    0  0.15983127486E+02  0.68808707950E+02  0.25721157213E+04  0.25730855762E+04  0.00000000000E+00 0. -1.
         22    1    3    3    0    0 -0.26888760396E+02 -0.64622071342E+02 -0.24557837087E+02  0.74176174764E+02  0.00000000000E+00 0.  1.
         22    1    3    3    0    0 -0.36836816505E+02 -0.79597309847E+02  0.11969946546E+03  0.14839354709E+03  0.00000000000E+00 0.  1.
</event>
<event>
 7    1  0.6122298E-006  0.7589342E+02  0.7818608E-02  0.1406517E+00
          2   -1    0    0  502    0  0.00000000000E+00  0.00000000000E+00  0.97153557922E+03  0.97153557922E+03  0.00000000000E+00 0. -1.
          1   -1    0    0  501    0 -0.00000000000E+00 -0.00000000000E+00 -0.30166888890E+03  0.30166888890E+03  0.00000000000E+00 0. -1.
         25    2    1    2    0    0  0.84892632609E+02 -0.33810512710E+02  0.23269703599E+02  0.15657632769E+03  0.12499902978E+03 0.  0.
          2    1    1    2  501    0 -0.74975336839E+02 -0.93571638665E+01 -0.22836803851E+03  0.24054275849E+03  0.00000000000E+00 0. -1.
          1    1    1    2  502    0 -0.99172957700E+01  0.43167676577E+02  0.87496502524E+03  0.87608538194E+03  0.00000000000E+00 0. -1.
         22    1    3    3    0    0 -0.57873987234E+01  0.35883865897E+02 -0.95700287781E+01  0.37586317544E+02  0.00000000000E+00 0. -1.
         22    1    3    3    0    0  0.90680031332E+02 -0.69694378607E+02  0.32839732377E+02  0.11899001015E+03  0.00000000000E+00 0. -1.
</event>
<event>
 7    1  0.6122298E-006  0.5454880E+02  0.7818608E-02  0.1447431E+00
          2   -1    0    0  502    0  0.00000000000E+00  0.00000000000E+00  0.55914830215E+03  0.55914830215E+03  0.00000000000E+00 0. -1.
          1   -1    0    0  501    0 -0.00000000000E+00 -0.00000000000E+00 -0.13737056013E+03  0.13737056013E+03  0.00000000000E+00 0. -1.
         25    2    1    2    0    0 -0.20296479899E+02  0.13901354778E+02  0.93335699820E+02  0.15792993018E+03  0.12500046089E+03 0.  0.
          2    1    1    2  501    0 -0.34397421813E+02 -0.29210233284E+02 -0.98258201587E+02  0.10812536490E+03  0.00000000000E+00 0. -1.
          1    1    1    2  502    0  0.54693901713E+02  0.15308878506E+02  0.42670024379E+03  0.43046356721E+03  0.00000000000E+00 0. -1.
         22    1    3    3    0    0 -0.32618225668E+02  0.63878040737E+02  0.33986482805E+02  0.79368972197E+02  0.00000000000E+00 0. -1.
         22    1    3    3    0    0  0.12321745769E+02 -0.49976685959E+02  0.59349217015E+02  0.78560957979E+02  0.00000000000E+00 0. -1.
</event>
<event>
 7    1  0.6122298E-006  0.1100042E+03  0.7818608E-02  0.1282505E+00
          2   -1    0    0  502    0  0.00000000000E+00  0.00000000000E+00  0.11213761134E+04  0.11213761134E+04  0.00000000000E+00 0. -1.
          1   -1    0    0  501    0 -0.00000000000E+00 -0.00000000000E+00 -0.62314528436E+03  0.62314528436E+03  0.00000000000E+00 0. -1.
         25    2    1    2    0    0 -0.63939446886E+02 -0.40862706313E+02  0.20908595153E+03  0.25514457935E+03  0.12499523034E+03 0.  0.
          2    1    1    2  501    0  0.10463531472E+03 -0.38309468340E+02 -0.59268329717E+03  0.60306687457E+03  0.00000000000E+00 0. -1.
          1    1    1    2  502    0 -0.40695867838E+02  0.79172174653E+02  0.88182817471E+03  0.88630994388E+03  0.00000000000E+00 0. -1.
         22    1    3    3    0    0 -0.55014118278E+02 -0.29154884762E+02  0.19868558720E+02  0.65355337510E+02  0.00000000000E+00 0.  1.
         22    1    3    3    0    0 -0.89253286071E+01 -0.11707821551E+02  0.18921739281E+03  0.18978924184E+03  0.00000000000E+00 0.  1.
</event>
<event>
 7    1  0.6122298E-006  0.7434212E+02  0.7818608E-02  0.1382896E+00
          2   -1    0    0  502    0  0.00000000000E+00  0.00000000000E+00  0.29847499568E+03  0.29847499568E+03  0.00000000000E+00 0. -1.
          1   -1    0    0  501    0 -0.00000000000E+00 -0.00000000000E+00 -0.14774868552E+03  0.14774868552E+03  0.00000000000E+00 0. -1.
         25    2    1    2    0    0  0.59074784270E+02 -0.60427380686E+02  0.38686405529E+02  0.15577012941E+03  0.12500558696E+03 0.  0.
          2    1    1    2  501    0 -0.64948694082E+01  0.75127410852E+02 -0.68477857599E+02  0.10186033660E+03  0.00000000000E+00 0. -1.
          1    1    1    2  502    0 -0.52579914862E+02 -0.14700030167E+02  0.18051776223E+03  0.18859321519E+03  0.00000000000E+00 0. -1.
         22    1    3    3    0    0  0.87254498631E+01 -0.12415575094E+02 -0.44680590443E+02  0.47187234954E+02  0.00000000000E+00 0. -1.
         22    1    3    3    0    0  0.50349334407E+02 -0.48011805592E+02  0.83366995972E+02  0.10858289446E+03  0.00000000000E+00 0. -1.
</event>
<event>
 7    1  0.6122298E-006  0.5624861E+02  0.7818608E-02  0.1514265E+00
          2   -1    0    0  502    0  0.00000000000E+00  0.00000000000E+00  0.21632477237E+03  0.21632477237E+03  0.00000000000E+00 0. -1.
          1   -1    0    0  501    0 -0.00000000000E+00 -0.00000000000E+00 -0.18206271986E+03  0.18206271986E+03  0.00000000000E+00 0. -1.
         25    2    1    2    0    0 -0.74311936229E+02 -0.46994593410E+01 -0.74145151989E+02  0.16329602804E+03  0.12499496161E+03 0.  0.
          2    1    1    2  501    0  0.49597691765E+02  0.16305225648E+02 -0.51224289990E+02  0.73141775319E+02  0.00000000000E+00 0. -1.
          1    1    1    2  502    0  0.24714244464E+02 -0.11605766307E+02  0.15963149449E+03  0.16194968887E+03  0.00000000000E+00 0. -1.
         22    1    3    3    0    0 -0.27468149152E+02 -0.95493833571E+01 -0.10369711570E+03  0.10769764039E+03  0.00000000000E+00 0. -1.
         22    1    3    3    0    0 -0.46843787077E+02  0.48499240161E+01  0.29551963713E+02  0.55598387656E+02  0.00000000000E+00 0. -1.
</event>
<event>
 7    1  0.6122298E-006  0.1921779E+03  0.7818608E-02  0.1331798E+00
          2   -1    0    0  502    0  0.00000000000E+00  0.00000000000E+00  0.12825372957E+04  0.12825372957E+04  0.00000000000E+00 0. -1.
          1   -1    0    0  501    0 -0.00000000000E+00 -0.00000000000E+00 -0.65705117777E+02  0.65705117777E+02  0.00000000000E+00 0. -1.
         25    2    1    2    0    0 -0.11813499078E+03 -0.12983350302E+03  0.62477833817E+03  0.66089797713E+03  0.12500219907E+03 0.  0.
          2    1    1    2  501    0 -0.23522932952E+02 -0.22437526566E+02 -0.21850164424E+02  0.39168873591E+02  0.00000000000E+00 0. -1.
          1    1    1    2  502    0  0.14165792373E+03  0.15227102959E+03  0.61390400416E+03  0.64817556274E+03  0.00000000000E+00 0. -1.
         22    1    3    3    0    0 -0.61490072380E+02 -0.44906925539E+02  0.46568796615E+03  0.47187174399E+03  0.00000000000E+00 0.  1.
         22    1    3    3    0    0 -0.56644918401E+02 -0.84926577485E+02  0.15909037202E+03  0.18902623313E+03  0.00000000000E+00 0.  1.
</event>
<event>
 7    1  0.6122298E-006  0.6663828E+02  0.7818608E-02  0.1416175E+00
          2   -1    0    0  502    0  0.00000000000E+00  0.00000000000E+00  0.24754349573E+03  0.24754349573E+03  0.00000000000E+00 0. -1.
          1   -1    0    0  501    0 -0.00000000000E+00 -0.00000000000E+00 -0.12484649757E+04  0.12484649757E+04  0.00000000000E+00 0. -1.
         25    2    1    2    0    0 -0.11436989446E+02  0.64197658314E+02 -0.44292669876E+03  0.46482565070E+03  0.12500672387E+03 0.  0.
          2    1    1    2  501    0 -0.35078576394E+02 -0.59147377583E+02 -0.79076864705E+03  0.79375309257E+03  0.00000000000E+00 0. -1.
          1    1    1    2  502    0  0.46515565840E+02 -0.50502807311E+01  0.23277386584E+03  0.23742972817E+03  0.00000000000E+00 0. -1.
         22    1    3    3    0    0 -0.30001309186E+02  0.61695907480E+01 -0.36317938116E+03  0.36446866162E+03  0.00000000000E+00 0.  1.
         22    1    3    3    0    0  0.18564319741E+02  0.58028067566E+02 -0.79747317600E+02  0.10035698908E+03  0.00000000000E+00 0.  1.
</event>
<event>
 7    1  0.6122298E-006  0.7749163E+02  0.7818608E-02  0.1339692E+00
          2   -1    0    0  502    0  0.00000000000E+00  0.00000000000E+00  0.77152181182E+03  0.77152181182E+03  0.00000000000E+00 0. -1.
          1   -1    0    0  501    0 -0.00000000000E+00 -0.00000000000E+00 -0.60499609973E+03  0.60499609973E+03  0.00000000000E+00 0. -1.
         25    2    1    2    0    0 -0.96039228197E+02  0.11789131694E+03  0.27229956270E+03  0.33599743692E+03  0.12500131922E+03 0.  0.
          2    1    1    2  501    0  0.46939799983E+02 -0.60857668060E+02 -0.56751046783E+03  0.57269113113E+03  0.00000000000E+00 0. -1.
          1    1    1    2  502    0  0.49099428214E+02 -0.57033648875E+02  0.46173661723E+03  0.46782934350E+03  0.00000000000E+00 0. -1.
         22    1    3    3    0    0 -0.24079116505E+02  0.69353982271E+02  0.31237355226E+02  0.79784403677E+02  0.00000000000E+00 0. -1.
         22    1    3    3    0    0 -0.71960111692E+02  0.48537334665E+02  0.24106220747E+03  0.25621303324E+03  0.00000000000E+00 0. -1.
</event>
<event>
 7    1  0.6122298E-006  0.7997207E+02  0.7818608E-02  0.1462894E+00
          2   -1    0    0  502    0  0.00000000000E+00  0.00000000000E+00  0.28582753523E+03  0.28582753523E+03  0.00000000000E+00 0. -1.
          1   -1    0    0  501    0 -0.00000000000E+00 -0.00000000000E+00 -0.12278270203E+04  0.12278270203E+04  0.00000000000E+00 0. -1.
         25    2    1    2    0    0 -0.65719065309E+02  0.78542024810E+02  0.18761073001E+03  0.24760962265E+03  0.12499957602E+03 0.  0.
          2    1    1    2  501    0  0.61056140291E+02 -0.51450964479E+02 -0.11936693216E+04  0.11963367014E+04  0.00000000000E+00 0. -1.
          1    1    1    2  502    0  0.46629250181E+01 -0.27091060331E+02  0.64059106429E+02  0.69708231480E+02  0.00000000000E+00 0. -1.
         22    1    3    3    0    0  0.20712710879E+02  0.55781272385E+01  0.10595340693E+03  0.10810298948E+03  0.00000000000E+00 0. -1.
         22    1    3    3    0    0 -0.86431776188E+02  0.72963897571E+02  0.81657323082E+02  0.13950663316E+03  0.00000000000E+00 0. -1.
</event>
<event>
 7    1  0.6122298E-006  0.2987088E+03  0.7818608E-02  0.1267184E+00
          2   -1    0    0  502    0  0.00000000000E+00  0.00000000000E+00  0.86196813512E+03  0.86196813512E+03  0.00000000000E+00 0. -1.
          1   -1    0    0  501    0 -0.00000000000E+00 -0.00000000000E+00 -0.22005943221E+04  0.22005943221E+04  0.00000000000E+00 0. -1.
         25    2    1    2    0    0 -0.39856773036E+02 -0.32244537431E+03  0.17043053641E+03  0.38759726235E+03  0.12500195306E+03 0.  0.
          2    1    1    2  501    0 -0.99309283916E+01  0.36652204412E+02 -0.20557342031E+04  0.20560849012E+04  0.00000000000E+00 0. -1.
          1    1    1    2  502    0  0.49787701428E+02  0.28579316989E+03  0.54667747964E+03  0.61888029369E+03  0.00000000000E+00 0. -1.
         22    1    3    3    0    0  0.39724044494E+02 -0.11990918098E+03  0.92061301534E+02  0.15630577287E+03  0.00000000000E+00 0.  1.
         22    1    3    3    0    0 -0.79580817531E+02 -0.20253619333E+03  0.78369234878E+02  0.23129148947E+03  0.00000000000E+00 0.  1.
</event>
<event>
 7    1  0.6122298E-006  0.4186116E+02  0.7818608E-02  0.1553920E+00
          2   -1    0    0  502    0  0.00000000000E+00  0.00000000000E+00  0.50888866958E+03  0.50888866958E+03  0.00000000000E+00 0. -1.
          1   -1    0    0  501    0 -0.00000000000E+00 -0.00000000000E+00 -0.14242061306E+04  0.14242061306E+04  0.00000000000E+00 0. -1.
         25    2    1    2    0    0 -0.15182920209E+02 -0.51185156406E+02 -0.71767963818E+03  0.73043785217E+03  0.12499980604E+03 0.  0.
          2    1    1    2  501    0  0.26143339124E+02  0.10788802004E+02 -0.69898930100E+03  0.69956123058E+03  0.00000000000E+00 0. -1.
          1    1    1    2  502    0 -0.10960418915E+02  0.40396354402E+02  0.50135147817E+03  0.50309571743E+03  0.00000000000E+00 0. -1.
         22    1    3    3    0    0 -0.60481161487E+02 -0.19105149193E+02 -0.55364223522E+03  0.55726358416E+03  0.00000000000E+00 0.  1.
         22    1    3    3    0    0  0.45298241278E+02 -0.32080007213E+02 -0.16403740297E+03  0.17317426800E+03  0.00000000000E+00 0.  1.
</event>
<event>
 7    1  0.6122298E-006  0.2829851E+03  0.7818608E-02  0.1176930E+00
          2   -1    0    0  502    0  0.00000000000E+00  0.00000000000E+00  0.27435523965E+04  0.27435523965E+04  0.00000000000E+00 0. -1.
          1   -1    0    0  501    0 -0.00000000000E+00 -0.00000000000E+00 -0.25069777357E+03  0.25069777357E+03  0.00000000000E+00 0. -1.
         25    2    1    2    0    0  0.24492877407E+03 -0.12600400245E+03 -0.23524647120E+02  0.30338750531E+03  0.12499382527E+03 0.  0.
          2    1    1    2  501    0 -0.56235128678E+02 -0.86519266142E+02 -0.45852050832E+02  0.11291759684E+03  0.00000000000E+00 0. -1.
          1    1    1    2  502    0 -0.18869364539E+03  0.21252326859E+03  0.25622313208E+04  0.25779450679E+04  0.00000000000E+00 0. -1.
         22    1    3    3    0    0  0.18824988470E+03 -0.50792394775E+02  0.26458210850E+02  0.19676870528E+03  0.00000000000E+00 0. -1.
         22    1    3    3    0    0  0.56678889367E+02 -0.75211607670E+02 -0.49982857970E+02  0.10661880003E+03  0.00000000000E+00 0. -1.
</event>
<event>
 7    1  0.6122298E-006  0.4408399E+02  0.7818608E-02  0.1527059E+00
          2   -1    0    0  502    0  0.00000000000E+00  0.00000000000E+00  0.10317335890E+04  0.10317335890E+04  0.00000000000E+00 0. -1.
          1   -1    0    0  501    0 -0.00000000000E+00 -0.00000000000E+00 -0.64776266683E+03  0.64776266683E+03  0.00000000000E+00 0. -1.
         25    2    1    2    0    0 -0.51693803372E+02  0.10204110058E+02 -0.11295524765E+02  0.13612027718E+03  0.12499907124E+03 0.  0.
          2    1    1    2  501    0  0.12094544530E+02 -0.29608829350E+02 -0.57310709939E+03  0.57399887470E+03  0.00000000000E+00 0. -1.
          1    1    1    2  502    0  0.39599258841E+02  0.19404719292E+02  0.96837354637E+03  0.96937710399E+03  0.00000000000E+00 0. -1.
         22    1    3    3    0    0 -0.84928535509E+02  0.11357901162E+02 -0.37744834842E+02  0.93629752855E+02  0.00000000000E+00 0.  1.
         22    1    3    3    0    0  0.33234732137E+02 -0.11537911038E+01  0.26449310076E+02  0.42490524328E+02  0.00000000000E+00 0.  1.
</event>
<event>
 7    1  0.8727243E-006  0.7249959E+02  0.7818608E-02  0.1403735E+00
          2   -1    0    0  502    0  0.00000000000E+00  0.00000000000E+00  0.11512605565E+04  0.11512605565E+04  0.00000000000E+00 0. -1.
          1   -1    0    0  501    0 -0.00000000000E+00 -0.00000000000E+00 -0.86704186049E+03  0.86704186049E+03  0.00000000000E+00 0. -1.
         25    2    1    2    0    0  0.79001019294E+02 -0.38038429865E+02 -0.33466365812E+03  0.36784987715E+03  0.12500273938E+03 0.  0.
          2    1    1    2  501    0 -0.41028902913E+02 -0.23716492916E+02 -0.51353502127E+03  0.51571703576E+03  0.00000000000E+00 0. -1.
          1    1    1    2  502    0 -0.37972116380E+02  0.61754922781E+02  0.11324173754E+04  0.11347355041E+04  0.00000000000E+00 0. -1.
         22    1    3    3    0    0  0.10321649231E+03  0.49648931662E+01 -0.22631999132E+03  0.24879516258E+03  0.00000000000E+00 0. -1.
         22    1    3    3    0    0 -0.24215473021E+02 -0.43003323031E+02 -0.10834366680E+03  0.11905471457E+03  0.00000000000E+00 0. -1.
</event>
<event>
 7    1  0.6122298E-006  0.7500012E+02  0.7818608E-02  0.1364578E+00
          2   -1    0    0  502    0  0.00000000000E+00  0.00000000000E+00  0.12967970083E+04  0.12967970083E+04  0.00000000000E+00 0. -1.
          1   -1    0    0  501    0 -0.00000000000E+00 -0.00000000000E+00 -0.68065681362E+03  0.68065681362E+03  0.00000000000E+00 0. -1.
         25    2    1    2    0    0 -0.25231181960E+02 -0.13404389868E+03  0.43744387985E+02  0.19011020931E+03  0.12499576349E+03 0.  0.
          2    1    1    2  501    0  0.17639497475E+02  0.60402385189E+02 -0.60467833851E+03  0.60794365945E+03  0.00000000000E+00 0. -1.
          1    1    1    2  502    0  0.75916844852E+01  0.73641513487E+02  0.11770741453E+04  0.11793999532E+04  0.00000000000E+00 0. -1.
         22    1    3    3    0    0  0.41617834143E+02 -0.76769808199E+02 -0.85124622690E+01  0.87738871565E+02  0.00000000000E+00 0.  1.
         22    1    3    3    0    0 -0.66849016103E+02 -0.57274090477E+02  0.52256850254E+02  0.10237133775E+03  0.00000000000E+00 0.  1.
</event>
<event>
 7    1  0.6122298E-006  0.1037888E+03  0.7818608E-02  0.1359005E+00
          2   -1    0    0  502    0  0.00000000000E+00  0.00000000000E+00  0.37568803727E+03  0.37568803727E+03  0.00000000000E+00 0. -1.
          1   -1    0    0  501    0 -0.00000000000E+00 -0.00000000000E+00 -0.21450339465E+04  0.21450339465E+04  0.00000000000E+00 0. -1.
         25    2    1    2    0    0  0.84568963342E+02  0.91243562174E+01 -0.28470893494E+03  0.32236503902E+03  0.12499950924E+03 0.  0.
          2    1    1    2  501    0 -0.89648655218E+02 -0.56497941628E+02 -0.18383740808E+04  0.18414255782E+04  0.00000000000E+00 0. -1.
          1    1    1    2  502    0  0.50796918767E+01  0.47373585411E+02  0.35373710658E+03  0.35693136657E+03  0.00000000000E+00 0. -1.
         22    1    3    3    0    0  0.65937103943E+02  0.27725127090E+02 -0.28714983679E+03  0.29592467473E+03  0.00000000000E+00 0. -1.
         22    1    3    3    0    0  0.18631859399E+02 -0.18600770872E+02  0.24409018504E+01  0.26440364285E+02  0.00000000000E+00 0. -1.
</event>
<event>
 7    1  0.6122298E-006  0.6227664E+02  0.7818608E-02  0.1453619E+00
          2   -1    0    0  502    0  0.00000000000E+00  0.00000000000E+00  0.45712127967E+03  0.45712127967E+03  0.00000000000E+00 0. -1.
          1   -1    0    0  501    0 -0.00000000000E+00 -0.00000000000E+00 -0.95324315269E+02  0.95324315269E+02  0.00000000000E+00 0. -1.
         25    2    1    2    0    0 -0.67945676786E+02 -0.31428723868E+02  0.44728305313E+02  0.15241117196E+03  0.12499665741E+03 0.  0.
          2    1    1    2  501    0  0.35121196998E+02  0.50107100112E+02 -0.17261323509E+02  0.63578087809E+02  0.00000000000E+00 0. -1.
          1    1    1    2  502    0  0.32824479789E+02 -0.18678376244E+02  0.33432998260E+03  0.33645633517E+03  0.00000000000E+00 0. -1.
         22    1    3    3    0    0 -0.26275762332E+02 -0.63871852192E+01  0.85053155821E+02  0.89248255649E+02  0.00000000000E+00 0.  1.
         22    1    3    3    0    0 -0.41669914454E+02 -0.25041538649E+02 -0.40324850508E+02  0.63162916312E+02  0.00000000000E+00 0.  1.
</event>
<event>
 7    1  0.6122298E-006  0.6399610E+02  0.7818608E-02  0.1393570E+00
          2   -1    0    0  502    0  0.00000000000E+00  0.00000000000E+00  0.30719979774E+04  0.30719979774E+04  0.00000000000E+00 0. -1.
          1   -1    0    0  501    0 -0.00000000000E+00 -0.00000000000E+00 -0.40506227516E+03  0.40506227516E+03  0.00000000000E+00 0. -1.
         25    2    1    2    0    0  0.32384531785E+02 -0.37463054825E+02  0.59950813895E+03  0.61440016912E+03  0.12500128310E+03 0.  0.
          2    1    1    2  501    0  0.32999458337E+02  0.47936124924E+02 -0.39503933288E+03  0.39930303135E+03  0.00000000000E+00 0. -1.
          1    1    1    2  502    0 -0.65383990122E+02 -0.10473070099E+02  0.24624668962E+04  0.24633570521E+04  0.00000000000E+00 0. -1.
         22    1    3    3    0    0  0.47955756526E+02 -0.76544030488E+02  0.35571431320E+03  0.36700329126E+03  0.00000000000E+00 0.  1.
         22    1    3    3    0    0 -0.15571224740E+02  0.39080975663E+02  0.24379382575E+03  0.24739687786E+03  0.00000000000E+00 0.  1.
</event>
<event>
 7    1  0.6122298E-006  0.3919071E+02  0.7818608E-02  0.1540611E+00
          2   -1    0    0  502    0  0.00000000000E+00  0.00000000000E+00  0.11395885993E+04  0.11395885993E+04  0.00000000000E+00 0. -1.
          1   -1    0    0  501    0 -0.00000000000E+00 -0.00000000000E+00 -0.10372240081E+03  0.10372240081E+03  0.00000000000E+00 0. -1.
         25    2    1    2    0    0  0.17354797821E+02  0.25070658699E+02  0.83315136549E+03  0.84302851440E+03  0.12500460522E+03 0.  0.
          2    1    1    2  501    0  0.27124260363E+02 -0.18646645112E+02 -0.94303869189E+02  0.99883144815E+02  0.00000000000E+00 0. -1.
          1    1    1    2  502    0 -0.44479058184E+02 -0.64240135868E+01  0.29701870222E+03  0.30039934094E+03  0.00000000000E+00 0. -1.
         22    1    3    3    0    0  0.21935983305E+02  0.56289288252E+02  0.77064867927E+03  0.77301297414E+03  0.00000000000E+00 0.  1.
         22    1    3    3    0    0 -0.45811854831E+01 -0.31218629553E+02  0.62502686225E+02  0.70015540253E+02  0.00000000000E+00 0.  1.
</event>
<event>
 7    1  0.6122298E-006  0.1357498E+03  0.7818608E-02  0.1264280E+00
          2   -1    0    0  502    0  0.00000000000E+00  0.00000000000E+00  0.90046955853E+03  0.90046955853E+03  0.00000000000E+00 0. -1.
          1   -1    0    0  501    0 -0.00000000000E+00 -0.00000000000E+00 -0.10350264114E+04  0.10350264114E+04  0.00000000000E+00 0. -1.
         25    2    1    2    0    0  0.11417783968E+03 -0.12602184643E+03  0.84589339992E+02  0.22737914830E+03  0.12501134265E+03 0.  0.
          2    1    1    2  501    0 -0.12890955596E+03  0.41338352706E+02 -0.95636760263E+03  0.96590140511E+03  0.00000000000E+00 0. -1.
          1    1    1    2  502    0  0.14731716272E+02  0.84683493725E+02  0.73722140975E+03  0.74221541655E+03  0.00000000000E+00 0. -1.
         22    1    3    3    0    0  0.94309717231E+02 -0.14370533063E+03  0.97712283755E+02  0.19772009309E+03  0.00000000000E+00 0.  1.
         22    1    3    3    0    0  0.19868122453E+02  0.17683484197E+02 -0.13122943764E+02  0.29659055214E+02  0.00000000000E+00 0.  1.
</event>
<event>
 7    1  0.6122298E-006  0.1267532E+03  0.7818608E-02  0.1288263E+00
          2   -1    0    0  502    0  0.00000000000E+00  0.00000000000E+00  0.30182755936E+03  0.30182755936E+03  0.00000000000E+00 0. -1.
          1   -1    0    0  501    0 -0.00000000000E+00 -0.00000000000E+00 -0.29992131117E+03  0.29992131117E+03  0.00000000000E+00 0. -1.
         25    2    1    2    0    0  0.10568944365E+03 -0.47901731980E+02  0.67617035534E+02  0.18347122511E+03  0.12499917009E+03 0.  0.
          2    1    1    2  501    0 -0.69000154419E+02  0.11121022656E+03 -0.21518211177E+03  0.25185725526E+03  0.00000000000E+00 0. -1.
          1    1    1    2  502    0 -0.36689289233E+02 -0.63308494581E+02  0.14947132444E+03  0.16642039015E+03  0.00000000000E+00 0. -1.
         22    1    3    3    0    0  0.19800497080E+02  0.24795609469E+02  0.63365094167E+02  0.70866191462E+02  0.00000000000E+00 0.  1.
         22    1    3    3    0    0  0.85888946572E+02 -0.72697341449E+02  0.42519413670E+01  0.11260503365E+03  0.00000000000E+00 0.  1.
</event>
<event>
 7    1  0.6122298E-006  0.8545124E+02  0.7818608E-02  0.1398842E+00
          2   -1    0    0  502    0  0.00000000000E+00  0.00000000000E+00  0.43950928338E+03  0.43950928338E+03  0.00000000000E+00 0. -1.
          1   -1    0    0  501    0 -0.00000000000E+00 -0.00000000000E+00 -0.89766087267E+03  0.89766087267E+03  0.00000000000E+00 0. -1.
         25    2    1    2    0    0 -0.26043047580E+02 -0.12101781885E+03 -0.10074586455E+03  0.20272659332E+03  0.12499915844E+03 0.  0.
          2    1    1    2  501    0 -0.26148024361E+01  0.41710912297E+02 -0.74075306566E+03  0.74193108958E+03  0.00000000000E+00 0. -1.
          1    1    1    2  502    0  0.28657850016E+02  0.79306906551E+02  0.38334734092E+03  0.39251247315E+03  0.00000000000E+00 0. -1.
         22    1    3    3    0    0 -0.29593357833E+02 -0.71173683746E+02  0.13294154249E+02  0.78218889170E+02  0.00000000000E+00 0.  1.
         22    1    3    3    0    0  0.35503102526E+01 -0.49844135102E+02 -0.11404001879E+03  0.12450770415E+03  0.00000000000E+00 0.  1.
</event>
<event>
 7    1  0.6122298E-006  0.9677553E+02  0.7818608E-02  0.1385674E+00
          2   -1    0    0  502    0  0.00000000000E+00  0.00000000000E+00  0.10015618937E+04  0.10015618937E+04  0.00000000000E+00 0. -1.
          1   -1    0    0  501    0 -0.00000000000E+00 -0.00000000000E+00 -0.38162274555E+03  0.38162274555E+03  0.00000000000E+00 0. -1.
         25    2    1    2    0    0 -0.60542413191E+02 -0.79322702371E+02 -0.27550339223E+03  0.31856700713E+03  0.12500137595E+03 0.  0.
          2    1    1    2  501    0  0.38208905608E+02 -0.14886778433E+02 -0.77068514670E+02  0.87298869370E+02  0.00000000000E+00 0. -1.
          1    1    1    2  502    0  0.22333507583E+02  0.94209480804E+02  0.97251105508E+03  0.97731876279E+03  0.00000000000E+00 0. -1.
         22    1    3    3    0    0 -0.25863597369E+02  0.27960292896E+02 -0.12397397624E+03  0.12969290818E+03  0.00000000000E+00 0.  1.
         22    1    3    3    0    0 -0.34678815821E+02 -0.10728299527E+03 -0.15152941599E+03  0.18887409894E+03  0.00000000000E+00 0.  1.
</event>
<event>
 7    1  0.6122298E-006  0.5070151E+02  0.7818608E-02  0.1536917E+00
          2   -1    0    0  502    0  0.00000000000E+00  0.00000000000E+00  0.90886576514E+03  0.90886576514E+03  0.00000000000E+00 0. -1.
          1   -1    0    0  501    0 -0.00000000000E+00 -0.00000000000E+00 -0.42260510508E+03  0.42260510508E+03  0.00000000000E+00 0. -1.
         25    2    1    2    0    0  0.95978858095E+01  0.29695392104E+02  0.31654816041E+03  0.34176106953E+03  0.12499582016E+03 0.  0.
          2    1    1    2  501    0  0.61929929379E+01 -0.50429822585E+02 -0.40812968699E+03  0.41128014974E+03  0.00000000000E+00 0. -1.
          1    1    1    2  502    0 -0.15790878747E+02  0.20734430482E+02  0.57784218664E+03  0.57842965096E+03  0.00000000000E+00 0. -1.
         22    1    3    3    0    0  0.35424366423E+02 -0.36979785621E+02  0.18592476826E+03  0.19284815201E+03  0.00000000000E+00 0.  1.
         22    1    3    3    0    0 -0.25826480614E+02  0.66675177724E+02  0.13062339215E+03  0.14891291751E+03  0.00000000000E+00 0.  1.
</event>
<event>
 7    1  0.6122298E-006  0.9258644E+02  0.7818608E-02  0.1430177E+00
          2   -1    0    0  502    0  0.00000000000E+00  0.00000000000E+00  0.15659660448E+04  0.15659660448E+04  0.00000000000E+00 0. -1.
          1   -1    0    0  501    0 -0.00000000000E+00 -0.00000000000E+00 -0.23702388107E+03  0.23702388107E+03  0.00000000000E+00 0. -1.
         25    2    1    2    0    0  0.15219100258E+02  0.77448040381E+02  0.71032256820E+03  0.72554288376E+03  0.12499802123E+03 0.  0.
          2    1    1    2  501    0  0.11230204717E+02 -0.92133736570E+02 -0.21974192961E+03  0.23853984686E+03  0.00000000000E+00 0. -1.
          1    1    1    2  502    0 -0.26449304975E+02  0.14685696188E+02  0.83836152513E+03  0.83890719524E+03  0.00000000000E+00 0. -1.
         22    1    3    3    0    0 -0.16588615324E+02  0.17271869463E+01  0.81133585269E+01  0.18547019159E+02  0.00000000000E+00 0.  1.
         22    1    3    3    0    0  0.31807715581E+02  0.75720853435E+02  0.70220920967E+03  0.70699586460E+03  0.00000000000E+00 0.  1.
</event>
<event>
 7    1  0.6122298E-006  0.4511949E+02  0.7818608E-02  0.1511297E+00
          2   -1    0    0  502    0  0.00000000000E+00  0.00000000000E+00  0.19654770588E+04  0.19654770588E+04  0.00000000000E+00 0. -1.
          1   -1    0    0  501    0 -0.00000000000E+00 -0.00000000000E+00 -0.28954343540E+02  0.28954343540E+02  0.00000000000E+00 0. -1.
         25    2    1    2    0    0  0.29718896514E+02 -0.40341333655E+02  0.27902106813E+03  0.30981987869E+03  0.12499985905E+03 0.  0.
          2    1    1    2  501    0  0.14681226487E+02  0.31471297693E+02  0.95206587332E+01  0.36008664685E+02  0.00000000000E+00 0. -1.
          1    1    1    2  502    0 -0.44400123001E+02  0.88700359617E+01  0.16479809884E+04  0.16486028589E+04  0.00000000000E+00 0. -1.
         22    1    3    3    0    0  0.70929450517E+02  0.50313213167E+00  0.10787266581E+03  0.12910364875E+03  0.00000000000E+00 0. -1.
         22    1    3    3    0    0 -0.41210554004E+02 -0.40844465787E+02  0.17114840232E+03  0.18071622994E+03  0.00000000000E+00 0. -1.
</event>
<event>
 7    1  0.6122298E-006  0.5407390E+02  0.7818608E-02  0.1448004E+00
          2   -1    0    0  502    0  0.00000000000E+00  0.00000000000E+00  0.11507660718E+03  0.11507660718E+03  0.00000000000E+00 0. -1.
          1   -1    0    0  501    0 -0.00000000000E+00 -0.00000000000E+00 -0.12893638682E+03  0.12893638682E+03  0.00000000000E+00 0. -1.
         25    2    1    2    0    0 -0.13398164639E+02 -0.19849237687E+02 -0.57220924943E+01  0.12740174358E+03  0.12499983549E+03 0.  0.
          2    1    1    2  501    0  0.54386157883E+02  0.39210307030E+02 -0.19601401132E+02  0.69853541593E+02  0.00000000000E+00 0. -1.
          1    1    1    2  502    0 -0.40987993245E+02 -0.19361069343E+02  0.11463713982E+02  0.46757708825E+02  0.00000000000E+00 0. -1.
         22    1    3    3    0    0 -0.40506231412E+02  0.16460669434E+02 -0.48351110409E+02  0.65188482873E+02  0.00000000000E+00 0. -1.
         22    1    3    3    0    0  0.27108066774E+02 -0.36309907121E+02  0.42629017915E+02  0.62213260707E+02  0.00000000000E+00 0. -1.
</event>
<event>
 7    1  0.6122298E-006  0.6634815E+02  0.7818608E-02  0.1397733E+00
          2   -1    0    0  502    0  0.00000000000E+00  0.00000000000E+00  0.15669442914E+03  0.15669442914E+03  0.00000000000E+00 0. -1.
          1   -1    0    0  501    0 -0.00000000000E+00 -0.00000000000E+00 -0.51392161825E+03  0.51392161825E+03  0.00000000000E+00 0. -1.
         25    2    1    2    0    0 -0.10617279400E+03  0.30023175102E+02 -0.12535971523E+03  0.20860153376E+03  0.12500195382E+03 0.  0.
          2    1    1    2  501    0  0.42057116947E+02 -0.34349650430E+02 -0.33561373506E+03  0.33997835038E+03  0.00000000000E+00 0. -1.
          1    1    1    2  502    0  0.64115677052E+02  0.43264753281E+01  0.10374626117E+03  0.12203616324E+03  0.00000000000E+00 0. -1.
         22    1    3    3    0    0 -0.87098602911E+02 -0.30949560298E+02 -0.10848514964E+03  0.14252392642E+03  0.00000000000E+00 0. -1.
         22    1    3    3    0    0 -0.19074191088E+02  0.60972735400E+02 -0.16874565590E+02  0.66077607339E+02  0.00000000000E+00 0. -1.
</event>
<event>
 7    1  0.7472206E-006  0.1551314E+03  0.7818608E-02  0.1321570E+00
          2   -1    0    0  502    0  0.00000000000E+00  0.00000000000E+00  0.22655210611E+04  0.22655210611E+04  0.00000000000E+00 0. -1.
          1   -1    0    0  501    0 -0.00000000000E+00 -0.00000000000E+00 -0.84023320472E+03  0.84023320472E+03  0.00000000000E+00 0. -1.
         25    2    1    2    0    0  0.83038913676E+02  0.16109870271E+03 -0.41415712519E+03  0.46904237826E+03  0.12500550010E+03 0.  0.
          2    1    1    2  501    0  0.15341938189E+02 -0.41326872045E+02 -0.39472143817E+03  0.39717540102E+03  0.00000000000E+00 0. -1.
          1    1    1    2  502    0 -0.98380851864E+02 -0.11977183066E+03  0.22341664198E+04  0.22395364866E+04  0.00000000000E+00 0. -1.
         22    1    3    3    0    0  0.72475949891E+02  0.10556077365E+03 -0.14255435476E+03  0.19161832978E+03  0.00000000000E+00 0. -1.
         22    1    3    3    0    0  0.10562963784E+02  0.55537929055E+02 -0.27160277043E+03  0.27742404847E+03  0.00000000000E+00 0. -1.
</event>
<event>
 7    1  0.6122298E-006  0.1011704E+03  0.7818608E-02  0.1416433E+00
          2   -1    0    0  502    0  0.00000000000E+00  0.00000000000E+00  0.38592708342E+03  0.38592708342E+03  0.00000000000E+00 0. -1.
          1   -1    0    0  501    0 -0.00000000000E+00 -0.00000000000E+00 -0.39183418385E+03  0.39183418385E+03  0.00000000000E+00 0. -1.
         25    2    1    2    0    0 -0.69172773791E+01  0.13016729769E+03 -0.82583438704E+02  0.19858523310E+03  0.12499878535E+03 0.  0.
          2    1    1    2  501    0  0.12965985910E+01 -0.30729933813E+02 -0.24269458842E+03  0.24463579715E+03  0.00000000000E+00 0. -1.
          1    1    1    2  502    0  0.56206787881E+01 -0.99437363882E+02  0.31937092670E+03  0.33454023702E+03  0.00000000000E+00 0. -1.
         22    1    3    3    0    0 -0.51156350298E+02  0.12610970861E+03 -0.59632572314E+02  0.14858221449E+03  0.00000000000E+00 0. -1.
         22    1    3    3    0    0  0.44239072918E+02  0.40575890860E+01 -0.22950866390E+02  0.50003018608E+02  0.00000000000E+00 0. -1.
</event>
<event>
 7    1  0.6122298E-006  0.7401142E+02  0.7818608E-02  0.1385764E+00
          2   -1    0    0  502    0  0.00000000000E+00  0.00000000000E+00  0.72266307607E+02  0.72266307607E+02  0.00000000000E+00 0. -1.
          1   -1    0    0  501    0 -0.00000000000E+00 -0.00000000000E+00 -0.94121206216E+03  0.94121206216E+03  0.00000000000E+00 0. -1.
         25    2    1    2    0    0 -0.51145568277E+02  0.85599369076E+02 -0.13275499891E+03  0.20782441874E+03  0.12499591252E+03 0.  0.
          2    1    1    2  501    0 -0.10373919404E+01 -0.73442670565E+02 -0.74732768614E+03  0.75092847363E+03  0.00000000000E+00 0. -1.
          1    1    1    2  502    0  0.52182960217E+02 -0.12156698511E+02  0.11136930497E+02  0.54725477400E+02  0.00000000000E+00 0. -1.
         22    1    3    3    0    0  0.15145522999E+02 -0.24914481306E+02 -0.37851032245E+02  0.47778853980E+02  0.00000000000E+00 0.  1.
         22    1    3    3    0    0 -0.66291091276E+02  0.11051385038E+03 -0.94903966668E+02  0.16004556476E+03  0.00000000000E+00 0.  1.
</event>
<event>
 7    1  0.6122298E-006  0.3586357E+02  0.7818608E-02  0.1602477E+00
          2   -1    0    0  502    0  0.00000000000E+00  0.00000000000E+00  0.23928065459E+04  0.23928065459E+04  0.00000000000E+00 0. -1.
          1   -1    0    0  501    0 -0.00000000000E+00 -0.00000000000E+00 -0.74703224515E+01  0.74703224515E+01  0.00000000000E+00 0. -1.
         25    2    1    2    0    0  0.11231700655E+02  0.37754593846E+02  0.75848679927E+03  0.76972626902E+03  0.12499897639E+03 0.  0.
          2    1    1    2  501    0 -0.24094583297E+02 -0.41034766124E+01  0.89449472452E+02  0.92728612556E+02  0.00000000000E+00 0. -1.
          1    1    1    2  502    0  0.12862882642E+02 -0.33651117233E+02  0.15373999517E+04  0.15378219867E+04  0.00000000000E+00 0. -1.
         22    1    3    3    0    0  0.33068736643E+02 -0.62775182840E+01  0.54707607448E+02  0.64232942417E+02  0.00000000000E+00 0. -1.
         22    1    3    3    0    0 -0.21837035988E+02  0.44032112130E+02  0.70377919182E+03  0.70549332660E+03  0.00000000000E+00 0. -1.
</event>
<event>
 7    1  0.6122298E-006  0.8426777E+02  0.7818608E-02  0.1413220E+00
          2   -1    0    0  502    0  0.00000000000E+00  0.00000000000E+00  0.22298149507E+04  0.22298149507E+04  0.00000000000E+00 0. -1.
          1   -1    0    0  501    0 -0.00000000000E+00 -0.00000000000E+00 -0.39813942772E+02  0.39813942772E+02  0.00000000000E+00 0. -1.
         25    2    1    2    0    0 -0.50488885982E+02  0.91996532173E+02  0.11952923598E+04  0.12063834097E+04  0.12499846433E+03 0.  0.
          2    1    1    2  501    0  0.13851410209E+02 -0.82463638510E+02  0.17659608653E+02  0.85463296326E+02  0.00000000000E+00 0. -1.
          1    1    1    2  502    0  0.36637475773E+02 -0.95328936630E+01  0.97704903944E+03  0.97778218749E+03  0.00000000000E+00 0. -1.
         22    1    3    3    0    0 -0.78585450946E+02  0.39480934706E+02  0.94582073190E+03  0.94990066543E+03  0.00000000000E+00 0.  1.
         22    1    3    3    0    0  0.28096564965E+02  0.52515597467E+02  0.24947162794E+03  0.25648274423E+03  0.00000000000E+00 0.  1.
</event>
<event>
 7    1  0.6122298E-006  0.1259992E+03  0.7818608E-02  0.1362763E+00
          2   -1    0    0  502    0  0.00000000000E+00  0.00000000000E+00  0.64834899525E+03  0.64834899525E+03  0.00000000000E+00 0. -1.
          1   -1    0    0  501    0 -0.00000000000E+00 -0.00000000000E+00 -0.26904617376E+04  0.26904617376E+04  0.00000000000E+00 0. -1.
         25    2    1    2    0    0  0.54811126705E+02 -0.10492667765E+03 -0.16989588505E+02  0.17299949444E+03  0.12500524655E+03 0.  0.
          2    1    1    2  501    0 -0.89408867613E+02  0.89142748128E+02 -0.25932958157E+04  0.25963673783E+04  0.00000000000E+00 0. -1.
          1    1    1    2  502    0  0.34597740907E+02  0.15783929518E+02  0.56817266189E+03  0.56944386012E+03  0.00000000000E+00 0. -1.
         22    1    3    3    0    0 -0.66516452209E+00 -0.61191689101E+02  0.47407351494E+02  0.77410091297E+02  0.00000000000E+00 0.  1.
         22    1    3    3    0    0  0.55476291227E+02 -0.43734988545E+02 -0.64396940000E+02  0.95589403140E+02  0.00000000000E+00 0.  1.
</event>
<event>
 7    1  0.6122298E-006  0.1125060E+03  0.7818608E-02  0.1365517E+00
          2   -1    0    0  502    0  0.00000000000E+00  0.00000000000E+00  0.31318333479E+03  0.31318333479E+03  0.00000000000E+00 0. -1.
          1   -1    0    0  501    0 -0.00000000000E+00 -0.00000000000E+00 -0.11894308377E+04  0.11894308377E+04  0.00000000000E+00 0. -1.
         25    2    1    2    0    0 -0.12659974810E+02  0.14983002216E+03 -0.27580271386E+03  0.33808532872E+03  0.12500096808E+03 0.  0.
          2    1    1    2  501    0 -0.86570484618E+01 -0.40710254047E+02 -0.87101338308E+03  0.87200721486E+03  0.00000000000E+00 0. -1.
          1    1    1    2  502    0  0.21317023272E+02 -0.10911976811E+03  0.27056859406E+03  0.29252162888E+03  0.00000000000E+00 0. -1.
         22    1    3    3    0    0  0.56017319616E+02  0.77398333466E+02 -0.12765656020E+03  0.15945105670E+03  0.00000000000E+00 0. -1.
         22    1    3    3    0    0 -0.68677294426E+02  0.72431688692E+02 -0.14814615367E+03  0.17863427203E+03  0.00000000000E+00 0. -1.
</event>
<event>
 7    1  0.6122298E-006  0.9558494E+02  0.7818608E-02  0.1385590E+00
          2   -1    0    0  502    0  0.00000000000E+00  0.00000000000E+00  0.98343860131E+03  0.98343860131E+03  0.00000000000E+00 0. -1.
          1   -1    0    0  501    0 -0.00000000000E+00 -0.00000000000E+00 -0.68468264116E+02  0.68468264116E+02  0.00000000000E+00 0. -1.
         25    2    1    2    0    0 -0.63945061337E+02  0.38186064226E+02  0.71035009651E+03  0.72509872599E+03  0.12499502571E+03 0.  0.
          2    1    1    2  501    0  0.56385229557E+02 -0.79038234813E+02 -0.19365609430E+02  0.99001835857E+02  0.00000000000E+00 0. -1.
          1    1    1    2  502    0  0.75598317801E+01  0.40852170587E+02  0.22398585012E+03  0.22780630358E+03  0.00000000000E+00 0. -1.
         22    1    3    3    0    0 -0.41516858114E+02  0.49317618851E+01  0.65711670056E+03  0.65844538873E+03  0.00000000000E+00 0.  1.
         22    1    3    3    0    0 -0.22428203223E+02  0.33254302341E+02  0.53233395949E+02  0.66653337262E+02  0.00000000000E+00 0.  1.
</event>
<event>
 7    1  0.6122298E-006  0.1472407E+03  0.7818608E-02  0.1279546E+00
          2   -1    0    0  502    0  0.00000000000E+00  0.00000000000E+00  0.75690434172E+03  0.75690434172E+03  0.00000000000E+00 0. -1.
          1   -1    0    0  501    0 -0.00000000000E+00 -0.00000000000E+00 -0.42399083195E+04  0.42399083195E+04  0.00000000000E+00 0. -1.
         25    2    1    2    0    0  0.10550440086E+03  0.40195806803E+02 -0.13315618023E+02  0.16896399403E+03  0.12499857644E+03 0.  0.
          2    1    1    2  501    0 -0.10333183089E+00  0.68402368761E+02 -0.41400508776E+04  0.41406159160E+04  0.00000000000E+00 0. -1.
          1    1    1    2  502    0 -0.10540106903E+03 -0.10859817556E+03  0.67036251780E+03  0.68723275123E+03  0.00000000000E+00 0. -1.
         22    1    3    3    0    0  0.74721637163E+02 -0.37446569308E+02  0.39625512699E+01  0.83673594555E+02  0.00000000000E+00 0. -1.
         22    1    3    3    0    0  0.30782763699E+02  0.77642376111E+02 -0.17278169293E+02  0.85290399479E+02  0.00000000000E+00 0. -1.
</event>
<event>
 7    1  0.6122298E-006  0.6384110E+02  0.7818608E-02  0.1433413E+00
          2   -1    0    0  502    0  0.00000000000E+00  0.00000000000E+00  0.14508907140E+03  0.14508907140E+03  0.00000000000E+00 0. -1.
          1   -1    0    0  501    0 -0.00000000000E+00 -0.00000000000E+00 -0.11118099817E+04  0.11118099817E+04  0.00000000000E+00 0. -1.
         25    2    1    2    0    0  0.34016168824E+02 -0.11014155954E+02 -0.63839383432E+03  0.65149859021E+03  0.12500125587E+03 0.  0.
          2    1    1    2  501    0 -0.70598655574E+02  0.33257825493E+02 -0.46019043028E+03  0.46676062949E+03  0.00000000000E+00 0. -1.
          1    1    1    2  502    0  0.36582486750E+02 -0.22243669538E+02  0.13186335435E+03  0.13863983335E+03  0.00000000000E+00 0. -1.
         22    1    3    3    0    0 -0.44037997780E+02  0.14925611987E+02 -0.27584153209E+03  0.27973321213E+03  0.00000000000E+00 0. -1.
         22    1    3    3    0    0  0.78054166605E+02 -0.25939767941E+02 -0.36255230223E+03  0.37176537808E+03  0.00000000000E+00 0. -1.
</event>
<event>
 7    1  0.6122298E-006  0.9474433E+02  0.7818608E-02  0.1330664E+00
          2   -1    0    0  502    0  0.00000000000E+00  0.00000000000E+00  0.22660652554E+04  0.22660652554E+04  0.00000000000E+00 0. -1.
          1   -1    0    0  501    0 -0.00000000000E+00 -0.00000000000E+00 -0.60703183429E+02  0.60703183429E+02  0.00000000000E+00 0. -1.
         25    2    1    2    0    0  0.57583290000E+02 -0.56821568274E+02  0.42386237429E+03  0.44925405113E+03  0.12500145683E+03 0.  0.
          2    1    1    2  501    0 -0.56192035974E+01  0.98475962022E+02  0.39475897792E+01  0.98715115410E+02  0.00000000000E+00 0. -1.
          1    1    1    2  502    0 -0.51964086403E+02 -0.41654393749E+02  0.17775521079E+04  0.17787992723E+04  0.00000000000E+00 0. -1.
         22    1    3    3    0    0  0.54112119824E+02 -0.18791753875E+02  0.40030919603E+03  0.40438682465E+03  0.00000000000E+00 0.  1.
         22    1    3    3    0    0  0.34711701764E+01 -0.38029814399E+02  0.23553178258E+02  0.44867226476E+02  0.00000000000E+00 0.  1.
</event>
<event>
 7    1  0.6122298E-006  0.8374227E+02  0.7818608E-02  0.1348676E+00
          2   -1    0    0  502    0  0.00000000000E+00  0.00000000000E+00  0.17118623545E+04  0.17118623545E+04  0.00000000000E+00 0. -1.
          1   -1    0    0  501    0 -0.00000000000E+00 -0.00000000000E+00 -0.61747195189E+03  0.61747195189E+03  0.00000000000E+00 0. -1.
         25    2    1    2    0    0  0.11880485302E+03  0.63600986171E+02 -0.32425787555E+03  0.37273020295E+03  0.12499982319E+03 0.  0.
          2    1    1    2  501    0 -0.56495556705E+02 -0.47098593550E+02 -0.26332070816E+03  0.27340047693E+03  0.00000000000E+00 0. -1.
          1    1    1    2  502    0 -0.62309296320E+02 -0.16502392620E+02  0.16819689863E+04  0.16832036265E+04  0.00000000000E+00 0. -1.
         22    1    3    3    0    0 -0.14357988995E+02  0.46620579671E+02 -0.10228651558E+03  0.11332326137E+03  0.00000000000E+00 0. -1.
         22    1    3    3    0    0  0.13316284202E+03  0.16980406500E+02 -0.22197135996E+03  0.25940694159E+03  0.00000000000E+00 0. -1.
</event>
<event>
 7    1  0.6122298E-006  0.9909230E+02  0.7818608E-02  0.1364847E+00
          2   -1    0    0  502    0  0.00000000000E+00  0.00000000000E+00  0.15732630363E+03  0.15732630363E+03  0.00000000000E+00 0. -1.
          1   -1    0    0  501    0 -0.00000000000E+00 -0.00000000000E+00 -0.18374129704E+04  0.18374129704E+04  0.00000000000E+00 0. -1.
         25    2    1    2    0    0  0.11214187335E+03  0.15555338408E+02 -0.27332314033E+03  0.32116799981E+03  0.12500230696E+03 0.  0.
          2    1    1    2  501    0 -0.17551809249E+02 -0.44159327983E+02 -0.15214448417E+04  0.15221867555E+04  0.00000000000E+00 0. -1.
          1    1    1    2  502    0 -0.94590064100E+02  0.28603989575E+02  0.11468131526E+03  0.15138451874E+03  0.00000000000E+00 0. -1.
         22    1    3    3    0    0  0.13134351223E+03  0.26539190515E+02 -0.26603706111E+03  0.29787776809E+03  0.00000000000E+00 0.  1.
         22    1    3    3    0    0 -0.19201638881E+02 -0.10983852107E+02 -0.72860792236E+01  0.23290231714E+02  0.00000000000E+00 0.  1.
</event>
<event>
 7    1  0.6122298E-006  0.1627789E+03  0.7818608E-02  0.1233163E+00
          2   -1    0    0  502    0  0.00000000000E+00  0.00000000000E+00  0.25797751640E+04  0.25797751640E+04  0.00000000000E+00 0. -1.
          1   -1    0    0  501    0 -0.00000000000E+00 -0.00000000000E+00 -0.13345369169E+04  0.13345369169E+04  0.00000000000E+00 0. -1.
         25    2    1    2    0    0 -0.95900982781E+01  0.23967349733E+03  0.11058728807E+03  0.29221497310E+03  0.12499874765E+03 0.  0.
          2    1    1    2  501    0  0.50096747605E+02 -0.84092587377E+02 -0.12390739337E+04  0.12429342141E+04  0.00000000000E+00 0. -1.
          1    1    1    2  502    0 -0.40506649327E+02 -0.15558090996E+03  0.23737248927E+04  0.23791628936E+04  0.00000000000E+00 0. -1.
         22    1    3    3    0    0 -0.14051691491E+02  0.25227895101E+03  0.91121086682E+02  0.26859853237E+03  0.00000000000E+00 0. -1.
         22    1    3    3    0    0  0.44615932127E+01 -0.12605453675E+02  0.19466201387E+02  0.23616440730E+02  0.00000000000E+00 0. -1.
</event>
<event>
 7    1  0.6122298E-006  0.1341587E+03  0.7818608E-02  0.1242723E+00
          2   -1    0    0  502    0  0.00000000000E+00  0.00000000000E+00  0.10960670170E+04  0.10960670170E+04  0.00000000000E+00 0. -1.
          1   -1    0    0  501    0 -0.00000000000E+00 -0.00000000000E+00 -0.31731038259E+03  0.31731038259E+03  0.00000000000E+00 0. -1.
         25    2    1    2    0    0 -0.15184497165E+03  0.11247183169E+03  0.36374303217E+02  0.22946567322E+03  0.12499838764E+03 0.  0.
          2    1    1    2  501    0  0.10699107580E+03  0.12695778440E+02 -0.20268240146E+03  0.22953960214E+03  0.00000000000E+00 0. -1.
          1    1    1    2  502    0  0.44853895858E+02 -0.12516761013E+03  0.94506473267E+03  0.95437212424E+03  0.00000000000E+00 0. -1.
         22    1    3    3    0    0 -0.10372807610E+03  0.11482121746E+03 -0.19194018025E+02  0.15592253230E+03  0.00000000000E+00 0.  1.
         22    1    3    3    0    0 -0.48116895550E+02 -0.23493857720E+01  0.55568321242E+02  0.73543140921E+02  0.00000000000E+00 0.  1.
</event>
<event>
 7    1  0.6122298E-006  0.8693229E+02  0.7818608E-02  0.1408256E+00
          2   -1    0    0  502    0  0.00000000000E+00  0.00000000000E+00  0.26748570983E+04  0.26748570983E+04  0.00000000000E+00 0. -1.
          1   -1    0    0  501    0 -0.00000000000E+00 -0.00000000000E+00 -0.12275663034E+04  0.12275663034E+04  0.00000000000E+00 0. -1.
         25    2    1    2    0    0 -0.60546065481E+02  0.89990181601E+02  0.12172960711E+04  0.12284947284E+04  0.12500205664E+03 0.  0.
          2    1    1    2  501    0  0.22900333973E+02 -0.83841018699E+02 -0.12201704588E+04  0.12232619058E+04  0.00000000000E+00 0. -1.
          1    1    1    2  502    0  0.37645731507E+02 -0.61491629019E+01  0.14501651826E+04  0.14506667674E+04  0.00000000000E+00 0. -1.
         22    1    3    3    0    0 -0.65422189253E+02  0.66311536030E+02  0.39469322413E+03  0.40553671083E+03  0.00000000000E+00 0. -1.
         22    1    3    3    0    0  0.48761237724E+01  0.23678645572E+02  0.82260284702E+03  0.82295801762E+03  0.00000000000E+00 0. -1.
</event>
<event>
 7    1  0.6122298E-006  0.5897249E+02  0.7818608E-02  0.1425240E+00
          2   -1    0    0  502    0  0.00000000000E+00  0.00000000000E+00  0.76788309634E+02  0.76788309634E+02  0.00000000000E+00 0. -1.
          1   -1    0    0  501    0 -0.00000000000E+00 -0.00000000000E+00 -0.16991797783E+04  0.16991797783E+04  0.00000000000E+00 0. -1.
         25    2    1    2    0    0 -0.92718529653E+01 -0.13162287928E+02 -0.13155275446E+03  0.18218260793E+03  0.12500064939E+03 0.  0.
          2    1    1    2  501    0 -0.40753639051E+02 -0.27767550310E+02 -0.15214628124E+04  0.15222617993E+04  0.00000000000E+00 0. -1.
          1    1    1    2  502    0  0.50025492016E+02  0.40929838238E+02  0.30624098232E+02  0.71523680709E+02  0.00000000000E+00 0. -1.
         22    1    3    3    0    0 -0.16804491240E+02 -0.39495073915E+01 -0.15496288986E+03  0.15592141215E+03  0.00000000000E+00 0. -1.
         22    1    3    3    0    0  0.75326382744E+01 -0.92127805365E+01  0.23410135398E+02  0.26261195783E+02  0.00000000000E+00 0. -1.
</event>
<event>
 7    1  0.6122298E-006  0.1548760E+03  0.7818608E-02  0.1305102E+00
          2   -1    0    0  502    0  0.00000000000E+00  0.00000000000E+00  0.16642413127E+03  0.16642413127E+03  0.00000000000E+00 0. -1.
          1   -1    0    0  501    0 -0.00000000000E+00 -0.00000000000E+00 -0.36003242250E+04  0.36003242250E+04  0.00000000000E+00 0. -1.
         25    2    1    2    0    0 -0.10936397064E+03  0.15230572584E+03 -0.20235264123E+04  0.20360361695E+04  0.12500651987E+03 0.  0.
          2    1    1    2  501    0  0.92353504107E+02 -0.10397927683E+03 -0.15632786040E+04  0.15694524056E+04  0.00000000000E+00 0. -1.
          1    1    1    2  502    0  0.17010466531E+02 -0.48326449007E+02  0.15290492263E+03  0.16125978112E+03  0.00000000000E+00 0. -1.
         22    1    3    3    0    0 -0.10475596262E+03  0.12689488193E+03 -0.11085975943E+04  0.11207429450E+04  0.00000000000E+00 0.  1.
         22    1    3    3    0    0 -0.46080080180E+01  0.25410843910E+02 -0.91492881801E+03  0.91529322447E+03  0.00000000000E+00 0.  1.
</event>
<event>
 7    1  0.6122298E-006  0.1118458E+03  0.7818608E-02  0.1283367E+00
          2   -1    0    0  502    0  0.00000000000E+00  0.00000000000E+00  0.34515895032E+02  0.34515895032E+02  0.00000000000E+00 0. -1.
          1   -1    0    0  501    0 -0.00000000000E+00 -0.00000000000E+00 -0.31283257962E+04  0.31283257962E+04  0.00000000000E+00 0. -1.
         25    2    1    2    0    0 -0.15455927737E+03 -0.27455921784E+02 -0.50013868769E+03  0.53889388139E+03  0.12500204245E+03 0.  0.
          2    1    1    2  501    0  0.81528331240E+02  0.74444607989E+02 -0.24720004030E+04  0.24744645605E+04  0.00000000000E+00 0. -1.
          1    1    1    2  502    0  0.73030946132E+02 -0.46988686205E+02 -0.12167081042E+03  0.14948324934E+03  0.00000000000E+00 0. -1.
         22    1    3    3    0    0 -0.99746504519E+02 -0.62846019933E+02 -0.20366808753E+03  0.23532887044E+03  0.00000000000E+00 0. -1.
         22    1    3    3    0    0 -0.54812772853E+02  0.35390098148E+02 -0.29647060016E+03  0.30356501095E+03  0.00000000000E+00 0. -1.
</event>
<event>
 7    1  0.6122298E-006  0.7037005E+02  0.7818608E-02  0.1448220E+00
          2   -1    0    0  502    0  0.00000000000E+00  0.00000000000E+00  0.39438463410E+02  0.39438463410E+02  0.00000000000E+00 0. -1.
          1   -1    0    0  501    0 -0.00000000000E+00 -0.00000000000E+00 -0.16209643938E+04  0.16209643938E+04  0.00000000000E+00 0. -1.
         25    2    1    2    0    0 -0.73937642837E+02 -0.63690600303E+02 -0.69230185287E+03  0.71023272749E+03  0.12500161643E+03 0.  0.
          2    1    1    2  501    0  0.40869300264E+02  0.52921984735E+02 -0.90812833389E+03  0.91058668285E+03  0.00000000000E+00 0. -1.
          1    1    1    2  502    0  0.33068342573E+02  0.10768615568E+02  0.18904256333E+02  0.39583446910E+02  0.00000000000E+00 0. -1.
         22    1    3    3    0    0  0.90034292063E+00  0.27354096515E+02 -0.48121327659E+02  0.55359907778E+02  0.00000000000E+00 0.  1.
         22    1    3    3    0    0 -0.74837985757E+02 -0.91044696819E+02 -0.64418052522E+03  0.65487281971E+03  0.00000000000E+00 0.  1.
</event>
<event>
 7    1  0.6122298E-006  0.2714776E+03  0.7818608E-02  0.1200956E+00
          2   -1    0    0  502    0  0.00000000000E+00  0.00000000000E+00  0.38993418628E+03  0.38993418628E+03  0.00000000000E+00 0. -1.
          1   -1    0    0  501    0 -0.00000000000E+00 -0.00000000000E+00 -0.23343392361E+04  0.23343392361E+04  0.00000000000E+00 0. -1.
         25    2    1    2    0    0  0.17047600683E+03 -0.98103004188E+02 -0.82657183313E+03  0.85879741100E+03  0.12500291785E+03 0.  0.
          2    1    1    2  501    0  0.80856872429E+02 -0.16112719844E+02 -0.14393444169E+04  0.14417037852E+04  0.00000000000E+00 0. -1.
          1    1    1    2  502    0 -0.25133287926E+03  0.11421572403E+03  0.32151120026E+03  0.42377222621E+03  0.00000000000E+00 0. -1.
         22    1    3    3    0    0  0.70613264568E+02 -0.23799404059E+02 -0.11932639663E+03  0.14068203048E+03  0.00000000000E+00 0. -1.
         22    1    3    3    0    0  0.99862742260E+02 -0.74303600129E+02 -0.70724543650E+03  0.71811538052E+03  0.00000000000E+00 0. -1.
</event>
<event>
 7    1  0.6122298E-006  0.7446784E+02  0.7818608E-02  0.1372835E+00
          2   -1    0    0  502    0  0.00000000000E+00  0.00000000000E+00  0.33646517853E+03  0.33646517853E+03  0.00000000000E+00 0. -1.
          1   -1    0    0  501    0 -0.00000000000E+00 -0.00000000000E+00 -0.12811659969E+04  0.12811659969E+04  0.00000000000E+00 0. -1.
         25    2    1    2    0    0 -0.16539491827E+02 -0.11058538493E+03  0.15095599398E+02  0.16838961553E+03  0.12499801337E+03 0.  0.
          2    1    1    2  501    0 -0.27232520994E+02  0.52541891608E+02 -0.11983736408E+04  0.11998340067E+04  0.00000000000E+00 0. -1.
          1    1    1    2  502    0  0.43772012821E+02  0.58043493323E+02  0.23857722307E+03  0.24940755320E+03  0.00000000000E+00 0. -1.
         22    1    3    3    0    0 -0.90288355079E+01 -0.64573945382E+02 -0.54256761971E+02  0.84823997268E+02  0.00000000000E+00 0. -1.
         22    1    3    3    0    0 -0.75106563195E+01 -0.46011439549E+02  0.69352361369E+02  0.83565618260E+02  0.00000000000E+00 0. -1.
</event>
<event>
 7    1  0.6122298E-006  0.1609159E+03  0.7818608E-02  0.1321251E+00
          2   -1    0    0  502    0  0.00000000000E+00  0.00000000000E+00  0.15102719337E+04  0.15102719337E+04  0.00000000000E+00 0. -1.
          1   -1    0    0  501    0 -0.00000000000E+00 -0.00000000000E+00 -0.17347122006E+04  0.17347122006E+04  0.00000000000E+00 0. -1.
         25    2    1    2    0    0 -0.10528645874E+03  0.61241282138E+02  0.10573880871E+04  0.10716949945E+04  0.12499944653E+03 0.  0.
          2    1    1    2  501    0  0.14782018329E+03 -0.63941583832E+02 -0.17227753171E+04  0.17302872958E+04  0.00000000000E+00 0. -1.
          1    1    1    2  502    0 -0.42533724545E+02  0.27003016944E+01  0.44094696321E+03  0.44300184392E+03  0.00000000000E+00 0. -1.
         22    1    3    3    0    0 -0.63642920447E+01  0.39656523116E+02  0.67294491354E+03  0.67414241871E+03  0.00000000000E+00 0.  1.
         22    1    3    3    0    0 -0.98922166698E+02  0.21584759022E+02  0.38444317352E+03  0.39755257584E+03  0.00000000000E+00 0.  1.
</event>
<event>
 7    1  0.6122298E-006  0.5357666E+02  0.7818608E-02  0.1490536E+00
          2   -1    0    0  502    0  0.00000000000E+00  0.00000000000E+00  0.10079960466E+03  0.10079960466E+03  0.00000000000E+00 0. -1.
          1   -1    0    0  501    0 -0.00000000000E+00 -0.00000000000E+00 -0.73375426860E+03  0.73375426860E+03  0.00000000000E+00 0. -1.
         25    2    1    2    0    0 -0.41223413076E+02  0.10113270388E+02 -0.24446921272E+02  0.13425884466E+03  0.12500454946E+03 0.  0.
          2    1    1    2  501    0  0.48986351424E+02  0.22704928080E+02 -0.64692587777E+03  0.64917506707E+03  0.00000000000E+00 0. -1.
          1    1    1    2  502    0 -0.77629383474E+01 -0.32818198468E+02  0.38418135100E+02  0.51119961532E+02  0.00000000000E+00 0. -1.
         22    1    3    3    0    0  0.26111474082E+02  0.76749637301E+01  0.35046687591E+02  0.44373240338E+02  0.00000000000E+00 0. -1.
         22    1    3    3    0    0 -0.67334887158E+02  0.24383066578E+01 -0.59493608864E+02  0.89885604318E+02  0.00000000000E+00 0. -1.
</event>
<event>
 7    1  0.6122298E-006  0.7997227E+02  0.7818608E-02  0.1385712E+00
          2   -1    0    0  502    0  0.00000000000E+00  0.00000000000E+00  0.23618785061E+04  0.23618785061E+04  0.00000000000E+00 0. -1.
          1   -1    0    0  501    0 -0.00000000000E+00 -0.00000000000E+00 -0.14360589045E+02  0.14360589045E+02  0.00000000000E+00 0. -1.
         25    2    1    2    0    0 -0.61453703022E+02 -0.15270175158E+02  0.56888215006E+03  0.58588485668E+03  0.12499771503E+03 0.  0.
          2    1    1    2  501    0  0.81682509806E+01 -0.48930285901E+02  0.12313074445E+03  0.13274815792E+03  0.00000000000E+00 0. -1.
          1    1    1    2  502    0  0.53285452042E+02  0.64200461059E+02  0.16555050226E+04  0.16576060806E+04  0.00000000000E+00 0. -1.
         22    1    3    3    0    0  0.38144299219E+02  0.24945277550E+01  0.18394284635E+03  0.18787277864E+03  0.00000000000E+00 0.  1.
         22    1    3    3    0    0 -0.99598002241E+02 -0.17764702913E+02  0.38493930372E+03  0.39801207804E+03  0.00000000000E+00 0.  1.
</event>
<event>
 7    1  0.6122298E-006  0.1761190E+03  0.7818608E-02  0.1316595E+00
          2   -1    0    0  502    0  0.00000000000E+00  0.00000000000E+00  0.29320092200E+04  0.29320092200E+04  0.00000000000E+00 0. -1.
          1   -1    0    0  501    0 -0.00000000000E+00 -0.00000000000E+00 -0.15153149363E+03  0.15153149363E+03  0.00000000000E+00 0. -1.
         25    2    1    2    0    0  0.15747969017E+03  0.69181615957E+02  0.16601551611E+04  0.16737162468E+04  0.12499986820E+03 0.  0.
          2    1    1    2  501    0 -0.17349258783E+03 -0.31876059717E+02 -0.90544009787E+02  0.19827753005E+03  0.00000000000E+00 0. -1.
          1    1    1    2  502    0  0.16012897657E+02 -0.37305556240E+02  0.12108665750E+04  0.12115469368E+04  0.00000000000E+00 0. -1.
         22    1    3    3    0    0  0.12766002234E+03  0.25329810618E+02  0.14854338672E+04  0.14911245604E+04  0.00000000000E+00 0.  1.
         22    1    3    3    0    0  0.29819667838E+02  0.43851805339E+02  0.17472129388E+03  0.18259168643E+03  0.00000000000E+00 0.  1.
</event>
<event>
 7    1  0.6122298E-006  0.1127151E+03  0.7818608E-02  0.1277105E+00
          2   -1    0    0  502    0  0.00000000000E+00  0.00000000000E+00  0.12524695618E+04  0.12524695618E+04  0.00000000000E+00 0. -1.
          1   -1    0    0  501    0 -0.00000000000E+00 -0.00000000000E+00 -0.41529814464E+02  0.41529814464E+02  0.00000000000E+00 0. -1.
         25    2    1    2    0    0 -0.89900713142E+02  0.48639682013E+02  0.49396710250E+03  0.51968751197E+03  0.12499461929E+03 0.  0.
          2    1    1    2  501    0  0.11760596322E+03  0.38523340975E+02  0.12712189674E+03  0.17741247705E+03  0.00000000000E+00 0. -1.
          1    1    1    2  502    0 -0.27705250076E+02 -0.87163022989E+02  0.58985074808E+03  0.59689938722E+03  0.00000000000E+00 0. -1.
         22    1    3    3    0    0 -0.71689195834E+02  0.74836661883E+02  0.21256004419E+03  0.23647756585E+03  0.00000000000E+00 0.  1.
         22    1    3    3    0    0 -0.18211517308E+02 -0.26196979869E+02  0.28140705831E+03  0.28320994612E+03  0.00000000000E+00 0.  1.
</event>
<event>
 7    1  0.6122298E-006  0.6478720E+02  0.7818608E-02  0.1396000E+00
          2   -1    0    0  502    0  0.00000000000E+00  0.00000000000E+00  0.18882072710E+04  0.18882072710E+04  0.00000000000E+00 0. -1.
          1   -1    0    0  501    0 -0.00000000000E+00 -0.00000000000E+00 -0.94274061306E+03  0.94274061306E+03  0.00000000000E+00 0. -1.
         25    2    1    2    0    0 -0.51029943394E+02 -0.85389765608E+02  0.44208228468E+03  0.47006142925E+03  0.12500213460E+03 0.  0.
          2    1    1    2  501    0 -0.14277135354E+01  0.64723161788E+02 -0.92706684057E+03  0.92932451433E+03  0.00000000000E+00 0. -1.
          1    1    1    2  502    0  0.52457656929E+02  0.20666603820E+02  0.14304512139E+04  0.14315619405E+04  0.00000000000E+00 0. -1.
         22    1    3    3    0    0 -0.18514337114E+02 -0.88849323542E+01  0.31218069240E+00  0.20538260844E+02  0.00000000000E+00 0. -1.
         22    1    3    3    0    0 -0.32515606279E+02 -0.76504833254E+02  0.44177010398E+03  0.44952316841E+03  0.00000000000E+00 0. -1.
</event>
<event>
 7    1  0.6122298E-006  0.1718887E+03  0.7818608E-02  0.1234505E+00
          2   -1    0    0  502    0  0.00000000000E+00  0.00000000000E+00  0.87362037375E+02  0.87362037375E+02  0.00000000000E+00 0. -1.
          1   -1    0    0  501    0 -0.00000000000E+00 -0.00000000000E+00 -0.22754728186E+04  0.22754728186E+04  0.00000000000E+00 0. -1.
         25    2    1    2    0    0  0.57355590857E+02 -0.82059316536E+02 -0.97136188493E+03  0.98447219865E+03  0.12497280976E+03 0.  0.
          2    1    1    2  501    0 -0.82342284775E+01 -0.91057378631E+02 -0.11934071637E+04  0.11969043016E+04  0.00000000000E+00 0. -1.
          1    1    1    2  502    0 -0.49121362379E+02  0.17311669517E+03 -0.23341732562E+02  0.18145835574E+03  0.00000000000E+00 0. -1.
         22    1    3    3    0    0 -0.38935373070E+02 -0.33791554109E+02 -0.26843901528E+03  0.27334472252E+03  0.00000000000E+00 0.  1.
         22    1    3    3    0    0  0.96290963927E+02 -0.48267762427E+02 -0.70292286965E+03  0.71112747613E+03  0.00000000000E+00 0.  1.
</event>
<event>
 7    1  0.6122298E-006  0.7311842E+02  0.7818608E-02  0.1351057E+00
          2   -1    0    0  502    0  0.00000000000E+00  0.00000000000E+00  0.15176478323E+03  0.15176478323E+03  0.00000000000E+00 0. -1.
          1   -1    0    0  501    0 -0.00000000000E+00 -0.00000000000E+00 -0.80745253906E+03  0.80745253906E+03  0.00000000000E+00 0. -1.
         25    2    1    2    0    0  0.65204603140E+02  0.23346872741E+02 -0.15888404397E+03  0.21369499317E+03  0.12499877576E+03 0.  0.
          2    1    1    2  501    0 -0.58660454616E+02  0.48694684063E+02 -0.60805784805E+03  0.61281854392E+03  0.00000000000E+00 0. -1.
          1    1    1    2  502    0 -0.65441485237E+01 -0.72041556804E+02  0.11125413619E+03  0.13270378520E+03  0.00000000000E+00 0. -1.
         22    1    3    3    0    0  0.47347305195E+02  0.18940389985E+02  0.27008727088E+01  0.51066627022E+02  0.00000000000E+00 0.  1.
         22    1    3    3    0    0  0.17857297945E+02  0.44064827559E+01 -0.16158491667E+03  0.16262836615E+03  0.00000000000E+00 0.  1.
</event>
<event>
 7    1  0.6122298E-006  0.9264516E+02  0.7818608E-02  0.1298521E+00
          2   -1    0    0  502    0  0.00000000000E+00  0.00000000000E+00  0.28041564220E+02  0.28041564220E+02  0.00000000000E+00 0. -1.
          1   -1    0    0  501    0 -0.00000000000E+00 -0.00000000000E+00 -0.13112579475E+04  0.13112579475E+04  0.00000000000E+00 0. -1.
         25    2    1    2    0    0  0.14775389471E+02  0.27773138376E+02 -0.52563991122E+03  0.54121384860E+03  0.12500181715E+03 0.  0.
          2    1    1    2  501    0  0.90164159220E+02  0.21296723383E+02 -0.57102310366E+03  0.57848985380E+03  0.00000000000E+00 0. -1.
          1    1    1    2  502    0 -0.10493954869E+03 -0.49069861759E+02 -0.18655336840E+03  0.21959580932E+03  0.00000000000E+00 0. -1.
         22    1    3    3    0    0  0.34364952076E+02 -0.37667117596E+02 -0.12857448500E+03  0.13831543613E+03  0.00000000000E+00 0. -1.
         22    1    3    3    0    0 -0.19589562605E+02  0.65440255972E+02 -0.39706542622E+03  0.40289841247E+03  0.00000000000E+00 0. -1.
</event>
<event>
 7    1  0.6122298E-006  0.4441213E+02  0.7818608E-02  0.1515572E+00
          2   -1    0    0  502    0  0.00000000000E+00  0.00000000000E+00  0.14973793615E+03  0.14973793615E+03  0.00000000000E+00 0. -1.
          1   -1    0    0  501    0 -0.00000000000E+00 -0.00000000000E+00 -0.16049597486E+04  0.16049597486E+04  0.00000000000E+00 0. -1.
         25    2    1    2    0    0  0.47788629442E+02 -0.55064753732E+02 -0.61841009145E+03  0.63511772880E+03  0.12501043164E+03 0.  0.
          2    1    1    2  501    0 -0.31299826944E+02  0.13973366153E+02 -0.97442067055E+03  0.97502337270E+03  0.00000000000E+00 0. -1.
          1    1    1    2  502    0 -0.16488802498E+02  0.41091387579E+02  0.13760894959E+03  0.14455658320E+03  0.00000000000E+00 0. -1.
         22    1    3    3    0    0 -0.31944333381E+02 -0.29464137006E+02 -0.37901788246E+03  0.38150115469E+03  0.00000000000E+00 0. -1.
         22    1    3    3    0    0  0.79732962824E+02 -0.25600616726E+02 -0.23939220899E+03  0.25361657411E+03  0.00000000000E+00 0. -1.
</event>
<event>
 7    1  0.6122298E-006  0.6696623E+02  0.7818608E-02  0.1382247E+00
          2   -1    0    0  502    0  0.00000000000E+00  0.00000000000E+00  0.47728023105E+03  0.47728023105E+03  0.00000000000E+00 0. -1.
          1   -1    0    0  501    0 -0.00000000000E+00 -0.00000000000E+00 -0.85743188556E+03  0.85743188556E+03  0.00000000000E+00 0. -1.
         25    2    1    2    0    0  0.66504957932E+02  0.94353737797E+02  0.15458990638E+03  0.22988834190E+03  0.12500029328E+03 0.  0.
          2    1    1    2  501    0 -0.57302788744E+02 -0.34122562456E+02 -0.81514906948E+03  0.81787282895E+03  0.00000000000E+00 0. -1.
          1    1    1    2  502    0 -0.92021691880E+01 -0.60231175341E+02  0.28040750858E+03  0.28695094576E+03  0.00000000000E+00 0. -1.
         22    1    3    3    0    0 -0.27668459275E+02 -0.82324573399E+01  0.41196445223E+02  0.50303718466E+02  0.00000000000E+00 0. -1.
         22    1    3    3    0    0  0.94173417206E+02  0.10258619514E+03  0.11339346116E+03  0.17958462344E+03  0.00000000000E+00 0. -1.
</event>
<event>
 7    1  0.6122298E-006  0.6393565E+02  0.7818608E-02  0.1452516E+00
          2   -1    0    0  502    0  0.00000000000E+00  0.00000000000E+00  0.25259684364E+03  0.25259684364E+03  0.00000000000E+00 0. -1.
          1   -1    0    0  501    0 -0.00000000000E+00 -0.00000000000E+00 -0.38154301052E+03  0.38154301052E+03  0.00000000000E+00 0. -1.
         25    2    1    2    0    0 -0.83929879589E+02  0.64908368992E+01 -0.31280440327E+03  0.34722222544E+03  0.12502129213E+03 0.  0.
          2    1    1    2  501    0  0.24002870247E+02 -0.28270530217E+02 -0.39769097947E+02  0.54377769450E+02  0.00000000000E+00 0. -1.
          1    1    1    2  502    0  0.59927009342E+02  0.21779693318E+02  0.22362733433E+03  0.23253985927E+03  0.00000000000E+00 0. -1.
         22    1    3    3    0    0 -0.78252343187E+02  0.57790538867E+02 -0.22890991270E+03  0.24872258387E+03  0.00000000000E+00 0. -1.
         22    1    3    3    0    0 -0.56775364022E+01 -0.51299701968E+02 -0.83894490565E+02  0.98499641567E+02  0.00000000000E+00 0. -1.
</event>
<event>
 7    1  0.6122298E-006  0.1088465E+03  0.7818608E-02  0.1302059E+00
          2   -1    0    0  502    0  0.00000000000E+00  0.00000000000E+00  0.41816048588E+03  0.41816048588E+03  0.00000000000E+00 0. -1.
          1   -1    0    0  501    0 -0.00000000000E+00 -0.00000000000E+00 -0.10002363848E+03  0.10002363848E+03  0.00000000000E+00 0. -1.
         25    2    1    2    0    0  0.30243135042E+02 -0.35216881131E+02 -0.80939970223E+01  0.13358125185E+03  0.12499424836E+03 0.  0.
          2    1    1    2  501    0  0.55581690681E+02 -0.50296110287E+02  0.76873644336E+02  0.10737122632E+03  0.00000000000E+00 0. -1.
          1    1    1    2  502    0 -0.85824825723E+02  0.85512991417E+02  0.24935720009E+03  0.27723164619E+03  0.00000000000E+00 0. -1.
         22    1    3    3    0    0  0.61640965688E+02  0.24126054796E+02 -0.45581861199E+01  0.66350977624E+02  0.00000000000E+00 0.  1.
         22    1    3    3    0    0 -0.31397830646E+02 -0.59342935927E+02 -0.35358109024E+01  0.67230274225E+02  0.00000000000E+00 0.  1.
</event>
<event>
 7    1  0.6122298E-006  0.4399794E+02  0.7818608E-02  0.1490858E+00
          2   -1    0    0  502    0  0.00000000000E+00  0.00000000000E+00  0.24983904957E+03  0.24983904957E+03  0.00000000000E+00 0. -1.
          1   -1    0    0  501    0 -0.00000000000E+00 -0.00000000000E+00 -0.55512261669E+03  0.55512261669E+03  0.00000000000E+00 0. -1.
         25    2    1    2    0    0 -0.55168058917E+02  0.63653266244E+02 -0.44012226787E+02  0.15702646868E+03  0.12499993092E+03 0.  0.
          2    1    1    2  501    0  0.28111618178E+02 -0.32883154714E+02 -0.45138645482E+03  0.45345484509E+03  0.00000000000E+00 0. -1.
          1    1    1    2  502    0  0.27056440740E+02 -0.30770111530E+02  0.19011511449E+03  0.19448035249E+03  0.00000000000E+00 0. -1.
         22    1    3    3    0    0  0.24847284507E+02  0.23067962613E+02  0.26404347525E+02  0.42973340744E+02  0.00000000000E+00 0.  1.
         22    1    3    3    0    0 -0.80015343424E+02  0.40585303631E+02 -0.70416574312E+02  0.11405312794E+03  0.00000000000E+00 0.  1.
</event>
<event>
 7    1  0.6122298E-006  0.1212399E+03  0.7818608E-02  0.1305887E+00
          2   -1    0    0  502    0  0.00000000000E+00  0.00000000000E+00  0.24243232059E+04  0.24243232059E+04  0.00000000000E+00 0. -1.
          1   -1    0    0  501    0 -0.00000000000E+00 -0.00000000000E+00 -0.14682881304E+03  0.14682881304E+03  0.00000000000E+00 0. -1.
         25    2    1    2    0    0 -0.53276905246E+02  0.12319489019E+03  0.10542743020E+04  0.10701106502E+04  0.12500836035E+03 0.  0.
          2    1    1    2  501    0  0.95976094980E+02 -0.74214807994E+02 -0.11147814940E+03  0.16476233285E+03  0.00000000000E+00 0. -1.
          1    1    1    2  502    0 -0.42699189734E+02 -0.48980082201E+02  0.13346982403E+04  0.13362790359E+04  0.00000000000E+00 0. -1.
         22    1    3    3    0    0  0.17180649611E+02  0.10981680468E+03  0.68056800224E+03  0.68958517311E+03  0.00000000000E+00 0. -1.
         22    1    3    3    0    0 -0.70457554858E+02  0.13378085512E+02  0.37370629975E+03  0.38052547704E+03  0.00000000000E+00 0. -1.
</event>
<event>
 7    1  0.6122298E-006  0.1089753E+03  0.7818608E-02  0.1353588E+00
          2   -1    0    0  502    0  0.00000000000E+00  0.00000000000E+00  0.39231580295E+03  0.39231580295E+03  0.00000000000E+00 0. -1.
          1   -1    0    0  501    0 -0.00000000000E+00 -0.00000000000E+00 -0.13049850963E+04  0.13049850963E+04  0.00000000000E+00 0. -1.
         25    2    1    2    0    0  0.53658164265E+02  0.14095218713E+03 -0.39845475647E+03  0.44400230301E+03  0.12500053790E+03 0.  0.
          2    1    1    2  501    0 -0.34455799565E+02 -0.97503057153E+02 -0.87918690745E+03  0.88524779949E+03  0.00000000000E+00 0. -1.
          1    1    1    2  502    0 -0.19202364700E+02 -0.43449129978E+02  0.36497237057E+03  0.36805079675E+03  0.00000000000E+00 0. -1.
         22    1    3    3    0    0 -0.58711644250E+01  0.67085013605E+01  0.79094796697E+01  0.11917819887E+02  0.00000000000E+00 0. -1.
         22    1    3    3    0    0  0.59529328690E+02  0.13424368577E+03 -0.40636423614E+03  0.43208448313E+03  0.00000000000E+00 0. -1.
</event>
<event>
 7    1  0.6122298E-006  0.1740911E+03  0.7818608E-02  0.1307753E+00
          2   -1    0    0  502    0  0.00000000000E+00  0.00000000000E+00  0.25628437549E+03  0.25628437549E+03  0.00000000000E+00 0. -1.
          1   -1    0    0  501    0 -0.00000000000E+00 -0.00000000000E+00 -0.12731331317E+04  0.12731331317E+04  0.00000000000E+00 0. -1.
         25    2    1    2    0    0  0.91307034532E+02  0.10228845578E+03 -0.58696780099E+01  0.18563210525E+03  0.12499969055E+03 0.  0.
          2    1    1    2  501    0 -0.10003427598E+03 -0.14591284546E+03 -0.11676215455E+04  0.11809477077E+04  0.00000000000E+00 0. -1.
          1    1    1    2  502    0  0.87272414521E+01  0.43624389682E+02  0.15664246726E+03  0.16283769425E+03  0.00000000000E+00 0. -1.
         22    1    3    3    0    0 -0.33421691133E+01 -0.23564101007E+02 -0.14595357342E+02  0.27918836054E+02  0.00000000000E+00 0.  1.
         22    1    3    3    0    0  0.94649203645E+02  0.12585255679E+03  0.87256793325E+01  0.15771326920E+03  0.00000000000E+00 0.  1.
</event>
<event>
 7    1  0.6122298E-006  0.4968541E+02  0.7818608E-02  0.1481027E+00
          2   -1    0    0  502    0  0.00000000000E+00  0.00000000000E+00  0.10478636005E+02  0.10478636005E+02  0.00000000000E+00 0. -1.
          1   -1    0    0  501    0 -0.00000000000E+00 -0.00000000000E+00 -0.15276247441E+04  0.15276247441E+04  0.00000000000E+00 0. -1.
         25    2    1    2    0    0  0.62918492233E+02 -0.86741630762E+01 -0.54966728188E+03  0.56726887254E+03  0.12500350080E+03 0.  0.
          2    1    1    2  501    0 -0.26279921038E+02  0.28640598860E+02 -0.44899390086E+03  0.45067331978E+03  0.00000000000E+00 0. -1.
          1    1    1    2  502    0 -0.36638571195E+02 -0.19966435783E+02 -0.51848492534E+03  0.52016118777E+03  0.00000000000E+00 0. -1.
         22    1    3    3    0    0  0.67649386282E+02  0.48229941779E+02 -0.33165468169E+03  0.34190260987E+03  0.00000000000E+00 0. -1.
         22    1    3    3    0    0 -0.47308940492E+01 -0.56904104856E+02 -0.21801260018E+03  0.22536626266E+03  0.00000000000E+00 0. -1.
</event>
<event>
 7    1  0.6122298E-006  0.2500917E+03  0.7818608E-02  0.1171808E+00
          2   -1    0    0  502    0  0.00000000000E+00  0.00000000000E+00  0.40033970637E+03  0.40033970637E+03  0.00000000000E+00 0. -1.
          1   -1    0    0  501    0 -0.00000000000E+00 -0.00000000000E+00 -0.28151915107E+04  0.28151915107E+04  0.00000000000E+00 0. -1.
         25    2    1    2    0    0 -0.22184784264E+03 -0.15281810060E+03 -0.10783218237E+04  0.11184689384E+04  0.12499989398E+03 0.  0.
          2    1    1    2  501    0  0.10346786336E+03 -0.67887154713E+02 -0.16730241970E+04  0.16775947747E+04  0.00000000000E+00 0. -1.
          1    1    1    2  502    0  0.11837997928E+03  0.22070525531E+03  0.33649421637E+03  0.41946750394E+03  0.00000000000E+00 0. -1.
         22    1    3    3    0    0 -0.87683378253E+01 -0.14911219693E+02 -0.91219197649E+01  0.19556012915E+02  0.00000000000E+00 0.  1.
         22    1    3    3    0    0 -0.21307950482E+03 -0.13790688090E+03 -0.10691999040E+04  0.10989129255E+04  0.00000000000E+00 0.  1.
</event>
<event>
 7    1  0.6122298E-006  0.5999707E+02  0.7818608E-02  0.1492779E+00
          2   -1    0    0  502    0  0.00000000000E+00  0.00000000000E+00  0.18418372646E+03  0.18418372646E+03  0.00000000000E+00 0. -1.
          1   -1    0    0  501    0 -0.00000000000E+00 -0.00000000000E+00 -0.16704602819E+04  0.16704602819E+04  0.00000000000E+00 0. -1.
         25    2    1    2    0    0 -0.38489721045E+02  0.74286864806E+01 -0.21765030028E+03  0.25403378076E+03  0.12499945819E+03 0.  0.
          2    1    1    2  501    0  0.59290493721E+02  0.13699402575E+02 -0.14326432092E+04  0.14339350059E+04  0.00000000000E+00 0. -1.
          1    1    1    2  502    0 -0.20800772677E+02 -0.21128089055E+02  0.16401695408E+03  0.16667522166E+03  0.00000000000E+00 0. -1.
         22    1    3    3    0    0 -0.48452424634E+02  0.50793641716E+02 -0.67333477850E+02  0.97269875764E+02  0.00000000000E+00 0. -1.
         22    1    3    3    0    0  0.99627035894E+01 -0.43364955236E+02 -0.15031682243E+03  0.15676390500E+03  0.00000000000E+00 0. -1.
</event>
<event>
 7    1  0.6122298E-006  0.7595983E+02  0.7818608E-02  0.1345990E+00
          2   -1    0    0  502    0  0.00000000000E+00  0.00000000000E+00  0.29324600604E+04  0.29324600604E+04  0.00000000000E+00 0. -1.
          1   -1    0    0  501    0 -0.00000000000E+00 -0.00000000000E+00 -0.11665487430E+03  0.11665487430E+03  0.00000000000E+00 0. -1.
         25    2    1    2    0    0  0.46720404933E+02  0.95330118812E+01  0.11349368273E+04  0.11427948467E+04  0.12499914067E+03 0.  0.
          2    1    1    2  501    0  0.18265256606E+02 -0.70383799423E+02 -0.99770467777E+02  0.12345705756E+03  0.00000000000E+00 0. -1.
          1    1    1    2  502    0 -0.64985661539E+02  0.60850787542E+02  0.17806388266E+04  0.17828630304E+04  0.00000000000E+00 0. -1.
         22    1    3    3    0    0  0.42056679637E+02  0.45884371729E+02  0.26998203121E+03  0.27706395840E+03  0.00000000000E+00 0.  1.
         22    1    3    3    0    0  0.46637252957E+01 -0.36351359847E+02  0.86495479612E+03  0.86573088834E+03  0.00000000000E+00 0.  1.
</event>
<event>
 7    1  0.6122298E-006  0.1644452E+03  0.7818608E-02  0.1350383E+00
          2   -1    0    0  502    0  0.00000000000E+00  0.00000000000E+00  0.19399635267E+04  0.19399635267E+04  0.00000000000E+00 0. -1.
          1   -1    0    0  501    0 -0.00000000000E+00 -0.00000000000E+00 -0.76479996041E+03  0.76479996041E+03  0.00000000000E+00 0. -1.
         25    2    1    2    0    0  0.99692040350E+02 -0.16867164482E+03 -0.31580090879E+02  0.23454705689E+03  0.12500557219E+03 0.  0.
          2    1    1    2  501    0 -0.16092892269E+02  0.28062592460E+02 -0.62768019175E+03  0.62851325634E+03  0.00000000000E+00 0. -1.
          1    1    1    2  502    0 -0.83599148081E+02  0.14060905236E+03  0.18344238489E+04  0.18417031738E+04  0.00000000000E+00 0. -1.
         22    1    3    3    0    0 -0.24535127794E+02 -0.61156165782E+02  0.54964768166E+01  0.66123069850E+02  0.00000000000E+00 0. -1.
         22    1    3    3    0    0  0.12422716814E+03 -0.10751547904E+03 -0.37076567696E+02  0.16842398704E+03  0.00000000000E+00 0. -1.
</event>
<event>
 7    1  0.6122298E-006  0.1260796E+03  0.7818608E-02  0.1308737E+00
          2   -1    0    0  502    0  0.00000000000E+00  0.00000000000E+00  0.64278997985E+03  0.64278997985E+03  0.00000000000E+00 0. -1.
          1   -1    0    0  501    0 -0.00000000000E+00 -0.00000000000E+00 -0.10045428652E+03  0.10045428652E+03  0.00000000000E+00 0. -1.
         25    2    1    2    0    0 -0.16604031155E+03 -0.29958292908E+02  0.15033310973E+03  0.25824769817E+03  0.12499978142E+03 0.  0.
          2    1    1    2  501    0  0.10553277456E+03  0.36705961664E+02  0.26998362953E+02  0.11494957908E+03  0.00000000000E+00 0. -1.
          1    1    1    2  502    0  0.60507536990E+02 -0.67476687559E+01  0.36500422065E+03  0.37004698912E+03  0.00000000000E+00 0. -1.
         22    1    3    3    0    0 -0.26333321913E+02 -0.46966145251E+02  0.21590662190E+01  0.53888071126E+02  0.00000000000E+00 0. -1.
         22    1    3    3    0    0 -0.13970698964E+03  0.17007852343E+02  0.14817404351E+03  0.20435962705E+03  0.00000000000E+00 0. -1.
</event>
<event>
 7    1  0.6122298E-006  0.3955525E+02  0.7818608E-02  0.1613956E+00
          2   -1    0    0  502    0  0.00000000000E+00  0.00000000000E+00  0.54837545953E+03  0.54837545953E+03  0.00000000000E+00 0. -1.
          1   -1    0    0  501    0 -0.00000000000E+00 -0.00000000000E+00 -0.52360987207E+03  0.52360987207E+03  0.00000000000E+00 0. -1.
         25    2    1    2    0    0  0.39506825921E+02  0.41906856519E+02 -0.43889807180E+03  0.45996762634E+03  0.12498690305E+03 0.  0.
          2    1    1    2  501    0 -0.19053343088E+02 -0.80819238783E+01 -0.71990798579E+02  0.74906758417E+02  0.00000000000E+00 0. -1.
          1    1    1    2  502    0 -0.20453482834E+02 -0.33824932641E+02  0.53565445783E+03  0.53711094685E+03  0.00000000000E+00 0. -1.
         22    1    3    3    0    0 -0.77718990293E+01 -0.41238467836E+02 -0.13584706581E+03  0.14218100764E+03  0.00000000000E+00 0.  1.
         22    1    3    3    0    0  0.47278724951E+02  0.83145324355E+02 -0.30305100598E+03  0.31778661870E+03  0.00000000000E+00 0.  1.
</event>
<event>
 7    1  0.6122298E-006  0.1669600E+03  0.7818608E-02  0.1324294E+00
          2   -1    0    0  502    0  0.00000000000E+00  0.00000000000E+00  0.12197212755E+04  0.12197212755E+04  0.00000000000E+00 0. -1.
          1   -1    0    0  501    0 -0.00000000000E+00 -0.00000000000E+00 -0.30313793660E+03  0.30313793660E+03  0.00000000000E+00 0. -1.
         25    2    1    2    0    0 -0.19497363183E+03 -0.40428125753E+02 -0.70997923491E+02  0.24558878595E+03  0.12499598466E+03 0.  0.
          2    1    1    2  501    0  0.29765696863E+02  0.26690172972E+02 -0.13588228015E+03  0.14164164677E+03  0.00000000000E+00 0. -1.
          1    1    1    2  502    0  0.16520793497E+03  0.13737952781E+02  0.11234635425E+04  0.11356287794E+04  0.00000000000E+00 0. -1.
         22    1    3    3    0    0 -0.20080159942E+03 -0.58920455445E+02 -0.46544134718E+02  0.21438110662E+03  0.00000000000E+00 0. -1.
         22    1    3    3    0    0  0.58279675873E+01  0.18492329692E+02 -0.24453788773E+02  0.31207679327E+02  0.00000000000E+00 0. -1.
</event>
<event>
 7    1  0.6122298E-006  0.1662132E+03  0.7818608E-02  0.1182435E+00
          2   -1    0    0  502    0  0.00000000000E+00  0.00000000000E+00  0.31060325489E+04  0.31060325489E+04  0.00000000000E+00 0. -1.
          1   -1    0    0  501    0 -0.00000000000E+00 -0.00000000000E+00 -0.94329017919E+03  0.94329017919E+03  0.00000000000E+00 0. -1.
         25    2    1    2    0    0 -0.14434876450E+03  0.98778917605E+02  0.57835499355E+03  0.61701962655E+03  0.12499952247E+03 0.  0.
          2    1    1    2  501    0  0.14789329465E+03  0.75857834094E+02 -0.91340794606E+03  0.92840773022E+03  0.00000000000E+00 0. -1.
          1    1    1    2  502    0 -0.35445301497E+01 -0.17463675170E+03  0.24977953222E+04  0.25038953713E+04  0.00000000000E+00 0. -1.
         22    1    3    3    0    0 -0.15283033967E+03  0.11843965508E+03  0.52861255940E+03  0.56286437316E+03  0.00000000000E+00 0.  1.
         22    1    3    3    0    0  0.84815751682E+01 -0.19660737474E+02  0.49742434141E+02  0.54155253389E+02  0.00000000000E+00 0.  1.
</event>
<event>
 7    1  0.6122298E-006  0.1977911E+03  0.7818608E-02  0.1183725E+00
          2   -1    0    0  502    0  0.00000000000E+00  0.00000000000E+00  0.10682378825E+03  0.10682378825E+03  0.00000000000E+00 0. -1.
          1   -1    0    0  501    0 -0.00000000000E+00 -0.00000000000E+00 -0.11166979399E+04  0.11166979399E+04  0.00000000000E+00 0. -1.
         25    2    1    2    0    0 -0.21512604923E+03  0.91825810397E+02 -0.72372373708E+03  0.77078705428E+03  0.12500175567E+03 0.  0.
          2    1    1    2  501    0  0.91679935167E+02 -0.15074527840E+03 -0.25883322386E+03  0.31324748562E+03  0.00000000000E+00 0. -1.
          1    1    1    2  502    0  0.12344611406E+03  0.58919468003E+02 -0.27317190760E+02  0.13948718829E+03  0.00000000000E+00 0. -1.
         22    1    3    3    0    0 -0.20109453910E+03  0.81272529375E+02 -0.48348395441E+03  0.52990656899E+03  0.00000000000E+00 0. -1.
         22    1    3    3    0    0 -0.14031510132E+02  0.10553281022E+02 -0.24023978267E+03  0.24088048529E+03  0.00000000000E+00 0. -1.
</event>
<event>
 7    1  0.6122298E-006  0.1528304E+03  0.7818608E-02  0.1209526E+00
          2   -1    0    0  502    0  0.00000000000E+00  0.00000000000E+00  0.12395752470E+04  0.12395752470E+04  0.00000000000E+00 0. -1.
          1   -1    0    0  501    0 -0.00000000000E+00 -0.00000000000E+00 -0.29271937462E+03  0.29271937462E+03  0.00000000000E+00 0. -1.
         25    2    1    2    0    0 -0.63575816926E+02  0.17416504236E+02  0.76798475198E+02  0.16082063636E+03  0.12498020710E+03 0.  0.
          2    1    1    2  501    0 -0.14863485699E+02  0.13271872961E+03 -0.22594327046E+03  0.26246056059E+03  0.00000000000E+00 0. -1.
          1    1    1    2  502    0  0.78439302624E+02 -0.15013523385E+03  0.10960006677E+04  0.11090134247E+04  0.00000000000E+00 0. -1.
         22    1    3    3    0    0  0.67334291394E+01 -0.45273447846E+02  0.15028987766E+02  0.48175664200E+02  0.00000000000E+00 0. -1.
         22    1    3    3    0    0 -0.70309246065E+02  0.62689952082E+02  0.61769487433E+02  0.11264497216E+03  0.00000000000E+00 0. -1.
</event>
<event>
 7    1  0.6122298E-006  0.1233160E+03  0.7818608E-02  0.1383040E+00
          2   -1    0    0  502    0  0.00000000000E+00  0.00000000000E+00  0.11599919859E+04  0.11599919859E+04  0.00000000000E+00 0. -1.
          1   -1    0    0  501    0 -0.00000000000E+00 -0.00000000000E+00 -0.12473006097E+03  0.12473006097E+03  0.00000000000E+00 0. -1.
         25    2    1    2    0    0  0.12091464211E+03  0.59651366968E+01  0.31359505276E+03  0.35864002459E+03  0.12499950636E+03 0.  0.
          2    1    1    2  501    0 -0.12105230574E+03  0.26909747215E+02 -0.64122832550E+02  0.13960491709E+03  0.00000000000E+00 0. -1.
          1    1    1    2  502    0  0.13766362807E+00 -0.32874883912E+02  0.78578970468E+03  0.78647710515E+03  0.00000000000E+00 0. -1.
         22    1    3    3    0    0  0.11714060926E+01  0.15163661375E+01  0.17669891976E+03  0.17670930876E+03  0.00000000000E+00 0.  1.
         22    1    3    3    0    0  0.11974323602E+03  0.44487705593E+01  0.13689613300E+03  0.18193071583E+03  0.00000000000E+00 0.  1.
</event>
<event>
 7    1  0.6122298E-006  0.3405144E+03  0.7818608E-02  0.1170335E+00
          2   -1    0    0  502    0  0.00000000000E+00  0.00000000000E+00  0.20683545935E+04  0.20683545935E+04  0.00000000000E+00 0. -1.
          1   -1    0    0  501    0 -0.00000000000E+00 -0.00000000000E+00 -0.62037148631E+03  0.62037148631E+03  0.00000000000E+00 0. -1.
         25    2    1    2    0    0  0.31503629102E+03  0.34602898696E+02  0.33194822128E+03  0.47566675230E+03  0.12499604944E+03 0.  0.
          2    1    1    2  501    0  0.99806741665E+01  0.91889895226E+02 -0.52617082436E+03  0.53422757614E+03  0.00000000000E+00 0. -1.
          1    1    1    2  502    0 -0.32501696519E+03 -0.12649279392E+03  0.16422057103E+04  0.16788317514E+04  0.00000000000E+00 0. -1.
         22    1    3    3    0    0  0.35889895834E+02 -0.11427207031E+02 -0.23284811794E+01  0.37737083990E+02  0.00000000000E+00 0.  1.
         22    1    3    3    0    0  0.27914639519E+03  0.46030105727E+02  0.33427670246E+03  0.43792966831E+03  0.00000000000E+00 0.  1.
</event>
<event>
 7    1  0.6166115E-006  0.6967067E+02  0.7818608E-02  0.1432427E+00
          2   -1    0    0  502    0  0.00000000000E+00  0.00000000000E+00  0.21906326832E+04  0.21906326832E+04  0.00000000000E+00 0. -1.
          1   -1    0    0  501    0 -0.00000000000E+00 -0.00000000000E+00 -0.17560121120E+04  0.17560121120E+04  0.00000000000E+00 0. -1.
         25    2    1    2    0    0  0.75988981656E+02 -0.40229099699E+02 -0.69950393906E+02  0.16706142229E+03  0.12499502155E+03 0.  0.
          2    1    1    2  501    0 -0.63627281100E+01  0.39009406185E+02 -0.16367015947E+04  0.16371787710E+04  0.00000000000E+00 0. -1.
          1    1    1    2  502    0 -0.69626253546E+02  0.12196935141E+01  0.21412725598E+04  0.21424046019E+04  0.00000000000E+00 0. -1.
         22    1    3    3    0    0 -0.64089878521E+01  0.14449221378E+02  0.25253087135E+02  0.29792172354E+02  0.00000000000E+00 0.  1.
         22    1    3    3    0    0  0.82397969508E+02 -0.54678321077E+02 -0.95203481041E+02  0.13726924993E+03  0.00000000000E+00 0.  1.
</event>
<event>
 7    1  0.6122298E-006  0.9330093E+02  0.7818608E-02  0.1316872E+00
          2   -1    0    0  502    0  0.00000000000E+00  0.00000000000E+00  0.85725977965E+03  0.85725977965E+03  0.00000000000E+00 0. -1.
          1   -1    0    0  501    0 -0.00000000000E+00 -0.00000000000E+00 -0.79059824976E+02  0.79059824976E+02  0.00000000000E+00 0. -1.
         25    2    1    2    0    0  0.82638828754E+02  0.29241341763E+02  0.28542167449E+03  0.32368919936E+03  0.12499973371E+03 0.  0.
          2    1    1    2  501    0  0.64382837188E+01 -0.76170808211E+02 -0.28601675652E+02  0.81618008863E+02  0.00000000000E+00 0. -1.
          1    1    1    2  502    0 -0.89077112473E+02  0.46929466448E+02  0.52137995583E+03  0.53101239640E+03  0.00000000000E+00 0. -1.
         22    1    3    3    0    0  0.67068295062E+02  0.28771850022E+02  0.51669995051E+02  0.89419035696E+02  0.00000000000E+00 0. -1.
         22    1    3    3    0    0  0.15570533692E+02  0.46949174088E+00  0.23375167944E+03  0.23427016366E+03  0.00000000000E+00 0. -1.
</event>
<event>
 7    1  0.6122298E-006  0.1210050E+03  0.7818608E-02  0.1391710E+00
          2   -1    0    0  502    0  0.00000000000E+00  0.00000000000E+00  0.54025153921E+03  0.54025153921E+03  0.00000000000E+00 0. -1.
          1   -1    0    0  501    0 -0.00000000000E+00 -0.00000000000E+00 -0.33370124544E+03  0.33370124544E+03  0.00000000000E+00 0. -1.
         25    2    1    2    0    0 -0.93928997073E+02  0.10593153395E+03 -0.88922496254E+02  0.20875133205E+03  0.12500304763E+03 0.  0.
          2    1    1    2  501    0  0.31024661986E+02 -0.36616940777E+01 -0.17596387313E+03  0.17871547863E+03  0.00000000000E+00 0. -1.
          1    1    1    2  502    0  0.62904335087E+02 -0.10226983987E+03  0.47143666315E+03  0.48648597398E+03  0.00000000000E+00 0. -1.
         22    1    3    3    0    0 -0.79829386507E+02  0.70931690711E+02  0.56399831518E+01  0.10693851087E+03  0.00000000000E+00 0. -1.
         22    1    3    3    0    0 -0.14099610566E+02  0.34999843236E+02 -0.94562479406E+02  0.10181282118E+03  0.00000000000E+00 0. -1.
</event>
<event>
 7    1  0.6122298E-006  0.1257108E+03  0.7818608E-02  0.1358590E+00
          2   -1    0    0  502    0  0.00000000000E+00  0.00000000000E+00  0.17358812917E+04  0.17358812917E+04  0.00000000000E+00 0. -1.
          1   -1    0    0  501    0 -0.00000000000E+00 -0.00000000000E+00 -0.78196099523E+02  0.78196099523E+02  0.00000000000E+00 0. -1.
         25    2    1    2    0    0  0.29227843878E+02  0.15353816297E+03  0.30885754484E+03  0.36803095388E+03  0.12500226262E+03 0.  0.
          2    1    1    2  501    0 -0.33737483395E+02 -0.11432219284E+03  0.25201032974E+02  0.12183133268E+03  0.00000000000E+00 0. -1.
          1    1    1    2  502    0  0.45096395174E+01 -0.39215970137E+02  0.13236266143E+04  0.13242151046E+04  0.00000000000E+00 0. -1.
         22    1    3    3    0    0  0.11486739034E+02  0.22257668868E+02 -0.65869635445E+01  0.25898592352E+02  0.00000000000E+00 0.  1.
         22    1    3    3    0    0  0.17741104844E+02  0.13128049410E+03  0.31544450838E+03  0.34213236153E+03  0.00000000000E+00 0.  1.
</event>
<event>
 7    1  0.6122298E-006  0.3155322E+02  0.7818608E-02  0.1588000E+00
          2   -1    0    0  502    0  0.00000000000E+00  0.00000000000E+00  0.10102254004E+03  0.10102254004E+03  0.00000000000E+00 0. -1.
          1   -1    0    0  501    0 -0.00000000000E+00 -0.00000000000E+00 -0.42130745989E+03  0.42130745989E+03  0.00000000000E+00 0. -1.
         25    2    1    2    0    0  0.53671343473E+01 -0.26662981198E+02 -0.29054513030E+03  0.31746173714E+03  0.12500304439E+03 0.  0.
          2    1    1    2  501    0 -0.32202781274E+02  0.12540820190E+02 -0.11199265534E+03  0.11720343913E+03  0.00000000000E+00 0. -1.
          1    1    1    2  502    0  0.26835646927E+02  0.14122161008E+02  0.82252865790E+02  0.87664823665E+02  0.00000000000E+00 0. -1.
         22    1    3    3    0    0  0.41545787925E+02 -0.28425453297E+02 -0.39958656386E+02  0.64270935186E+02  0.00000000000E+00 0.  1.
         22    1    3    3    0    0 -0.36178653578E+02  0.17624720992E+01 -0.25058647392E+03  0.25319080195E+03  0.00000000000E+00 0.  1.
</event>
<event>
 7    1  0.6122298E-006  0.4376888E+02  0.7818608E-02  0.1577099E+00
          2   -1    0    0  502    0  0.00000000000E+00  0.00000000000E+00  0.23638183891E+04  0.23638183891E+04  0.00000000000E+00 0. -1.
          1   -1    0    0  501    0 -0.00000000000E+00 -0.00000000000E+00 -0.11281632291E+02  0.11281632291E+02  0.00000000000E+00 0. -1.
         25    2    1    2    0    0  0.32599498083E+02 -0.32676776145E+02  0.10490776721E+04  0.10575061737E+04  0.12499938508E+03 0.  0.
          2    1    1    2  501    0 -0.42467797280E+02  0.11483479513E+02  0.62588013808E+02  0.76502572375E+02  0.00000000000E+00 0. -1.
          1    1    1    2  502    0  0.98682991976E+01  0.21193296632E+02  0.12408710709E+04  0.12410912753E+04  0.00000000000E+00 0. -1.
         22    1    3    3    0    0  0.53519389758E+02 -0.66483241474E+02  0.86408741338E+03  0.86829223447E+03  0.00000000000E+00 0. -1.
         22    1    3    3    0    0 -0.20919891676E+02  0.33806465328E+02  0.18499025876E+03  0.18921393924E+03  0.00000000000E+00 0. -1.
</event>
<event>
 7    1  0.6122298E-006  0.9531388E+02  0.7818608E-02  0.1442031E+00
          2   -1    0    0  502    0  0.00000000000E+00  0.00000000000E+00  0.23107670933E+04  0.23107670933E+04  0.00000000000E+00 0. -1.
          1   -1    0    0  501    0 -0.00000000000E+00 -0.00000000000E+00 -0.14995300487E+03  0.14995300487E+03  0.00000000000E+00 0. -1.
         25    2    1    2    0    0  0.11696296109E+03 -0.52550074942E+00  0.54553494309E+03  0.57176401718E+03  0.12500042719E+03 0.  0.
          2    1    1    2  501    0 -0.24280058437E+02  0.11539051496E+02 -0.13426212595E+03  0.13692694918E+03  0.00000000000E+00 0. -1.
          1    1    1    2  502    0 -0.92682902655E+02 -0.11013550746E+02  0.17495412713E+04  0.17520291318E+04  0.00000000000E+00 0. -1.
         22    1    3    3    0    0  0.95251024616E+02  0.16708288691E+02  0.17295971782E+03  0.19815899826E+03  0.00000000000E+00 0. -1.
         22    1    3    3    0    0  0.21711936475E+02 -0.17233789440E+02  0.37257522527E+03  0.37360501893E+03  0.00000000000E+00 0. -1.
</event>
<event>
 7    1  0.6122298E-006  0.5069173E+02  0.7818608E-02  0.1484844E+00
          2   -1    0    0  502    0  0.00000000000E+00  0.00000000000E+00  0.47966837093E+03  0.47966837093E+03  0.00000000000E+00 0. -1.
          1   -1    0    0  501    0 -0.00000000000E+00 -0.00000000000E+00 -0.12393727445E+03  0.12393727445E+03  0.00000000000E+00 0. -1.
         25    2    1    2    0    0 -0.10187788772E+02 -0.48015833465E+02  0.23756134213E+03  0.27289147091E+03  0.12500020926E+03 0.  0.
          2    1    1    2  501    0 -0.32886301204E+02  0.17150425481E+02 -0.99761409268E+02  0.10643300560E+03  0.00000000000E+00 0. -1.
          1    1    1    2  502    0  0.43074089975E+02  0.30865407984E+02  0.21793116362E+03  0.22428116888E+03  0.00000000000E+00 0. -1.
         22    1    3    3    0    0  0.19955871478E+02 -0.37177990728E+02  0.23713092494E+03  0.24085579786E+03  0.00000000000E+00 0. -1.
         22    1    3    3    0    0 -0.30143660249E+02 -0.10837842738E+02  0.43041718858E+00  0.32035673044E+02  0.00000000000E+00 0. -1.
</event>
<event>
 7    1  0.6122298E-006  0.1396468E+03  0.7818608E-02  0.1220122E+00
          2   -1    0    0  502    0  0.00000000000E+00  0.00000000000E+00  0.12262394271E+04  0.12262394271E+04  0.00000000000E+00 0. -1.
          1   -1    0    0  501    0 -0.00000000000E+00 -0.00000000000E+00 -0.10247362382E+04  0.10247362382E+04  0.00000000000E+00 0. -1.
         25    2    1    2    0    0 -0.18153151838E+02  0.19126357356E+02  0.62644834183E+02  0.14228056000E+03  0.12499611209E+03 0.  0.
          2    1    1    2  501    0 -0.44210616527E+02  0.12293320328E+03 -0.97518689498E+03  0.98389868952E+03  0.00000000000E+00 0. -1.
          1    1    1    2  502    0  0.62363768365E+02 -0.14205956063E+03  0.11140452498E+04  0.11247964158E+04  0.00000000000E+00 0. -1.
         22    1    3    3    0    0 -0.24376311402E+02  0.70850624689E+02  0.29450311260E+02  0.80506747604E+02  0.00000000000E+00 0.  1.
         22    1    3    3    0    0  0.62231595644E+01 -0.51724267333E+02  0.33194522922E+02  0.61773812398E+02  0.00000000000E+00 0.  1.
</event>
<event>
 7    1  0.6122298E-006  0.3544727E+03  0.7818608E-02  0.1148584E+00
          2   -1    0    0  502    0  0.00000000000E+00  0.00000000000E+00  0.99364973721E+03  0.99364973721E+03  0.00000000000E+00 0. -1.
          1   -1    0    0  501    0 -0.00000000000E+00 -0.00000000000E+00 -0.40268841038E+04  0.40268841038E+04  0.00000000000E+00 0. -1.
         25    2    1    2    0    0  0.14926873929E+03 -0.31015731497E+03 -0.54891503092E+02  0.37029223165E+03  0.12499817258E+03 0.  0.
          2    1    1    2  501    0 -0.43307598127E+02  0.35328260275E+03 -0.38020270811E+04  0.38186508181E+04  0.00000000000E+00 0. -1.
          1    1    1    2  502    0 -0.10596114117E+03 -0.43125287778E+02  0.82368421755E+03  0.83159079127E+03  0.00000000000E+00 0. -1.
         22    1    3    3    0    0  0.84006781867E+02 -0.27495170337E+03 -0.66884431538E+02  0.29517639771E+03  0.00000000000E+00 0.  1.
         22    1    3    3    0    0  0.65261957425E+02 -0.35205611601E+02  0.11992928447E+02  0.75115833936E+02  0.00000000000E+00 0.  1.
</event>
<event>
 7    1  0.6122298E-006  0.4488331E+02  0.7818608E-02  0.1519960E+00
          2   -1    0    0  502    0  0.00000000000E+00  0.00000000000E+00  0.79442960336E+02  0.79442960336E+02  0.00000000000E+00 0. -1.
          1   -1    0    0  501    0 -0.00000000000E+00 -0.00000000000E+00 -0.12803633711E+04  0.12803633711E+04  0.00000000000E+00 0. -1.
         25    2    1    2    0    0 -0.37967979416E+02  0.10679024503E+02 -0.75991909828E+03  0.77114038428E+03  0.12499938922E+03 0.  0.
          2    1    1    2  501    0  0.24813733372E+02 -0.40871921303E+02 -0.50998620136E+03  0.51222276491E+03  0.00000000000E+00 0. -1.
          1    1    1    2  502    0  0.13154246044E+02  0.30192896800E+02  0.68984888921E+02  0.76443182205E+02  0.00000000000E+00 0. -1.
         22    1    3    3    0    0 -0.66406071125E+02  0.49030105259E+02 -0.43962512902E+03  0.44730746872E+03  0.00000000000E+00 0. -1.
         22    1    3    3    0    0  0.28438091709E+02 -0.38351080756E+02 -0.32029396926E+03  0.32383291556E+03  0.00000000000E+00 0. -1.
</event>
<event>
 7    1  0.6122298E-006  0.3731138E+03  0.7818608E-02  0.1099312E+00
          2   -1    0    0  502    0  0.00000000000E+00  0.00000000000E+00  0.21127010051E+04  0.21127010051E+04  0.00000000000E+00 0. -1.
          1   -1    0    0  501    0 -0.00000000000E+00 -0.00000000000E+00 -0.98526333950E+03  0.98526333950E+03  0.00000000000E+00 0. -1.
         25    2    1    2    0    0  0.18921857108E+03  0.49900708952E+02  0.70671896501E+03  0.74388529144E+03  0.12497953000E+03 0.  0.
          2    1    1    2  501    0 -0.38279651512E+03  0.20684233041E+01 -0.92104514876E+03  0.99742749932E+03  0.00000000000E+00 0. -1.
          1    1    1    2  502    0  0.19357794404E+03 -0.51969132256E+02  0.13417638494E+04  0.13566515539E+04  0.00000000000E+00 0. -1.
         22    1    3    3    0    0  0.18188676767E+03  0.47379512924E+00  0.53731872915E+03  0.56726928123E+03  0.00000000000E+00 0.  1.
         22    1    3    3    0    0  0.73318034077E+01  0.49426913822E+02  0.16940023586E+03  0.17661601021E+03  0.00000000000E+00 0.  1.
</event>
<event>
 7    1  0.6122298E-006  0.2236652E+03  0.7818608E-02  0.1256208E+00
          2   -1    0    0  502    0  0.00000000000E+00  0.00000000000E+00  0.61196224673E+03  0.61196224673E+03  0.00000000000E+00 0. -1.
          1   -1    0    0  501    0 -0.00000000000E+00 -0.00000000000E+00 -0.26675356364E+04  0.26675356364E+04  0.00000000000E+00 0. -1.
         25    2    1    2    0    0 -0.25998332674E+03 -0.25088527875E+02 -0.79371768572E+03  0.84488705063E+03  0.12500239709E+03 0.  0.
          2    1    1    2  501    0  0.20913661596E+03  0.49664806853E+02 -0.18406043261E+04  0.18531133269E+04  0.00000000000E+00 0. -1.
          1    1    1    2  502    0  0.50846710786E+02 -0.24576278978E+02  0.57874862209E+03  0.58149750564E+03  0.00000000000E+00 0. -1.
         22    1    3    3    0    0 -0.65577837164E+02  0.23627768011E+02 -0.36553350297E+03  0.37212023049E+03  0.00000000000E+00 0. -1.
         22    1    3    3    0    0 -0.19440548958E+03 -0.48716295886E+02 -0.42818418275E+03  0.47276682013E+03  0.00000000000E+00 0. -1.
</event>
<event>
 7    1  0.6122298E-006  0.2253350E+02  0.7818608E-02  0.1715292E+00
          2   -1    0    0  502    0  0.00000000000E+00  0.00000000000E+00  0.82127944245E+03  0.82127944245E+03  0.00000000000E+00 0. -1.
          1   -1    0    0  501    0 -0.00000000000E+00 -0.00000000000E+00 -0.22154041345E+03  0.22154041345E+03  0.00000000000E+00 0. -1.
         25    2    1    2    0    0 -0.38094366962E+00 -0.61640701025E+01 -0.90053972061E+02  0.15418272934E+03  0.12499782104E+03 0.  0.
          2    1    1    2  501    0 -0.18883737698E+02  0.13743498956E+02 -0.97912561761E+02  0.10065957015E+03  0.00000000000E+00 0. -1.
          1    1    1    2  502    0  0.19264681368E+02 -0.75794288539E+01  0.78770556282E+03  0.78797755640E+03  0.00000000000E+00 0. -1.
         22    1    3    3    0    0  0.39927133597E+02 -0.16228157779E+02 -0.10218512819E+03  0.11090234229E+03  0.00000000000E+00 0. -1.
         22    1    3    3    0    0 -0.40308077267E+02  0.10064087676E+02  0.12131156132E+02  0.43280387045E+02  0.00000000000E+00 0. -1.
</event>
<event>
 7    1  0.6122298E-006  0.5375968E+02  0.7818608E-02  0.1437257E+00
          2   -1    0    0  502    0  0.00000000000E+00  0.00000000000E+00  0.13702876432E+04  0.13702876432E+04  0.00000000000E+00 0. -1.
          1   -1    0    0  501    0 -0.00000000000E+00 -0.00000000000E+00 -0.12944759926E+03  0.12944759926E+03  0.00000000000E+00 0. -1.
         25    2    1    2    0    0  0.41294375632E+02 -0.72270436178E+02  0.13899221122E+03  0.20463425049E+03  0.12501240054E+03 0.  0.
          2    1    1    2  501    0  0.41510165833E+01  0.52919126892E+02 -0.88785592175E+02  0.10344344497E+03  0.00000000000E+00 0. -1.
          1    1    1    2  502    0 -0.45445392215E+02  0.19351309286E+02  0.11906334249E+04  0.11916575470E+04  0.00000000000E+00 0. -1.
         22    1    3    3    0    0  0.16633805656E+02  0.35636082702E+02  0.32204186779E+02  0.50830340615E+02  0.00000000000E+00 0.  1.
         22    1    3    3    0    0  0.24660569976E+02 -0.10790651888E+03  0.10678802444E+03  0.15380390987E+03  0.00000000000E+00 0.  1.
</event>
<event>
 7    1  0.6122298E-006  0.6178286E+02  0.7818608E-02  0.1434344E+00
          2   -1    0    0  502    0  0.00000000000E+00  0.00000000000E+00  0.76445974445E+02  0.76445974445E+02  0.00000000000E+00 0. -1.
          1   -1    0    0  501    0 -0.00000000000E+00 -0.00000000000E+00 -0.31254219116E+03  0.31254219116E+03  0.00000000000E+00 0. -1.
         25    2    1    2    0    0 -0.13801704347E+02  0.27202118388E+02 -0.17591232156E+03  0.21796200263E+03  0.12502738670E+03 0.  0.
          2    1    1    2  501    0 -0.43678575115E+02  0.47014872913E+01 -0.88996604168E+02  0.99248765535E+02  0.00000000000E+00 0. -1.
          1    1    1    2  502    0  0.57480279462E+02 -0.31903605679E+02  0.28812709016E+02  0.71777397440E+02  0.00000000000E+00 0. -1.
         22    1    3    3    0    0 -0.39175663409E+02 -0.32434202976E+02 -0.31893777761E+02  0.60032684316E+02  0.00000000000E+00 0. -1.
         22    1    3    3    0    0  0.25373959062E+02  0.59636321364E+02 -0.14401854380E+03  0.15792931831E+03  0.00000000000E+00 0. -1.
</event>
<event>
 7    1  0.6122298E-006  0.6320189E+02  0.7818608E-02  0.1456745E+00
          2   -1    0    0  502    0  0.00000000000E+00  0.00000000000E+00  0.24411635384E+04  0.24411635384E+04  0.00000000000E+00 0. -1.
          1   -1    0    0  501    0 -0.00000000000E+00 -0.00000000000E+00 -0.40837250989E+02  0.40837250989E+02  0.00000000000E+00 0. -1.
         25    2    1    2    0    0  0.26966545330E+02  0.90815990641E+01  0.12878176727E+03  0.18171002478E+03  0.12499647802E+03 0.  0.
          2    1    1    2  501    0  0.28196599938E+02  0.22977094791E+02  0.98318909981E+01  0.37678391867E+02  0.00000000000E+00 0. -1.
          1    1    1    2  502    0 -0.55163145268E+02 -0.32058693855E+02  0.22617126291E+04  0.22626123727E+04  0.00000000000E+00 0. -1.
         22    1    3    3    0    0  0.13114655548E+02 -0.14636306901E+02  0.14728627100E+03  0.14859159227E+03  0.00000000000E+00 0.  1.
         22    1    3    3    0    0  0.13851889783E+02  0.23717905965E+02 -0.18504503725E+02  0.33118432512E+02  0.00000000000E+00 0.  1.
</event>
<event>
 7    1  0.6122298E-006  0.3309468E+03  0.7818608E-02  0.1087881E+00
          2   -1    0    0  502    0  0.00000000000E+00  0.00000000000E+00  0.12944133178E+04  0.12944133178E+04  0.00000000000E+00 0. -1.
          1   -1    0    0  501    0 -0.00000000000E+00 -0.00000000000E+00 -0.56845481552E+03  0.56845481552E+03  0.00000000000E+00 0. -1.
         25    2    1    2    0    0 -0.81851529908E+02 -0.72230328776E+02 -0.15339135579E+03  0.22598810931E+03  0.12499929670E+03 0.  0.
          2    1    1    2  501    0 -0.25334042302E+03 -0.68962489513E+02 -0.30236860363E+03  0.40045470076E+03  0.00000000000E+00 0. -1.
          1    1    1    2  502    0  0.33519195293E+03  0.14119281829E+03  0.11817184617E+04  0.12364253232E+04  0.00000000000E+00 0. -1.
         22    1    3    3    0    0  0.20860658495E+02  0.59587219619E+01  0.43847762767E+01  0.22133678033E+02  0.00000000000E+00 0.  1.
         22    1    3    3    0    0 -0.10271218840E+03 -0.78189050738E+02 -0.15777613206E+03  0.20385443128E+03  0.00000000000E+00 0.  1.
</event>
<event>
 7    1  0.6122298E-006  0.2059538E+03  0.7818608E-02  0.1236558E+00
          2   -1    0    0  502    0  0.00000000000E+00  0.00000000000E+00  0.19431295211E+04  0.19431295211E+04  0.00000000000E+00 0. -1.
          1   -1    0    0  501    0 -0.00000000000E+00 -0.00000000000E+00 -0.11011188607E+04  0.11011188607E+04  0.00000000000E+00 0. -1.
         25    2    1    2    0    0  0.17215051654E+03  0.21880937262E+03  0.37939734702E+03  0.48690946625E+03  0.12500055801E+03 0.  0.
          2    1    1    2  501    0 -0.13257564003E+03 -0.15542976101E+03 -0.10364615654E+04  0.10564029948E+04  0.00000000000E+00 0. -1.
          1    1    1    2  502    0 -0.39574876515E+02 -0.63379611608E+02  0.14990748787E+04  0.15009359207E+04  0.00000000000E+00 0. -1.
         22    1    3    3    0    0  0.18432451696E+03  0.17390010272E+03  0.34912348346E+03  0.43139770512E+03  0.00000000000E+00 0.  1.
         22    1    3    3    0    0 -0.12174000413E+02  0.44909269897E+02  0.30273863561E+02  0.55511761129E+02  0.00000000000E+00 0.  1.
</event>
<event>
 7    1  0.6122298E-006  0.5105371E+02  0.7818608E-02  0.1523719E+00
          2   -1    0    0  502    0  0.00000000000E+00  0.00000000000E+00  0.85762208712E+03  0.85762208712E+03  0.00000000000E+00 0. -1.
          1   -1    0    0  501    0 -0.00000000000E+00 -0.00000000000E+00 -0.25261367153E+02  0.25261367153E+02  0.00000000000E+00 0. -1.
         25    2    1    2    0    0  0.56191714208E+02  0.25809314404E+02  0.71125236409E+03  0.72479606828E+03  0.12500314281E+03 0.  0.
          2    1    1    2  501    0 -0.26496983198E+02  0.97579178008E+01 -0.19391840955E+00  0.28237292412E+02  0.00000000000E+00 0. -1.
          1    1    1    2  502    0 -0.29694731010E+02 -0.35567232205E+02  0.12130227429E+03  0.12985009358E+03  0.00000000000E+00 0. -1.
         22    1    3    3    0    0 -0.74406825020E+00  0.58244905884E+02  0.17241133150E+03  0.18198541131E+03  0.00000000000E+00 0. -1.
         22    1    3    3    0    0  0.56935782458E+02 -0.32435591480E+02  0.53884103259E+03  0.54281065697E+03  0.00000000000E+00 0. -1.
</event>
<event>
 7    1  0.6122298E-006  0.5400223E+02  0.7818608E-02  0.1457388E+00
          2   -1    0    0  502    0  0.00000000000E+00  0.00000000000E+00  0.43156402901E+03  0.43156402901E+03  0.00000000000E+00 0. -1.
          1   -1    0    0  501    0 -0.00000000000E+00 -0.00000000000E+00 -0.49196240906E+03  0.49196240906E+03  0.00000000000E+00 0. -1.
         25    2    1    2    0    0 -0.52889612909E+02  0.41220443453E+02 -0.24281176673E+02  0.14391439425E+03  0.12500136487E+03 0.  0.
          2    1    1    2  501    0  0.40794145877E+02  0.11448470375E+02 -0.40478913069E+03  0.40700057756E+03  0.00000000000E+00 0. -1.
          1    1    1    2  502    0  0.12095467032E+02 -0.52668913828E+02  0.36867192731E+03  0.37261146627E+03  0.00000000000E+00 0. -1.
         22    1    3    3    0    0  0.38668581981E+02  0.89817539981E+01  0.10056058925E+02  0.40951867581E+02  0.00000000000E+00 0.  1.
         22    1    3    3    0    0 -0.91558194889E+02  0.32238689455E+02 -0.34337235597E+02  0.10296252667E+03  0.00000000000E+00 0.  1.
</event>
<event>
 7    1  0.6122298E-006  0.1388889E+03  0.7818608E-02  0.1253566E+00
          2   -1    0    0  502    0  0.00000000000E+00  0.00000000000E+00  0.17340633381E+04  0.17340633381E+04  0.00000000000E+00 0. -1.
          1   -1    0    0  501    0 -0.00000000000E+00 -0.00000000000E+00 -0.30839182210E+02  0.30839182210E+02  0.00000000000E+00 0. -1.
         25    2    1    2    0    0 -0.84062248940E+02 -0.10144089156E+03  0.90952387957E+03  0.92747746593E+03  0.12499618443E+03 0.  0.
          2    1    1    2  501    0 -0.72350716650E+02  0.59001626781E+02  0.18107887418E+03  0.20372868437E+03  0.00000000000E+00 0. -1.
          1    1    1    2  502    0  0.15641296559E+03  0.42439264783E+02  0.61262140217E+03  0.63369637004E+03  0.00000000000E+00 0. -1.
         22    1    3    3    0    0  0.23365367768E+02 -0.13876104136E+02  0.34965229016E+03  0.35070673032E+03  0.00000000000E+00 0.  1.
         22    1    3    3    0    0 -0.10742761671E+03 -0.87564787428E+02  0.55987158941E+03  0.57677073561E+03  0.00000000000E+00 0.  1.
</event>
<event>
 7    1  0.6122298E-006  0.1454968E+03  0.7818608E-02  0.1335454E+00
          2   -1    0    0  502    0  0.00000000000E+00  0.00000000000E+00  0.53209543000E+03  0.53209543000E+03  0.00000000000E+00 0. -1.
          1   -1    0    0  501    0 -0.00000000000E+00 -0.00000000000E+00 -0.19278045913E+03  0.19278045913E+03  0.00000000000E+00 0. -1.
         25    2    1    2    0    0 -0.42626822538E+02 -0.13325268562E+03  0.15686782307E+02  0.18827456741E+03  0.12501165294E+03 0.  0.
          2    1    1    2  501    0  0.46845161848E+01  0.15027692748E+03 -0.51689174008E+02  0.15898701310E+03  0.00000000000E+00 0. -1.
          1    1    1    2  502    0  0.37942306353E+02 -0.17024241856E+02  0.37531736257E+03  0.37761430861E+03  0.00000000000E+00 0. -1.
         22    1    3    3    0    0 -0.61203125405E+02 -0.61648100408E+02 -0.40045128495E+02  0.95655230696E+02  0.00000000000E+00 0. -1.
         22    1    3    3    0    0  0.18576302868E+02 -0.71604585216E+02  0.55731910803E+02  0.92619336717E+02  0.00000000000E+00 0. -1.
</event>
<event>
 7    1  0.6122298E-006  0.4211603E+03  0.7818608E-02  0.1239697E+00
          2   -1    0    0  502    0  0.00000000000E+00  0.00000000000E+00  0.51942693888E+03  0.51942693888E+03  0.00000000000E+00 0. -1.
          1   -1    0    0  501    0 -0.00000000000E+00 -0.00000000000E+00 -0.47667600137E+03  0.47667600137E+03  0.00000000000E+00 0. -1.
         25    2    1    2    0    0  0.38277506150E+03 -0.16508951481E+03 -0.13959544477E+03  0.45703805597E+03  0.12500240316E+03 0.  0.
          2    1    1    2  501    0 -0.37946726232E+03  0.20032403582E+03  0.87631981547E+02  0.43795489116E+03  0.00000000000E+00 0. -1.
          1    1    1    2  502    0 -0.33077991821E+01 -0.35234521010E+02  0.94714400727E+02  0.10110999313E+03  0.00000000000E+00 0. -1.
         22    1    3    3    0    0  0.19710549345E+01  0.13778088828E+02 -0.87526320630E+01  0.16441695696E+02  0.00000000000E+00 0.  1.
         22    1    3    3    0    0  0.38080400657E+03 -0.17886760363E+03 -0.13084281270E+03  0.44059636027E+03  0.00000000000E+00 0.  1.
</event>
<event>
 7    1  0.6122298E-006  0.8398732E+02  0.7818608E-02  0.1367710E+00
          2   -1    0    0  502    0  0.00000000000E+00  0.00000000000E+00  0.66523843930E+03  0.66523843930E+03  0.00000000000E+00 0. -1.
          1   -1    0    0  501    0 -0.00000000000E+00 -0.00000000000E+00 -0.30474882798E+03  0.30474882798E+03  0.00000000000E+00 0. -1.
         25    2    1    2    0    0  0.12595089422E+03 -0.42949888980E+02  0.24943903304E+03  0.30911712550E+03  0.12500098142E+03 0.  0.
          2    1    1    2  501    0 -0.71207057768E+02  0.42534163632E+02 -0.26663478848E+03  0.27923773130E+03  0.00000000000E+00 0. -1.
          1    1    1    2  502    0 -0.54743836456E+02  0.41572534763E+00  0.37768536677E+03  0.38163241048E+03  0.00000000000E+00 0. -1.
         22    1    3    3    0    0  0.39772200250E+02 -0.30918495201E+02  0.20560275594E+03  0.21168437474E+03  0.00000000000E+00 0.  1.
         22    1    3    3    0    0  0.86178693973E+02 -0.12031393779E+02  0.43836277101E+02  0.97432750763E+02  0.00000000000E+00 0.  1.
</event>
<event>
 7    1  0.6122298E-006  0.4259998E+02  0.7818608E-02  0.1491061E+00
          2   -1    0    0  502    0  0.00000000000E+00  0.00000000000E+00  0.29050546394E+04  0.29050546394E+04  0.00000000000E+00 0. -1.
          1   -1    0    0  501    0 -0.00000000000E+00 -0.00000000000E+00 -0.27245611067E+04  0.27245611067E+04  0.00000000000E+00 0. -1.
         25    2    1    2    0    0  0.57165548787E+02 -0.19801545510E+02 -0.17705696745E+03  0.22500404938E+03  0.12497060192E+03 0.  0.
          2    1    1    2  501    0 -0.19067689700E+02  0.38087221618E+02 -0.25231958876E+04  0.25235553690E+04  0.00000000000E+00 0. -1.
          1    1    1    2  502    0 -0.38097859087E+02 -0.18285676108E+02  0.28807463877E+04  0.28810563277E+04  0.00000000000E+00 0. -1.
         22    1    3    3    0    0 -0.24765097945E+02 -0.44885897272E+02 -0.48936710768E+02  0.70872106720E+02  0.00000000000E+00 0. -1.
         22    1    3    3    0    0  0.81930646732E+02  0.25084351762E+02 -0.12812025668E+03  0.15413194266E+03  0.00000000000E+00 0. -1.
</event>
<event>
 7    1  0.6122298E-006  0.1387920E+03  0.7818608E-02  0.1311978E+00
          2   -1    0    0  502    0  0.00000000000E+00  0.00000000000E+00  0.26830463742E+03  0.26830463742E+03  0.00000000000E+00 0. -1.
          1   -1    0    0  501    0 -0.00000000000E+00 -0.00000000000E+00 -0.59145121369E+03  0.59145121369E+03  0.00000000000E+00 0. -1.
         25    2    1    2    0    0  0.31229111111E+02 -0.11538112345E+03 -0.35594338021E+03  0.39573810073E+03  0.12499957370E+03 0.  0.
          2    1    1    2  501    0 -0.48107919344E+02 -0.23869788145E+02 -0.19182222473E+03  0.19919815408E+03  0.00000000000E+00 0. -1.
          1    1    1    2  502    0  0.16878808233E+02  0.13925091160E+03  0.22461902867E+03  0.26481959630E+03  0.00000000000E+00 0. -1.
         22    1    3    3    0    0 -0.12182084896E+01 -0.13460316602E+03 -0.29130575324E+03  0.32090269273E+03  0.00000000000E+00 0. -1.
         22    1    3    3    0    0  0.32447319601E+02  0.19222042566E+02 -0.64637626974E+02  0.74835408000E+02  0.00000000000E+00 0. -1.
</event>
<event>
 7    1  0.6122298E-006  0.6404207E+02  0.7818608E-02  0.1388522E+00
          2   -1    0    0  502    0  0.00000000000E+00  0.00000000000E+00  0.37785014052E+04  0.37785014052E+04  0.00000000000E+00 0. -1.
          1   -1    0    0  501    0 -0.00000000000E+00 -0.00000000000E+00 -0.13375036874E+04  0.13375036874E+04  0.00000000000E+00 0. -1.
         25    2    1    2    0    0  0.42523637171E+01  0.87137993551E+01 -0.20086863528E+02  0.12697397061E+03  0.12499957692E+03 0.  0.
          2    1    1    2  501    0 -0.64727472067E+02 -0.55457637269E+01 -0.12628921816E+04  0.12645620046E+04  0.00000000000E+00 0. -1.
          1    1    1    2  502    0  0.60475108350E+02 -0.31680356282E+01  0.37239767629E+04  0.37244691174E+04  0.00000000000E+00 0. -1.
         22    1    3    3    0    0 -0.53900609485E+02  0.29872519397E+02  0.89357840084E+00  0.61631498443E+02  0.00000000000E+00 0.  1.
         22    1    3    3    0    0  0.58152973202E+02 -0.21158720042E+02 -0.20980441929E+02  0.65342472172E+02  0.00000000000E+00 0.  1.
</event>
<event>
 7    1  0.6122298E-006  0.2276705E+02  0.7818608E-02  0.1703954E+00
          2   -1    0    0  502    0  0.00000000000E+00  0.00000000000E+00  0.33775192021E+03  0.33775192021E+03  0.00000000000E+00 0. -1.
          1   -1    0    0  501    0 -0.00000000000E+00 -0.00000000000E+00 -0.55014713927E+02  0.55014713927E+02  0.00000000000E+00 0. -1.
         25    2    1    2    0    0  0.73882098588E+01  0.36599421472E+02  0.17987974655E+03  0.22220555885E+03  0.12499793545E+03 0.  0.
          2    1    1    2  501    0 -0.15120893912E+02 -0.15628192423E+02 -0.29321716857E+02  0.36505409332E+02  0.00000000000E+00 0. -1.
          1    1    1    2  502    0  0.77326840528E+01 -0.20971229049E+02  0.13217917659E+03  0.13405566596E+03  0.00000000000E+00 0. -1.
         22    1    3    3    0    0 -0.11272492927E+02  0.33363407725E+02 -0.56890131471E+01  0.35672831993E+02  0.00000000000E+00 0.  1.
         22    1    3    3    0    0  0.18660702786E+02  0.32360137469E+01  0.18556875969E+03  0.18653272685E+03  0.00000000000E+00 0.  1.
</event>
<event>
 7    1  0.6122298E-006  0.1932228E+03  0.7818608E-02  0.1318956E+00
          2   -1    0    0  502    0  0.00000000000E+00  0.00000000000E+00  0.10639973563E+04  0.10639973563E+04  0.00000000000E+00 0. -1.
          1   -1    0    0  501    0 -0.00000000000E+00 -0.00000000000E+00 -0.20497901331E+03  0.20497901331E+03  0.00000000000E+00 0. -1.
         25    2    1    2    0    0  0.20854849403E+03 -0.46502657114E+02  0.12110570280E+03  0.27558540020E+03  0.12500300025E+03 0.  0.
          2    1    1    2  501    0 -0.17589111120E+03  0.62186466731E+02 -0.58990461685E+02  0.19566480065E+03  0.00000000000E+00 0. -1.
          1    1    1    2  502    0 -0.32657382829E+02 -0.15683809617E+02  0.79690310187E+03  0.79772616875E+03  0.00000000000E+00 0. -1.
         22    1    3    3    0    0  0.11525196507E+03 -0.40594899453E+02 -0.50832176540E+00  0.12219337013E+03  0.00000000000E+00 0.  1.
         22    1    3    3    0    0  0.93296528961E+02 -0.59077576609E+01  0.12161402456E+03  0.15339203006E+03  0.00000000000E+00 0.  1.
</event>
<event>
 7    1  0.6122298E-006  0.8564580E+02  0.7818608E-02  0.1383848E+00
          2   -1    0    0  502    0  0.00000000000E+00  0.00000000000E+00  0.20451450069E+03  0.20451450069E+03  0.00000000000E+00 0. -1.
          1   -1    0    0  501    0 -0.00000000000E+00 -0.00000000000E+00 -0.30110314575E+03  0.30110314575E+03  0.00000000000E+00 0. -1.
         25    2    1    2    0    0  0.10105532278E+03 -0.70066809240E+02 -0.12785569530E+03  0.21701118232E+03  0.12500095365E+03 0.  0.
          2    1    1    2  501    0 -0.63237475041E+02  0.42116184436E+02 -0.11339322163E+03  0.13649459313E+03  0.00000000000E+00 0. -1.
          1    1    1    2  502    0 -0.37817847740E+02  0.27950624804E+02  0.14466027188E+03  0.15211187099E+03  0.00000000000E+00 0. -1.
         22    1    3    3    0    0  0.87873532135E+02 -0.41451825080E+02 -0.14984743636E+03  0.17858965714E+03  0.00000000000E+00 0. -1.
         22    1    3    3    0    0  0.13181790646E+02 -0.28614984160E+02  0.21991741055E+02  0.38421525188E+02  0.00000000000E+00 0. -1.
</event>
<event>
 7    1  0.6122298E-006  0.8140327E+02  0.7818608E-02  0.1372761E+00
          2   -1    0    0  502    0  0.00000000000E+00  0.00000000000E+00  0.29799308882E+03  0.29799308882E+03  0.00000000000E+00 0. -1.
          1   -1    0    0  501    0 -0.00000000000E+00 -0.00000000000E+00 -0.11826394751E+04  0.11826394751E+04  0.00000000000E+00 0. -1.
         25    2    1    2    0    0 -0.70552036234E+01 -0.88991624178E+02  0.23762019292E+02  0.15543279738E+03  0.12500174346E+03 0.  0.
          2    1    1    2  501    0  0.50680365736E+02  0.19130558348E+02 -0.11079784010E+04  0.11093018592E+04  0.00000000000E+00 0. -1.
          1    1    1    2  502    0 -0.43625162112E+02  0.69861065830E+02  0.19956999546E+03  0.21589790730E+03  0.00000000000E+00 0. -1.
         22    1    3    3    0    0 -0.36188838268E+02 -0.65017499873E+02  0.65526543797E+02  0.99149559993E+02  0.00000000000E+00 0. -1.
         22    1    3    3    0    0  0.29133634645E+02 -0.23974124305E+02 -0.41764524505E+02  0.56283237388E+02  0.00000000000E+00 0. -1.
</event>
<event>
 7    1  0.6122298E-006  0.5487042E+02  0.7818608E-02  0.1533055E+00
          2   -1    0    0  502    0  0.00000000000E+00  0.00000000000E+00  0.25799708083E+03  0.25799708083E+03  0.00000000000E+00 0. -1.
          1   -1    0    0  501    0 -0.00000000000E+00 -0.00000000000E+00 -0.18980931725E+04  0.18980931725E+04  0.00000000000E+00 0. -1.
         25    2    1    2    0    0  0.17666170128E+02 -0.44318080518E+02 -0.12448300446E+02  0.13437505211E+03  0.12500203446E+03 0.  0.
          2    1    1    2  501    0 -0.41091841129E+02  0.36487330493E+02 -0.18234918541E+04  0.18243197107E+04  0.00000000000E+00 0. -1.
          1    1    1    2  502    0  0.23425671001E+02  0.78307500250E+01  0.19584406291E+03  0.19739549054E+03  0.00000000000E+00 0. -1.
         22    1    3    3    0    0 -0.10708765826E+02  0.31265830242E+02  0.28689094493E+02  0.43764071441E+02  0.00000000000E+00 0.  1.
         22    1    3    3    0    0  0.28374935953E+02 -0.75583910760E+02 -0.41137394939E+02  0.90610980673E+02  0.00000000000E+00 0.  1.
</event>
<event>
 7    1  0.6122298E-006  0.1325583E+03  0.7818608E-02  0.1320099E+00
          2   -1    0    0  502    0  0.00000000000E+00  0.00000000000E+00  0.11437324017E+04  0.11437324017E+04  0.00000000000E+00 0. -1.
          1   -1    0    0  501    0 -0.00000000000E+00 -0.00000000000E+00 -0.25713135081E+03  0.25713135081E+03  0.00000000000E+00 0. -1.
         25    2    1    2    0    0  0.15512172722E+03  0.48317661543E+02 -0.39482169099E+01  0.20504865104E+03  0.12502805366E+03 0.  0.
          2    1    1    2  501    0 -0.10640419615E+03 -0.67262145392E+02 -0.12589212483E+03  0.17803054866E+03  0.00000000000E+00 0. -1.
          1    1    1    2  502    0 -0.48717531062E+02  0.18944483850E+02  0.10164413926E+04  0.10177845528E+04  0.00000000000E+00 0. -1.
         22    1    3    3    0    0  0.38386420744E+02  0.52313388552E+02 -0.47473831556E+02  0.80398834581E+02  0.00000000000E+00 0.  1.
         22    1    3    3    0    0  0.11673530647E+03 -0.39957270096E+01  0.43525614647E+02  0.12464981645E+03  0.00000000000E+00 0.  1.
</event>
<event>
 7    1  0.1499680E-005  0.1070190E+03  0.7818608E-02  0.1403050E+00
          2   -1    0    0  502    0  0.00000000000E+00  0.00000000000E+00  0.16072093411E+04  0.16072093411E+04  0.00000000000E+00 0. -1.
          1   -1    0    0  501    0 -0.00000000000E+00 -0.00000000000E+00 -0.11473790004E+04  0.11473790004E+04  0.00000000000E+00 0. -1.
         25    2    1    2    0    0 -0.33502540930E+02 -0.75920868785E+02 -0.48789999202E+03  0.51044532793E+03  0.12498652734E+03 0.  0.
          2    1    1    2  501    0 -0.30763791690E+02 -0.97709187523E+01 -0.64600567776E+03  0.64681157800E+03  0.00000000000E+00 0. -1.
          1    1    1    2  502    0  0.64266332620E+02  0.85691787537E+02  0.15937360105E+04  0.15973314356E+04  0.00000000000E+00 0. -1.
         22    1    3    3    0    0 -0.56841888321E+02 -0.55691844369E+02 -0.13889417448E+03  0.16007552437E+03  0.00000000000E+00 0. -1.
         22    1    3    3    0    0  0.23339347390E+02 -0.20229024416E+02 -0.34900581754E+03  0.35036980355E+03  0.00000000000E+00 0. -1.
</event>
<event>
 7    1  0.6122298E-006  0.1568543E+03  0.7818608E-02  0.1386691E+00
          2   -1    0    0  502    0  0.00000000000E+00  0.00000000000E+00  0.37421713837E+02  0.37421713837E+02  0.00000000000E+00 0. -1.
          1   -1    0    0  501    0 -0.00000000000E+00 -0.00000000000E+00 -0.14096647222E+04  0.14096647222E+04  0.00000000000E+00 0. -1.
         25    2    1    2    0    0 -0.19204899500E+02 -0.16806655736E+03 -0.41282068766E+03  0.46331479958E+03  0.12499794992E+03 0.  0.
          2    1    1    2  501    0 -0.16503163540E+01  0.25038711142E+02 -0.53160889298E+03  0.53220078514E+03  0.00000000000E+00 0. -1.
          1    1    1    2  502    0  0.20855215854E+02  0.14302784622E+03 -0.42781342771E+03  0.45157085130E+03  0.00000000000E+00 0. -1.
         22    1    3    3    0    0 -0.41796475965E+02 -0.11776044542E+03 -0.37794408708E+03  0.39806557358E+03  0.00000000000E+00 0. -1.
         22    1    3    3    0    0  0.22591576465E+02 -0.50306111944E+02 -0.34876600573E+02  0.65249226000E+02  0.00000000000E+00 0. -1.
</event>
<event>
 7    1  0.6122298E-006  0.8656479E+02  0.7818608E-02  0.1330562E+00
          2   -1    0    0  502    0  0.00000000000E+00  0.00000000000E+00  0.11041923225E+04  0.11041923225E+04  0.00000000000E+00 0. -1.
          1   -1    0    0  501    0 -0.00000000000E+00 -0.00000000000E+00 -0.79529612574E+02  0.79529612574E+02  0.00000000000E+00 0. -1.
         25    2    1    2    0    0  0.28499719319E+02 -0.17145575357E+02  0.42926654152E+03  0.44833047291E+03  0.12499697803E+03 0.  0.
          2    1    1    2  501    0 -0.87143274686E+02 -0.26255186766E+02 -0.37404441674E+02  0.98399072212E+02  0.00000000000E+00 0. -1.
          1    1    1    2  502    0  0.58643555368E+02  0.43400762123E+02  0.63280061010E+03  0.63699238998E+03  0.00000000000E+00 0. -1.
         22    1    3    3    0    0  0.40003445195E+02 -0.64886693788E+02  0.20407442302E+03  0.21784611263E+03  0.00000000000E+00 0. -1.
         22    1    3    3    0    0 -0.11503725876E+02  0.47741118431E+02  0.22519211850E+03  0.23048436028E+03  0.00000000000E+00 0. -1.
</event>
<event>
 7    1  0.6122298E-006  0.1485005E+03  0.7818608E-02  0.1358565E+00
          2   -1    0    0  502    0  0.00000000000E+00  0.00000000000E+00  0.29522578608E+04  0.29522578608E+04  0.00000000000E+00 0. -1.
          1   -1    0    0  501    0 -0.00000000000E+00 -0.00000000000E+00 -0.30500125650E+03  0.30500125650E+03  0.00000000000E+00 0. -1.
         25    2    1    2    0    0  0.12903779700E+03 -0.71668478216E+02  0.33608481115E+02  0.19631553959E+03  0.12499254881E+03 0.  0.
          2    1    1    2  501    0  0.13745985923E+02  0.30465859553E+02 -0.22044120394E+03  0.22296063581E+03  0.00000000000E+00 0. -1.
          1    1    1    2  502    0 -0.14278378293E+03  0.41202618663E+02  0.28340893271E+04  0.28379829419E+04  0.00000000000E+00 0. -1.
         22    1    3    3    0    0  0.67027503327E+02 -0.25149588792E+02  0.78897123902E+02  0.10653611678E+03  0.00000000000E+00 0.  1.
         22    1    3    3    0    0  0.62010293675E+02 -0.46518889424E+02 -0.45288642787E+02  0.89779422812E+02  0.00000000000E+00 0.  1.
</event>
<event>
 7    1  0.6122298E-006  0.3545478E+02  0.7818608E-02  0.1571079E+00
          2   -1    0    0  502    0  0.00000000000E+00  0.00000000000E+00  0.13049487859E+02  0.13049487859E+02  0.00000000000E+00 0. -1.
          1   -1    0    0  501    0 -0.00000000000E+00 -0.00000000000E+00 -0.22066044719E+04  0.22066044719E+04  0.00000000000E+00 0. -1.
         25    2    1    2    0    0  0.53754960209E+02  0.10413110739E+02 -0.79666632963E+03  0.80827104981E+03  0.12500728214E+03 0.  0.
          2    1    1    2  501    0 -0.33103078542E+02  0.11294206147E+02 -0.13719625407E+04  0.13724083161E+04  0.00000000000E+00 0. -1.
          1    1    1    2  502    0 -0.20651881668E+02 -0.21707316886E+02 -0.24926113689E+02  0.38974593859E+02  0.00000000000E+00 0. -1.
         22    1    3    3    0    0  0.83632866843E+02 -0.21781934898E+02 -0.40303061008E+03  0.41219240867E+03  0.00000000000E+00 0. -1.
         22    1    3    3    0    0 -0.29877906634E+02  0.32195045637E+02 -0.39363571955E+03  0.39607864115E+03  0.00000000000E+00 0. -1.
</event>
<event>
 7    1  0.6122298E-006  0.2438554E+03  0.7818608E-02  0.1167876E+00
          2   -1    0    0  502    0  0.00000000000E+00  0.00000000000E+00  0.81873000489E+03  0.81873000489E+03  0.00000000000E+00 0. -1.
          1   -1    0    0  501    0 -0.00000000000E+00 -0.00000000000E+00 -0.40152354823E+03  0.40152354823E+03  0.00000000000E+00 0. -1.
         25    2    1    2    0    0 -0.17499384771E+03 -0.17924821875E+03  0.79441579826E+02  0.29101305285E+03  0.12499944665E+03 0.  0.
          2    1    1    2  501    0  0.24155427810E+03  0.64385726488E+02 -0.23390853133E+03  0.34235535935E+03  0.00000000000E+00 0. -1.
          1    1    1    2  502    0 -0.66560430388E+02  0.11486249226E+03  0.57167340817E+03  0.58688514091E+03  0.00000000000E+00 0. -1.
         22    1    3    3    0    0 -0.74322521960E+02 -0.64392732356E+00  0.12712346565E+02  0.75404613043E+02  0.00000000000E+00 0. -1.
         22    1    3    3    0    0 -0.10067132575E+03 -0.17860429143E+03  0.66729233260E+02  0.21560843981E+03  0.00000000000E+00 0. -1.
</event>
<event>
 7    1  0.6122298E-006  0.1039206E+03  0.7818608E-02  0.1325953E+00
          2   -1    0    0  502    0  0.00000000000E+00  0.00000000000E+00  0.82922301185E+03  0.82922301185E+03  0.00000000000E+00 0. -1.
          1   -1    0    0  501    0 -0.00000000000E+00 -0.00000000000E+00 -0.45460847523E+03  0.45460847523E+03  0.00000000000E+00 0. -1.
         25    2    1    2    0    0 -0.34830960629E+02  0.67057728698E+02  0.67727010101E+02  0.16100130516E+03  0.12499815027E+03 0.  0.
          2    1    1    2  501    0  0.49478680467E+02  0.39471366300E+02 -0.40143387469E+03  0.40639301707E+03  0.00000000000E+00 0. -1.
          1    1    1    2  502    0 -0.14647719838E+02 -0.10652909500E+03  0.70832140120E+03  0.71643716485E+03  0.00000000000E+00 0. -1.
         22    1    3    3    0    0  0.40966699509E+02  0.52095053934E+02  0.16486079791E+02  0.68293161736E+02  0.00000000000E+00 0. -1.
         22    1    3    3    0    0 -0.75797660137E+02  0.14962674765E+02  0.51240930310E+02  0.92708143426E+02  0.00000000000E+00 0. -1.
</event>
<event>
 7    1  0.6122298E-006  0.5783822E+02  0.7818608E-02  0.1416298E+00
          2   -1    0    0  502    0  0.00000000000E+00  0.00000000000E+00  0.32711623391E+03  0.32711623391E+03  0.00000000000E+00 0. -1.
          1   -1    0    0  501    0 -0.00000000000E+00 -0.00000000000E+00 -0.18869418302E+03  0.18869418302E+03  0.00000000000E+00 0. -1.
         25    2    1    2    0    0 -0.86721138385E+01 -0.22721329807E+02 -0.12336152898E+01  0.12734966127E+03  0.12499980013E+03 0.  0.
          2    1    1    2  501    0  0.58959731390E+02 -0.58516415568E+01 -0.11390170491E+03  0.12839038132E+03  0.00000000000E+00 0. -1.
          1    1    1    2  502    0 -0.50287617552E+02  0.28572971364E+02  0.25355737109E+03  0.26007037433E+03  0.00000000000E+00 0. -1.
         22    1    3    3    0    0 -0.38226964970E+02 -0.90439842545E+01  0.51863648633E+02  0.65060991012E+02  0.00000000000E+00 0.  1.
         22    1    3    3    0    0  0.29554851131E+02 -0.13677345553E+02 -0.53097263922E+02  0.62288670260E+02  0.00000000000E+00 0.  1.
</event>
<event>
 7    1  0.6122298E-006  0.6766609E+02  0.7818608E-02  0.1420347E+00
          2   -1    0    0  502    0  0.00000000000E+00  0.00000000000E+00  0.57213793880E+03  0.57213793880E+03  0.00000000000E+00 0. -1.
          1   -1    0    0  501    0 -0.00000000000E+00 -0.00000000000E+00 -0.39851403373E+02  0.39851403373E+02  0.00000000000E+00 0. -1.
         25    2    1    2    0    0  0.18784298770E+02  0.26825934128E+02  0.26420614959E+03  0.29410727162E+03  0.12498686777E+03 0.  0.
          2    1    1    2  501    0 -0.56933227042E+02 -0.49968536483E+02  0.40361600157E+02  0.85833010823E+02  0.00000000000E+00 0. -1.
          1    1    1    2  502    0  0.38148928273E+02  0.23142602355E+02  0.22771878568E+03  0.23204905973E+03  0.00000000000E+00 0. -1.
         22    1    3    3    0    0 -0.50443125911E+02 -0.23928701577E+01  0.73928107737E+02  0.89529882681E+02  0.00000000000E+00 0.  1.
         22    1    3    3    0    0  0.69227424681E+02  0.29218804286E+02  0.19027804185E+03  0.20457738894E+03  0.00000000000E+00 0.  1.
</event>
<event>
 7    1  0.6122298E-006  0.5193777E+02  0.7818608E-02  0.1523792E+00
          2   -1    0    0  502    0  0.00000000000E+00  0.00000000000E+00  0.69774360254E+03  0.69774360254E+03  0.00000000000E+00 0. -1.
          1   -1    0    0  501    0 -0.00000000000E+00 -0.00000000000E+00 -0.46821130156E+02  0.46821130156E+02  0.00000000000E+00 0. -1.
         25    2    1    2    0    0 -0.40925472940E+02 -0.28726102719E+02  0.36234642394E+03  0.38655029927E+03  0.12500447836E+03 0.  0.
          2    1    1    2  501    0  0.52304261806E+02  0.34245949808E+01 -0.13932602864E+02  0.54236344608E+02  0.00000000000E+00 0. -1.
          1    1    1    2  502    0 -0.11378788866E+02  0.25301507738E+02  0.30250865131E+03  0.30377808882E+03  0.00000000000E+00 0. -1.
         22    1    3    3    0    0 -0.57927201660E+02 -0.65412604964E+02  0.29807814129E+03  0.31062026318E+03  0.00000000000E+00 0. -1.
         22    1    3    3    0    0  0.17001728720E+02  0.36686502245E+02  0.64268282646E+02  0.75930036090E+02  0.00000000000E+00 0. -1.
</event>
<event>
 7    1  0.6122298E-006  0.1176504E+03  0.7818608E-02  0.1359527E+00
          2   -1    0    0  502    0  0.00000000000E+00  0.00000000000E+00  0.37483797401E+03  0.37483797401E+03  0.00000000000E+00 0. -1.
          1   -1    0    0  501    0 -0.00000000000E+00 -0.00000000000E+00 -0.14100717939E+04  0.14100717939E+04  0.00000000000E+00 0. -1.
         25    2    1    2    0    0  0.22166353175E+02 -0.84409483597E+02 -0.49011121552E+03  0.51327426402E+03  0.12500063357E+03 0.  0.
          2    1    1    2  501    0 -0.24586183209E+02 -0.33863282649E+02 -0.89824784612E+03  0.89922210570E+03  0.00000000000E+00 0. -1.
          1    1    1    2  502    0  0.24198300342E+01  0.11827276625E+03  0.35312524174E+03  0.37241339821E+03  0.00000000000E+00 0. -1.
         22    1    3    3    0    0 -0.46955104089E+02 -0.59417372805E+02 -0.19610705198E+03  0.21022174442E+03  0.00000000000E+00 0.  1.
         22    1    3    3    0    0  0.69121457264E+02 -0.24992110792E+02 -0.29400416354E+03  0.30305251960E+03  0.00000000000E+00 0.  1.
</event>
<event>
 7    1  0.6122298E-006  0.1672086E+03  0.7818608E-02  0.1300970E+00
          2   -1    0    0  502    0  0.00000000000E+00  0.00000000000E+00  0.32568778831E+03  0.32568778831E+03  0.00000000000E+00 0. -1.
          1   -1    0    0  501    0 -0.00000000000E+00 -0.00000000000E+00 -0.19951205170E+04  0.19951205170E+04  0.00000000000E+00 0. -1.
         25    2    1    2    0    0  0.15415658550E+03 -0.65623851847E+02  0.33982594333E+02  0.21177809770E+03  0.12499761263E+03 0.  0.
          2    1    1    2  501    0 -0.12827618155E+03  0.10756976321E+03 -0.18994913801E+04  0.19068543562E+04  0.00000000000E+00 0. -1.
          1    1    1    2  502    0 -0.25880403950E+02 -0.41945911359E+02  0.19607605700E+03  0.20217585147E+03  0.00000000000E+00 0. -1.
         22    1    3    3    0    0 -0.66899247915E+01 -0.45892053620E+02  0.91342341153E+00  0.46386097287E+02  0.00000000000E+00 0. -1.
         22    1    3    3    0    0  0.16084651029E+03 -0.19731798226E+02  0.33069170922E+02  0.16539200041E+03  0.00000000000E+00 0. -1.
</event>
<event>
 7    1  0.6122298E-006  0.6694992E+02  0.7818608E-02  0.1395911E+00
          2   -1    0    0  502    0  0.00000000000E+00  0.00000000000E+00  0.12885237864E+04  0.12885237864E+04  0.00000000000E+00 0. -1.
          1   -1    0    0  501    0 -0.00000000000E+00 -0.00000000000E+00 -0.15702914918E+03  0.15702914918E+03  0.00000000000E+00 0. -1.
         25    2    1    2    0    0 -0.75001362666E+01 -0.38697779257E+02  0.14552591843E+03  0.19585172607E+03  0.12500534192E+03 0.  0.
          2    1    1    2  501    0 -0.45390884828E+02  0.52248461896E+02 -0.12206590059E+03  0.14032219454E+03  0.00000000000E+00 0. -1.
          1    1    1    2  502    0  0.52891021095E+02 -0.13550682640E+02  0.11080346194E+04  0.11093790150E+04  0.00000000000E+00 0. -1.
         22    1    3    3    0    0 -0.24873904150E+02 -0.21240679453E+01 -0.15785293800E+02  0.29536388958E+02  0.00000000000E+00 0.  1.
         22    1    3    3    0    0  0.17373767884E+02 -0.36573711312E+02  0.16131121223E+03  0.16631533711E+03  0.00000000000E+00 0.  1.
</event>
<event>
 7    1  0.6122298E-006  0.8353389E+02  0.7818608E-02  0.1433169E+00
          2   -1    0    0  502    0  0.00000000000E+00  0.00000000000E+00  0.13527479657E+04  0.13527479657E+04  0.00000000000E+00 0. -1.
          1   -1    0    0  501    0 -0.00000000000E+00 -0.00000000000E+00 -0.15893485364E+04  0.15893485364E+04  0.00000000000E+00 0. -1.
         25    2    1    2    0    0 -0.22450844031E+02  0.54712513728E+02 -0.32896593423E+01  0.13832577977E+03  0.12500279971E+03 0.  0.
          2    1    1    2  501    0 -0.31226089176E+02  0.99769821220E+01 -0.15169891011E+04  0.15173432511E+04  0.00000000000E+00 0. -1.
          1    1    1    2  502    0  0.53676933207E+02 -0.64689495850E+02  0.12836781898E+04  0.12864274713E+04  0.00000000000E+00 0. -1.
         22    1    3    3    0    0  0.37480065551E+02  0.20307211224E+02  0.38607448824E+02  0.57512374721E+02  0.00000000000E+00 0.  1.
         22    1    3    3    0    0 -0.59930909581E+02  0.34405302504E+02 -0.41897108166E+02  0.80813405053E+02  0.00000000000E+00 0.  1.
</event>
<event>
 7    1  0.6122298E-006  0.8128384E+02  0.7818608E-02  0.1335546E+00
          2   -1    0    0  502    0  0.00000000000E+00  0.00000000000E+00  0.37282573579E+03  0.37282573579E+03  0.00000000000E+00 0. -1.
          1   -1    0    0  501    0 -0.00000000000E+00 -0.00000000000E+00 -0.92799661190E+03  0.92799661190E+03  0.00000000000E+00 0. -1.
         25    2    1    2    0    0 -0.31507851390E+02  0.65252915182E+02  0.17342691838E+03  0.22572512997E+03  0.12499700254E+03 0.  0.
          2    1    1    2  501    0 -0.55599701331E+02 -0.59293642157E+02 -0.88887372635E+03  0.89258252513E+03  0.00000000000E+00 0. -1.
          1    1    1    2  502    0  0.87107552721E+02 -0.59592730254E+01  0.16027593185E+03  0.18251469258E+03  0.00000000000E+00 0. -1.
         22    1    3    3    0    0  0.71293796948E+01 -0.61322620002E+01 -0.16605249092E+02  0.19083159840E+02  0.00000000000E+00 0. -1.
         22    1    3    3    0    0 -0.38637231085E+02  0.71385177183E+02  0.19003216747E+03  0.20664197013E+03  0.00000000000E+00 0. -1.
</event>
<event>
 7    1  0.6122298E-006  0.8743216E+02  0.7818608E-02  0.1411637E+00
          2   -1    0    0  502    0  0.00000000000E+00  0.00000000000E+00  0.18925136523E+03  0.18925136523E+03  0.00000000000E+00 0. -1.
          1   -1    0    0  501    0 -0.00000000000E+00 -0.00000000000E+00 -0.16620301371E+04  0.16620301371E+04  0.00000000000E+00 0. -1.
         25    2    1    2    0    0  0.46964431708E+02  0.27714364754E+02 -0.13911109939E+04  0.13977798395E+04  0.12499975429E+03 0.  0.
          2    1    1    2  501    0  0.16042011745E+02  0.33273896391E+02 -0.25584416173E+03  0.25849706654E+03  0.00000000000E+00 0. -1.
          1    1    1    2  502    0 -0.63006443453E+02 -0.60988261146E+02  0.17417638375E+03  0.19500459628E+03  0.00000000000E+00 0. -1.
         22    1    3    3    0    0  0.25671475889E+02 -0.21831406591E+02 -0.11588723386E+04  0.11593622092E+04  0.00000000000E+00 0.  1.
         22    1    3    3    0    0  0.21292955819E+02  0.49545771345E+02 -0.23223865527E+03  0.23841763028E+03  0.00000000000E+00 0.  1.
</event>
<event>
 7    1  0.6122298E-006  0.1238808E+03  0.7818608E-02  0.1385522E+00
          2   -1    0    0  502    0  0.00000000000E+00  0.00000000000E+00  0.27117110588E+03  0.27117110588E+03  0.00000000000E+00 0. -1.
          1   -1    0    0  501    0 -0.00000000000E+00 -0.00000000000E+00 -0.15036297742E+04  0.15036297742E+04  0.00000000000E+00 0. -1.
         25    2    1    2    0    0  0.10823529237E+03 -0.12556617357E+02 -0.68148890508E+03  0.70137376174E+03  0.12500191506E+03 0.  0.
          2    1    1    2  501    0  0.15026054413E+02  0.28336184142E+02 -0.79707907017E+03  0.79772411632E+03  0.00000000000E+00 0. -1.
          1    1    1    2  502    0 -0.12326134678E+03 -0.15779566785E+02  0.24610930695E+03  0.27570300199E+03  0.00000000000E+00 0. -1.
         22    1    3    3    0    0  0.19794664829E+02 -0.61203452356E+02 -0.29394116330E+03  0.30089715655E+03  0.00000000000E+00 0. -1.
         22    1    3    3    0    0  0.88440627540E+02  0.48646834999E+02 -0.38754774177E+03  0.40047660519E+03  0.00000000000E+00 0. -1.
</event>
<event>
 7    1  0.6122298E-006  0.4208341E+02  0.7818608E-02  0.1535566E+00
          2   -1    0    0  502    0  0.00000000000E+00  0.00000000000E+00  0.11776242815E+04  0.11776242815E+04  0.00000000000E+00 0. -1.
          1   -1    0    0  501    0 -0.00000000000E+00 -0.00000000000E+00 -0.21487064787E+03  0.21487064787E+03  0.00000000000E+00 0. -1.
         25    2    1    2    0    0 -0.16664113498E+02 -0.34360874497E+02 -0.67179658596E+02  0.14695666593E+03  0.12499917103E+03 0.  0.
          2    1    1    2  501    0 -0.23413718891E+02  0.21338821052E+02 -0.10507572174E+03  0.10974723147E+03  0.00000000000E+00 0. -1.
          1    1    1    2  502    0  0.40077832389E+02  0.13022053446E+02  0.11350090140E+04  0.11357910320E+04  0.00000000000E+00 0. -1.
         22    1    3    3    0    0 -0.63040915862E+02  0.13052235742E+02 -0.33388855605E+02  0.72521263152E+02  0.00000000000E+00 0. -1.
         22    1    3    3    0    0  0.46376802364E+02 -0.47413110239E+02 -0.33790802991E+02  0.74435402779E+02  0.00000000000E+00 0. -1.
</event>
<event>
 7    1  0.6122298E-006  0.6346320E+02  0.7818608E-02  0.1466047E+00
          2   -1    0    0  502    0  0.00000000000E+00  0.00000000000E+00  0.33394108672E+04  0.33394108672E+04  0.00000000000E+00 0. -1.
          1   -1    0    0  501    0 -0.00000000000E+00 -0.00000000000E+00 -0.17976848126E+03  0.17976848126E+03  0.00000000000E+00 0. -1.
         25    2    1    2    0    0  0.74157597514E+02  0.55686531802E+02  0.61249485865E+03  0.63196145279E+03  0.12499994740E+03 0.  0.
          2    1    1    2  501    0 -0.32629531101E+02 -0.90484096132E+01 -0.16798682577E+03  0.17136549726E+03  0.00000000000E+00 0. -1.
          1    1    1    2  502    0 -0.41528066413E+02 -0.46638122189E+02  0.27151343531E+04  0.27158523984E+04  0.00000000000E+00 0. -1.
         22    1    3    3    0    0 -0.30695753420E+01  0.57431393340E+02  0.11580210343E+03  0.12929777412E+03  0.00000000000E+00 0. -1.
         22    1    3    3    0    0  0.77227172856E+02 -0.17448615377E+01  0.49669275522E+03  0.50266367867E+03  0.00000000000E+00 0. -1.
</event>
<event>
 7    1  0.6122298E-006  0.1254948E+03  0.7818608E-02  0.1253580E+00
          2   -1    0    0  502    0  0.00000000000E+00  0.00000000000E+00  0.25759542269E+04  0.25759542269E+04  0.00000000000E+00 0. -1.
          1   -1    0    0  501    0 -0.00000000000E+00 -0.00000000000E+00 -0.38261162892E+03  0.38261162892E+03  0.00000000000E+00 0. -1.
         25    2    1    2    0    0 -0.23801762212E+02 -0.23978852081E+02 -0.32138795518E+02  0.13341387114E+03  0.12499939842E+03 0.  0.
          2    1    1    2  501    0  0.10602650984E+02 -0.10276273320E+03 -0.28927524231E+03  0.30716894595E+03  0.00000000000E+00 0. -1.
          1    1    1    2  502    0  0.13199111228E+02  0.12674158528E+03  0.25147566358E+04  0.25179830387E+04  0.00000000000E+00 0. -1.
         22    1    3    3    0    0  0.17298294192E+02  0.20801616287E+02  0.34089974052E+02  0.43520851933E+02  0.00000000000E+00 0. -1.
         22    1    3    3    0    0 -0.41100056404E+02 -0.44780468369E+02 -0.66228769570E+02  0.89893019209E+02  0.00000000000E+00 0. -1.
</event>
<event>
 7    1  0.6122298E-006  0.1482686E+03  0.7818608E-02  0.1370704E+00
          2   -1    0    0  502    0  0.00000000000E+00  0.00000000000E+00  0.30699423344E+03  0.30699423344E+03  0.00000000000E+00 0. -1.
          1   -1    0    0  501    0 -0.00000000000E+00 -0.00000000000E+00 -0.22507296049E+04  0.22507296049E+04  0.00000000000E+00 0. -1.
         25    2    1    2    0    0  0.80465561925E+02  0.15523216796E+03 -0.80380363080E+03  0.83204766576E+03  0.12502523181E+03 0.  0.
          2    1    1    2  501    0 -0.23577746896E+02 -0.18952526284E+02 -0.14140159559E+04  0.14143395038E+04  0.00000000000E+00 0. -1.
          1    1    1    2  502    0 -0.56887815029E+02 -0.13627964168E+03  0.27408421529E+03  0.31133666874E+03  0.00000000000E+00 0. -1.
         22    1    3    3    0    0 -0.12343150330E+02 -0.18778879270E+01 -0.22084440189E+03  0.22119703811E+03  0.00000000000E+00 0. -1.
         22    1    3    3    0    0  0.92808712255E+02  0.15711005589E+03 -0.58295922891E+03  0.61085062765E+03  0.00000000000E+00 0. -1.
</event>
<event>
 7    1  0.6122298E-006  0.1787513E+03  0.7818608E-02  0.1238138E+00
          2   -1    0    0  502    0  0.00000000000E+00  0.00000000000E+00  0.13314026321E+03  0.13314026321E+03  0.00000000000E+00 0. -1.
          1   -1    0    0  501    0 -0.00000000000E+00 -0.00000000000E+00 -0.15275282095E+04  0.15275282095E+04  0.00000000000E+00 0. -1.
         25    2    1    2    0    0  0.59522520763E+02 -0.78796991630E+02 -0.12432137381E+04  0.12533786780E+04  0.12500326124E+03 0.  0.
          2    1    1    2  501    0  0.44400718947E+02 -0.72147758077E+02 -0.20036854367E+03  0.21754143543E+03  0.00000000000E+00 0. -1.
          1    1    1    2  502    0 -0.10392323971E+03  0.15094474971E+03  0.49194335510E+02  0.18974835931E+03  0.00000000000E+00 0. -1.
         22    1    3    3    0    0  0.60350919175E+02  0.94096433618E+01 -0.73788199019E+03  0.74040570384E+03  0.00000000000E+00 0. -1.
         22    1    3    3    0    0 -0.82839841248E+00 -0.88206634992E+02 -0.50533174795E+03  0.51297297413E+03  0.00000000000E+00 0. -1.
</event>
<event>
 7    1  0.6122298E-006  0.1373049E+03  0.7818608E-02  0.1351478E+00
          2   -1    0    0  502    0  0.00000000000E+00  0.00000000000E+00  0.11508353579E+03  0.11508353579E+03  0.00000000000E+00 0. -1.
          1   -1    0    0  501    0 -0.00000000000E+00 -0.00000000000E+00 -0.13178669012E+04  0.13178669012E+04  0.00000000000E+00 0. -1.
         25    2    1    2    0    0  0.55945831756E+02 -0.86580968830E+02 -0.11375470441E+04  0.11490279368E+04  0.12500288658E+03 0.  0.
          2    1    1    2  501    0  0.32733163275E+02 -0.20047039186E+02 -0.12658333946E+03  0.13227503766E+03  0.00000000000E+00 0. -1.
          1    1    1    2  502    0 -0.88678995031E+02  0.10662800802E+03  0.61347018184E+02  0.15164746253E+03  0.00000000000E+00 0. -1.
         22    1    3    3    0    0  0.77027435449E+02 -0.39711564036E+02 -0.38074845922E+03  0.39048639327E+03  0.00000000000E+00 0.  1.
         22    1    3    3    0    0 -0.21081603693E+02 -0.46869404794E+02 -0.75679858492E+03  0.75854154353E+03  0.00000000000E+00 0.  1.
</event>
<event>
 7    1  0.6122298E-006  0.1044523E+03  0.7818608E-02  0.1279894E+00
          2   -1    0    0  502    0  0.00000000000E+00  0.00000000000E+00  0.54239350182E+03  0.54239350182E+03  0.00000000000E+00 0. -1.
          1   -1    0    0  501    0 -0.00000000000E+00 -0.00000000000E+00 -0.74383539887E+03  0.74383539887E+03  0.00000000000E+00 0. -1.
         25    2    1    2    0    0 -0.40543926196E+02  0.25173414043E+02 -0.14763684708E+03  0.19925092685E+03  0.12500712984E+03 0.  0.
          2    1    1    2  501    0 -0.18807271924E+02 -0.11112528566E+03 -0.55943338371E+03  0.57067350859E+03  0.00000000000E+00 0. -1.
          1    1    1    2  502    0  0.59351198120E+02  0.85951871620E+02  0.50562833374E+03  0.51630446525E+03  0.00000000000E+00 0. -1.
         22    1    3    3    0    0  0.31971839479E+02  0.11198886459E+02  0.33058787078E+00  0.33878058769E+02  0.00000000000E+00 0.  1.
         22    1    3    3    0    0 -0.72515765675E+02  0.13974527584E+02 -0.14796743495E+03  0.16537286808E+03  0.00000000000E+00 0.  1.
</event>
<event>
 7    1  0.6122298E-006  0.1368333E+03  0.7818608E-02  0.1261665E+00
          2   -1    0    0  502    0  0.00000000000E+00  0.00000000000E+00  0.19357842162E+03  0.19357842162E+03  0.00000000000E+00 0. -1.
          1   -1    0    0  501    0 -0.00000000000E+00 -0.00000000000E+00 -0.11822253651E+04  0.11822253651E+04  0.00000000000E+00 0. -1.
         25    2    1    2    0    0  0.33303877044E+02  0.87089029703E+02 -0.66499428930E+02  0.16952840940E+03  0.12499624085E+03 0.  0.
          2    1    1    2  501    0  0.38332725634E+02 -0.13730532498E+03 -0.10454309301E+04  0.10551056723E+04  0.00000000000E+00 0. -1.
          1    1    1    2  502    0 -0.71636602678E+02  0.50216295280E+02  0.12328341556E+03  0.15116970499E+03  0.00000000000E+00 0. -1.
         22    1    3    3    0    0 -0.32481034508E+02 -0.59222612035E+01  0.72675489520E+01  0.33806923081E+02  0.00000000000E+00 0. -1.
         22    1    3    3    0    0  0.65784911552E+02  0.93011290906E+02 -0.73766977882E+02  0.13572148632E+03  0.00000000000E+00 0. -1.
</event>
<event>
 7    1  0.6122298E-006  0.2092041E+03  0.7818608E-02  0.1249346E+00
          2   -1    0    0  502    0  0.00000000000E+00  0.00000000000E+00  0.23449002375E+04  0.23449002375E+04  0.00000000000E+00 0. -1.
          1   -1    0    0  501    0 -0.00000000000E+00 -0.00000000000E+00 -0.92248301469E+03  0.92248301469E+03  0.00000000000E+00 0. -1.
         25    2    1    2    0    0 -0.55394468698E+02 -0.20722877709E+03  0.33648634292E+03  0.41816343714E+03  0.12500115190E+03 0.  0.
          2    1    1    2  501    0  0.11234506532E+03  0.17664721671E+03 -0.86867537532E+03  0.89354494042E+03  0.00000000000E+00 0. -1.
          1    1    1    2  502    0 -0.56950596618E+02  0.30581560377E+02  0.19546062553E+04  0.19556748747E+04  0.00000000000E+00 0. -1.
         22    1    3    3    0    0 -0.11173417929E+02 -0.14194853916E+03  0.11489512731E+03  0.18296208164E+03  0.00000000000E+00 0. -1.
         22    1    3    3    0    0 -0.44221050769E+02 -0.65280237921E+02  0.22159121561E+03  0.23520135550E+03  0.00000000000E+00 0. -1.
</event>
<event>
 7    1  0.6122298E-006  0.3900269E+02  0.7818608E-02  0.1576012E+00
          2   -1    0    0  502    0  0.00000000000E+00  0.00000000000E+00  0.16251553003E+04  0.16251553003E+04  0.00000000000E+00 0. -1.
          1   -1    0    0  501    0 -0.00000000000E+00 -0.00000000000E+00 -0.14056626821E+03  0.14056626821E+03  0.00000000000E+00 0. -1.
         25    2    1    2    0    0 -0.15228300490E+01 -0.19896761402E+02  0.78415255352E+03  0.79430329958E+03  0.12499721763E+03 0.  0.
          2    1    1    2  501    0 -0.21674654391E+02  0.32525724745E+02 -0.13245834253E+03  0.13810476428E+03  0.00000000000E+00 0. -1.
          1    1    1    2  502    0  0.23197484440E+02 -0.12628963343E+02  0.83289482111E+03  0.83331350465E+03  0.00000000000E+00 0. -1.
         22    1    3    3    0    0 -0.15929572250E+02 -0.40469875277E+02  0.92708686360E+02  0.10240343062E+03  0.00000000000E+00 0. -1.
         22    1    3    3    0    0  0.14406742201E+02  0.20573113875E+02  0.69144386716E+03  0.69189986896E+03  0.00000000000E+00 0. -1.
</event>
<event>
 7    1  0.6122298E-006  0.9675504E+02  0.7818608E-02  0.1397351E+00
          2   -1    0    0  502    0  0.00000000000E+00  0.00000000000E+00  0.10911417538E+04  0.10911417538E+04  0.00000000000E+00 0. -1.
          1   -1    0    0  501    0 -0.00000000000E+00 -0.00000000000E+00 -0.54694710080E+04  0.54694710080E+04  0.00000000000E+00 0. -1.
         25    2    1    2    0    0 -0.18585335469E+02 -0.62998756027E+02  0.39730478658E+02  0.14669229374E+03  0.12500344056E+03 0.  0.
          2    1    1    2  501    0  0.28411547007E+01  0.96867942274E+02 -0.54152069404E+04  0.54160740097E+04  0.00000000000E+00 0. -1.
          1    1    1    2  502    0  0.15744180769E+02 -0.33869186247E+02  0.99714720755E+03  0.99784645839E+03  0.00000000000E+00 0. -1.
         22    1    3    3    0    0  0.93754496427E+01 -0.39718371751E+01  0.72782362725E+02  0.73491134638E+02  0.00000000000E+00 0. -1.
         22    1    3    3    0    0 -0.27960785112E+02 -0.59026918852E+02 -0.33051884067E+02  0.73201159100E+02  0.00000000000E+00 0. -1.
</event>
<event>
 7    1  0.6122298E-006  0.1086402E+03  0.7818608E-02  0.1375441E+00
          2   -1    0    0  502    0  0.00000000000E+00  0.00000000000E+00  0.62009487009E+03  0.62009487009E+03  0.00000000000E+00 0. -1.
          1   -1    0    0  501    0 -0.00000000000E+00 -0.00000000000E+00 -0.87725306647E+02  0.87725306647E+02  0.00000000000E+00 0. -1.
         25    2    1    2    0    0 -0.48939998503E+02 -0.73441311867E+02  0.37808511471E+03  0.40787482697E+03  0.12499908307E+03 0.  0.
          2    1    1    2  501    0  0.28743387991E+02  0.10762544528E+03 -0.26786101772E+02  0.11457274577E+03  0.00000000000E+00 0. -1.
          1    1    1    2  502    0  0.20196610512E+02 -0.34184133411E+02  0.18107055050E+03  0.18537260400E+03  0.00000000000E+00 0. -1.
         22    1    3    3    0    0  0.35803726846E+02 -0.55946212628E+02  0.16996176579E+03  0.18247982737E+03  0.00000000000E+00 0.  1.
         22    1    3    3    0    0 -0.84743725349E+02 -0.17495099240E+02  0.20812334891E+03  0.22539499960E+03  0.00000000000E+00 0.  1.
</event>
<event>
 7    1  0.6122298E-006  0.1480638E+03  0.7818608E-02  0.1376793E+00
          2   -1    0    0  502    0  0.00000000000E+00  0.00000000000E+00  0.24119986592E+03  0.24119986592E+03  0.00000000000E+00 0. -1.
          1   -1    0    0  501    0 -0.00000000000E+00 -0.00000000000E+00 -0.17003477056E+03  0.17003477056E+03  0.00000000000E+00 0. -1.
         25    2    1    2    0    0 -0.13296466104E+03 -0.67244859169E+02  0.36509203037E+02  0.19788759984E+03  0.12500043237E+03 0.  0.
          2    1    1    2  501    0  0.11714758466E+03  0.91326545014E+02 -0.21638871855E+02  0.15010774528E+03  0.00000000000E+00 0. -1.
          1    1    1    2  502    0  0.15817076372E+02 -0.24081685845E+02  0.56294764179E+02  0.63239291362E+02  0.00000000000E+00 0. -1.
         22    1    3    3    0    0 -0.10587886990E+03 -0.15706056943E+02 -0.28350881884E+02  0.11072844179E+03  0.00000000000E+00 0.  1.
         22    1    3    3    0    0 -0.27085791133E+02 -0.51538802227E+02  0.64860084921E+02  0.87159158052E+02  0.00000000000E+00 0.  1.
</event>
<event>
 7    1  0.6122298E-006  0.7708976E+02  0.7818608E-02  0.1410435E+00
          2   -1    0    0  502    0  0.00000000000E+00  0.00000000000E+00  0.16697745155E+03  0.16697745155E+03  0.00000000000E+00 0. -1.
          1   -1    0    0  501    0 -0.00000000000E+00 -0.00000000000E+00 -0.17966020024E+03  0.17966020024E+03  0.00000000000E+00 0. -1.
         25    2    1    2    0    0 -0.30677957650E+02  0.53391518571E+02  0.72629644900E+02  0.15713675408E+03  0.12500041130E+03 0.  0.
          2    1    1    2  501    0 -0.40042693154E+02  0.13599101898E+02 -0.81730272572E+02  0.92022770563E+02  0.00000000000E+00 0. -1.
          1    1    1    2  502    0  0.70720650804E+02 -0.66990620469E+02 -0.35821210164E+01  0.97478127146E+02  0.00000000000E+00 0. -1.
         22    1    3    3    0    0 -0.33428068082E+02  0.11061035322E+02  0.10042695151E+03  0.10642065039E+03  0.00000000000E+00 0. -1.
         22    1    3    3    0    0  0.27501104318E+01  0.42330483249E+02 -0.27797306614E+02  0.50716103700E+02  0.00000000000E+00 0. -1.
</event>
<event>
 7    1  0.6122298E-006  0.5708335E+02  0.7818608E-02  0.1479405E+00
          2   -1    0    0  502    0  0.00000000000E+00  0.00000000000E+00  0.47546518373E+03  0.47546518373E+03  0.00000000000E+00 0. -1.
          1   -1    0    0  501    0 -0.00000000000E+00 -0.00000000000E+00 -0.54363034624E+03  0.54363034624E+03  0.00000000000E+00 0. -1.
         25    2    1    2    0    0  0.68094933472E+02 -0.11910313099E+02 -0.28581203500E+02  0.14567486185E+03  0.12500201862E+03 0.  0.
          2    1    1    2  501    0 -0.53675212494E+02 -0.19126166276E+02 -0.45401615243E+03  0.45757786807E+03  0.00000000000E+00 0. -1.
          1    1    1    2  502    0 -0.14419720978E+02  0.31036479375E+02  0.41443219343E+03  0.41584280005E+03  0.00000000000E+00 0. -1.
         22    1    3    3    0    0  0.49434436592E+02 -0.67790810262E+02 -0.15349824373E+02  0.85293461563E+02  0.00000000000E+00 0. -1.
         22    1    3    3    0    0  0.18660496881E+02  0.55880497163E+02 -0.13231379127E+02  0.60381400287E+02  0.00000000000E+00 0. -1.
</event>
<event>
 7    1  0.6122298E-006  0.1090895E+03  0.7818608E-02  0.1270194E+00
          2   -1    0    0  502    0  0.00000000000E+00  0.00000000000E+00  0.14093356418E+04  0.14093356418E+04  0.00000000000E+00 0. -1.
          1   -1    0    0  501    0 -0.00000000000E+00 -0.00000000000E+00 -0.77617820365E+02  0.77617820365E+02  0.00000000000E+00 0. -1.
         25    2    1    2    0    0 -0.46875868455E+00 -0.91144981483E+01  0.14552515346E+03  0.19205797923E+03  0.12500161313E+03 0.  0.
          2    1    1    2  501    0 -0.10570337150E+03 -0.26968852259E+02  0.58586190942E+01  0.10924671692E+03  0.00000000000E+00 0. -1.
          1    1    1    2  502    0  0.10617213019E+03  0.36083350407E+02  0.11803340489E+04  0.11856487660E+04  0.00000000000E+00 0. -1.
         22    1    3    3    0    0 -0.60198456182E+02  0.11951124472E+02  0.81209345462E+02  0.10179214750E+03  0.00000000000E+00 0.  1.
         22    1    3    3    0    0  0.59729697497E+02 -0.21065622620E+02  0.64315807995E+02  0.90265831728E+02  0.00000000000E+00 0.  1.
</event>
<event>
 7    1  0.6122298E-006  0.6979872E+02  0.7818608E-02  0.1377021E+00
          2   -1    0    0  502    0  0.00000000000E+00  0.00000000000E+00  0.18742120623E+04  0.18742120623E+04  0.00000000000E+00 0. -1.
          1   -1    0    0  501    0 -0.00000000000E+00 -0.00000000000E+00 -0.60854359370E+02  0.60854359370E+02  0.00000000000E+00 0. -1.
         25    2    1    2    0    0 -0.10744895361E+03  0.25826944261E+02  0.48759551584E+03  0.51534991249E+03  0.12499534614E+03 0.  0.
          2    1    1    2  501    0  0.57485127152E+02  0.20419127638E+02 -0.25947820745E+02  0.66293061617E+02  0.00000000000E+00 0. -1.
          1    1    1    2  502    0  0.49963826461E+02 -0.46246071900E+02  0.13517100079E+04  0.13534234476E+04  0.00000000000E+00 0. -1.
         22    1    3    3    0    0 -0.96071261332E+02  0.70915704951E+02  0.37417355975E+03  0.39276529541E+03  0.00000000000E+00 0.  1.
         22    1    3    3    0    0 -0.11377692280E+02 -0.45088760689E+02  0.11342195609E+03  0.12258461708E+03  0.00000000000E+00 0.  1.
</event>
<event>
 7    1  0.6122298E-006  0.6780750E+02  0.7818608E-02  0.1411606E+00
          2   -1    0    0  502    0  0.00000000000E+00  0.00000000000E+00  0.42192525488E+03  0.42192525488E+03  0.00000000000E+00 0. -1.
          1   -1    0    0  501    0 -0.00000000000E+00 -0.00000000000E+00 -0.21401897546E+03  0.21401897546E+03  0.00000000000E+00 0. -1.
         25    2    1    2    0    0  0.49688322753E+01 -0.66480011874E+02  0.88935291812E+02  0.16726875038E+03  0.12500026980E+03 0.  0.
          2    1    1    2  501    0  0.41255074316E+02  0.54944535470E+02 -0.16604810121E+03  0.17970212868E+03  0.00000000000E+00 0. -1.
          1    1    1    2  502    0 -0.46223906592E+02  0.11535476404E+02  0.28501908882E+03  0.28897335128E+03  0.00000000000E+00 0. -1.
         22    1    3    3    0    0 -0.42708741912E+02 -0.66595375643E+02  0.89675313361E+02  0.11958529391E+03  0.00000000000E+00 0. -1.
         22    1    3    3    0    0  0.47677574187E+02  0.11536376906E+00 -0.74002154847E+00  0.47683456471E+02  0.00000000000E+00 0. -1.
</event>
<event>
 7    1  0.6122298E-006  0.6110900E+02  0.7818608E-02  0.1406465E+00
          2   -1    0    0  502    0  0.00000000000E+00  0.00000000000E+00  0.34477906679E+03  0.34477906679E+03  0.00000000000E+00 0. -1.
          1   -1    0    0  501    0 -0.00000000000E+00 -0.00000000000E+00 -0.67302533143E+02  0.67302533143E+02  0.00000000000E+00 0. -1.
         25    2    1    2    0    0 -0.36744734501E+02  0.12940025055E+02  0.25474235946E+03  0.28642012433E+03  0.12500079261E+03 0.  0.
          2    1    1    2  501    0 -0.52105123313E+00 -0.61371127504E+02  0.19776334777E+02  0.64480928984E+02  0.00000000000E+00 0. -1.
          1    1    1    2  502    0  0.37265785734E+02  0.48431102449E+02  0.29578394083E+01  0.61180546620E+02  0.00000000000E+00 0. -1.
         22    1    3    3    0    0 -0.51108670344E+01 -0.54385211935E+02  0.13257753770E+03  0.14338994296E+03  0.00000000000E+00 0. -1.
         22    1    3    3    0    0 -0.31633867467E+02  0.67325236991E+02  0.12216482177E+03  0.14303018137E+03  0.00000000000E+00 0. -1.
</event>
<event>
 7    1  0.6122298E-006  0.2497438E+03  0.7818608E-02  0.1356375E+00
          2   -1    0    0  502    0  0.00000000000E+00  0.00000000000E+00  0.20448398376E+04  0.20448398376E+04  0.00000000000E+00 0. -1.
          1   -1    0    0  501    0 -0.00000000000E+00 -0.00000000000E+00 -0.25405560969E+04  0.25405560969E+04  0.00000000000E+00 0. -1.
         25    2    1    2    0    0 -0.82161004364E+02  0.24690586074E+03  0.50949454449E+03  0.58559526303E+03  0.12499674600E+03 0.  0.
          2    1    1    2  501    0  0.62610166343E+02 -0.24165222065E+03 -0.24962115084E+04  0.25086625367E+04  0.00000000000E+00 0. -1.
          1    1    1    2  502    0  0.19550838021E+02 -0.52536400846E+01  0.14910007046E+04  0.14911381348E+04  0.00000000000E+00 0. -1.
         22    1    3    3    0    0 -0.87845102720E+02  0.73838860676E+02  0.18247858290E+03  0.21556292036E+03  0.00000000000E+00 0. -1.
         22    1    3    3    0    0  0.56840983561E+01  0.17306700006E+03  0.32701596159E+03  0.37003234267E+03  0.00000000000E+00 0. -1.
</event>
<event>
 7    1  0.6122298E-006  0.7576787E+02  0.7818608E-02  0.1418112E+00
          2   -1    0    0  502    0  0.00000000000E+00  0.00000000000E+00  0.92606502897E+03  0.92606502897E+03  0.00000000000E+00 0. -1.
          1   -1    0    0  501    0 -0.00000000000E+00 -0.00000000000E+00 -0.81425017700E+02  0.81425017700E+02  0.00000000000E+00 0. -1.
         25    2    1    2    0    0  0.56041684888E+02  0.72493054824E+02  0.32559370766E+03  0.36059974539E+03  0.12500000187E+03 0.  0.
          2    1    1    2  501    0 -0.67386520087E+02 -0.33572543717E+02 -0.40763977597E+02  0.85614021343E+02  0.00000000000E+00 0. -1.
          1    1    1    2  502    0  0.11344835199E+02 -0.38920511107E+02  0.55981028121E+03  0.56127627994E+03  0.00000000000E+00 0. -1.
         22    1    3    3    0    0  0.17968463652E+02  0.10193837703E+03  0.25451233823E+03  0.27475594390E+03  0.00000000000E+00 0. -1.
         22    1    3    3    0    0  0.38073221236E+02 -0.29445322203E+02  0.71081369431E+02  0.85843801495E+02  0.00000000000E+00 0. -1.
</event>
<event>
 7    1  0.6122298E-006  0.8876700E+02  0.7818608E-02  0.1332003E+00
          2   -1    0    0  502    0  0.00000000000E+00  0.00000000000E+00  0.48885668751E+03  0.48885668751E+03  0.00000000000E+00 0. -1.
          1   -1    0    0  501    0 -0.00000000000E+00 -0.00000000000E+00 -0.74452396732E+03  0.74452396732E+03  0.00000000000E+00 0. -1.
         25    2    1    2    0    0  0.60419322090E+02  0.10158348456E+03 -0.24999052274E+03  0.30346190424E+03  0.12499666815E+03 0.  0.
          2    1    1    2  501    0 -0.80217769564E+02 -0.34178345013E+02 -0.46101719485E+03  0.46919069020E+03  0.00000000000E+00 0. -1.
          1    1    1    2  502    0  0.19798447474E+02 -0.67405139548E+02  0.45534043778E+03  0.46072806040E+03  0.00000000000E+00 0. -1.
         22    1    3    3    0    0  0.36076103929E+02  0.11555336468E+03 -0.11991470643E+03  0.17039249449E+03  0.00000000000E+00 0.  1.
         22    1    3    3    0    0  0.24343218161E+02 -0.13969880115E+02 -0.13007581631E+03  0.13306940974E+03  0.00000000000E+00 0.  1.
</event>
<event>
 7    1  0.6122298E-006  0.1196319E+03  0.7818608E-02  0.1440537E+00
          2   -1    0    0  502    0  0.00000000000E+00  0.00000000000E+00  0.18400494297E+03  0.18400494297E+03  0.00000000000E+00 0. -1.
          1   -1    0    0  501    0 -0.00000000000E+00 -0.00000000000E+00 -0.36428058101E+03  0.36428058101E+03  0.00000000000E+00 0. -1.
         25    2    1    2    0    0 -0.24441208621E+02  0.13595341547E+03 -0.22643963188E+03  0.29322664793E+03  0.12500502514E+03 0.  0.
          2    1    1    2  501    0  0.10845195080E+02 -0.18747082571E+02 -0.79668321194E+02  0.82559752684E+02  0.00000000000E+00 0. -1.
          1    1    1    2  502    0  0.13596013541E+02 -0.11720633290E+03  0.12583231503E+03  0.17249912337E+03  0.00000000000E+00 0. -1.
         22    1    3    3    0    0  0.21167144526E+02  0.84681854921E+02 -0.42862415697E+02  0.97243258068E+02  0.00000000000E+00 0. -1.
         22    1    3    3    0    0 -0.45608353147E+02  0.51271560553E+02 -0.18357721618E+03  0.19598338986E+03  0.00000000000E+00 0. -1.
</event>
<event>
 7    1  0.6122298E-006  0.1754654E+03  0.7818608E-02  0.1392772E+00
          2   -1    0    0  502    0  0.00000000000E+00  0.00000000000E+00  0.30215772870E+03  0.30215772870E+03  0.00000000000E+00 0. -1.
          1   -1    0    0  501    0 -0.00000000000E+00 -0.00000000000E+00 -0.13269430333E+04  0.13269430333E+04  0.00000000000E+00 0. -1.
         25    2    1    2    0    0 -0.11094356180E+03  0.12386174894E+03 -0.10320092799E+03  0.23221897623E+03  0.12500005851E+03 0.  0.
          2    1    1    2  501    0  0.72246717829E+01  0.20102612424E+02 -0.11259980270E+04  0.11262006339E+04  0.00000000000E+00 0. -1.
          1    1    1    2  502    0  0.10371889001E+03 -0.14396436137E+03  0.20441365043E+03  0.27068115186E+03  0.00000000000E+00 0. -1.
         22    1    3    3    0    0 -0.12518476753E+03  0.10394640510E+03 -0.12029933570E+03  0.20235614971E+03  0.00000000000E+00 0.  1.
         22    1    3    3    0    0  0.14241205737E+02  0.19915343841E+02  0.17098407713E+02  0.29862826515E+02  0.00000000000E+00 0.  1.
</event>
<event>
 7    1  0.6122298E-006  0.1410145E+03  0.7818608E-02  0.1287092E+00
          2   -1    0    0  502    0  0.00000000000E+00  0.00000000000E+00  0.40200451143E+03  0.40200451143E+03  0.00000000000E+00 0. -1.
          1   -1    0    0  501    0 -0.00000000000E+00 -0.00000000000E+00 -0.82960993722E+03  0.82960993722E+03  0.00000000000E+00 0. -1.
         25    2    1    2    0    0  0.17856514819E+03  0.31173398241E+02 -0.24713089346E+03  0.33098894847E+03  0.12499085007E+03 0.  0.
          2    1    1    2  501    0 -0.11936887210E+03 -0.61470463948E+02 -0.52902017276E+03  0.54579289914E+03  0.00000000000E+00 0. -1.
          1    1    1    2  502    0 -0.59196276086E+02  0.30297065707E+02  0.34854564043E+03  0.35483260103E+03  0.00000000000E+00 0. -1.
         22    1    3    3    0    0  0.42294739056E+02  0.66242838146E+02 -0.10300500913E+03  0.12956461887E+03  0.00000000000E+00 0.  1.
         22    1    3    3    0    0  0.13627040913E+03 -0.35069439905E+02 -0.14412588432E+03  0.20142432959E+03  0.00000000000E+00 0.  1.
</event>
<event>
 7    1  0.6122298E-006  0.5174773E+02  0.7818608E-02  0.1527200E+00
          2   -1    0    0  502    0  0.00000000000E+00  0.00000000000E+00  0.62932985409E+03  0.62932985409E+03  0.00000000000E+00 0. -1.
          1   -1    0    0  501    0 -0.00000000000E+00 -0.00000000000E+00 -0.82168212968E+02  0.82168212968E+02  0.00000000000E+00 0. -1.
         25    2    1    2    0    0  0.31934091102E+02 -0.59876480006E+02  0.12056310077E+03  0.18645748478E+03  0.12500381327E+03 0.  0.
          2    1    1    2  501    0  0.68284046474E+01  0.26351253377E+02 -0.43956526585E+02  0.51702919588E+02  0.00000000000E+00 0. -1.
          1    1    1    2  502    0 -0.38762495750E+02  0.33525226629E+02  0.47055506694E+03  0.47333766269E+03  0.00000000000E+00 0. -1.
         22    1    3    3    0    0  0.68748008404E+02 -0.19498630659E+02  0.10942685898E+03  0.13069323901E+03  0.00000000000E+00 0. -1.
         22    1    3    3    0    0 -0.36813917301E+02 -0.40377849348E+02  0.11136241786E+02  0.55764245769E+02  0.00000000000E+00 0. -1.
</event>
<event>
 7    1  0.6122298E-006  0.6206614E+02  0.7818608E-02  0.1407373E+00
          2   -1    0    0  502    0  0.00000000000E+00  0.00000000000E+00  0.24054520749E+04  0.24054520749E+04  0.00000000000E+00 0. -1.
          1   -1    0    0  501    0 -0.00000000000E+00 -0.00000000000E+00 -0.57867278185E+02  0.57867278185E+02  0.00000000000E+00 0. -1.
         25    2    1    2    0    0 -0.45615576007E+02 -0.17318318876E+02  0.31998559350E+03  0.34698156538E+03  0.12499888687E+03 0.  0.
          2    1    1    2  501    0 -0.63741984422E+01  0.53418490441E+02 -0.27393712363E+02  0.60370365278E+02  0.00000000000E+00 0. -1.
          1    1    1    2  502    0  0.51989774449E+02 -0.36100171565E+02  0.20549929155E+04  0.20559674224E+04  0.00000000000E+00 0. -1.
         22    1    3    3    0    0 -0.82230325381E+02 -0.24034662152E+02  0.27784790335E+03  0.29075582332E+03  0.00000000000E+00 0.  1.
         22    1    3    3    0    0  0.36614749374E+02  0.67163432760E+01  0.42137690154E+02  0.56225742061E+02  0.00000000000E+00 0.  1.
</event>
<event>
 7    1  0.6122298E-006  0.7670565E+02  0.7818608E-02  0.1419453E+00
          2   -1    0    0  502    0  0.00000000000E+00  0.00000000000E+00  0.14651362059E+04  0.14651362059E+04  0.00000000000E+00 0. -1.
          1   -1    0    0  501    0 -0.00000000000E+00 -0.00000000000E+00 -0.47147830600E+02  0.47147830600E+02  0.00000000000E+00 0. -1.
         25    2    1    2    0    0  0.79469947334E+02 -0.20415000193E+02  0.34816638767E+03  0.37891543499E+03  0.12499931443E+03 0.  0.
          2    1    1    2  501    0 -0.23152929408E+02 -0.32166831325E+02 -0.17496910444E+02  0.43323262259E+02  0.00000000000E+00 0. -1.
          1    1    1    2  502    0 -0.56317017926E+02  0.52581831518E+02  0.10873188981E+04  0.10900453393E+04  0.00000000000E+00 0. -1.
         22    1    3    3    0    0  0.15667375168E+02  0.21381367175E+02  0.44997580280E+01  0.26886378135E+02  0.00000000000E+00 0. -1.
         22    1    3    3    0    0  0.63802572166E+02 -0.41796367368E+02  0.34366662965E+03  0.35202905686E+03  0.00000000000E+00 0. -1.
</event>
<event>
 7    1  0.6122298E-006  0.7475446E+02  0.7818608E-02  0.1434463E+00
          2   -1    0    0  502    0  0.00000000000E+00  0.00000000000E+00  0.44891602595E+03  0.44891602595E+03  0.00000000000E+00 0. -1.
          1   -1    0    0  501    0 -0.00000000000E+00 -0.00000000000E+00 -0.52793696121E+03  0.52793696121E+03  0.00000000000E+00 0. -1.
         25    2    1    2    0    0  0.62215981942E+02 -0.22656730797E+02 -0.27624459905E+03  0.31035524313E+03  0.12500057030E+03 0.  0.
          2    1    1    2  501    0 -0.55309333532E+02  0.58268628366E+02 -0.22696318365E+03  0.24076262617E+03  0.00000000000E+00 0. -1.
          1    1    1    2  502    0 -0.69066484104E+01 -0.35611897569E+02  0.42418684744E+03  0.42573511787E+03  0.00000000000E+00 0. -1.
         22    1    3    3    0    0  0.62988546730E+02  0.41566701637E+02 -0.17327660666E+03  0.18899769872E+03  0.00000000000E+00 0. -1.
         22    1    3    3    0    0 -0.77256478822E+00 -0.64223432433E+02 -0.10296799239E+03  0.12135754442E+03  0.00000000000E+00 0. -1.
</event>
<event>
 7    1  0.6122298E-006  0.1143476E+03  0.7818608E-02  0.1299039E+00
          2   -1    0    0  502    0  0.00000000000E+00  0.00000000000E+00  0.10841111558E+04  0.10841111558E+04  0.00000000000E+00 0. -1.
          1   -1    0    0  501    0 -0.00000000000E+00 -0.00000000000E+00 -0.57082847950E+03  0.57082847950E+03  0.00000000000E+00 0. -1.
         25    2    1    2    0    0 -0.21264934487E+01  0.80830302491E+02  0.33158876877E+03  0.36347480560E+03  0.12499905184E+03 0.  0.
          2    1    1    2  501    0  0.75205693311E+02 -0.87314393226E+02 -0.54704054674E+03  0.55904656277E+03  0.00000000000E+00 0. -1.
          1    1    1    2  502    0 -0.73079199863E+02  0.64840907354E+01  0.72873445432E+03  0.73241826697E+03  0.00000000000E+00 0. -1.
         22    1    3    3    0    0  0.57518591036E+02  0.37449950683E+02  0.21336309511E+03  0.22413098286E+03  0.00000000000E+00 0. -1.
         22    1    3    3    0    0 -0.59645084485E+02  0.43380351808E+02  0.11822567365E+03  0.13934382274E+03  0.00000000000E+00 0. -1.
</event>
<event>
 7    1  0.6122298E-006  0.2079770E+03  0.7818608E-02  0.1219293E+00
          2   -1    0    0  502    0  0.00000000000E+00  0.00000000000E+00  0.34840535637E+03  0.34840535637E+03  0.00000000000E+00 0. -1.
          1   -1    0    0  501    0 -0.00000000000E+00 -0.00000000000E+00 -0.69659054580E+03  0.69659054580E+03  0.00000000000E+00 0. -1.
         25    2    1    2    0    0  0.74643530050E+02 -0.14240023138E+03 -0.23038709074E+03  0.30749439704E+03  0.12500044062E+03 0.  0.
          2    1    1    2  501    0  0.88484242280E+02  0.62842473006E+00 -0.38431325317E+03  0.39436852386E+03  0.00000000000E+00 0. -1.
          1    1    1    2  502    0 -0.16312777233E+03  0.14177180665E+03  0.26651515448E+03  0.34313298127E+03  0.00000000000E+00 0. -1.
         22    1    3    3    0    0  0.61794927942E+02 -0.16574036142E+03 -0.19649335101E+03  0.26438252120E+03  0.00000000000E+00 0. -1.
         22    1    3    3    0    0  0.12848602107E+02  0.23340130032E+02 -0.33893739732E+02  0.43111875847E+02  0.00000000000E+00 0. -1.
</event>
<event>
 7    1  0.6122298E-006  0.8454429E+02  0.7818608E-02  0.1369739E+00
          2   -1    0    0  502    0  0.00000000000E+00  0.00000000000E+00  0.85753048984E+03  0.85753048984E+03  0.00000000000E+00 0. -1.
          1   -1    0    0  501    0 -0.00000000000E+00 -0.00000000000E+00 -0.24083463788E+03  0.24083463788E+03  0.00000000000E+00 0. -1.
         25    2    1    2    0    0 -0.10827554594E+03  0.62105663160E+01 -0.29770067476E+02  0.16814962657E+03  0.12500350001E+03 0.  0.
          2    1    1    2  501    0  0.69880603152E+02 -0.43434396542E+02 -0.12894666313E+03  0.15296106508E+03  0.00000000000E+00 0. -1.
          1    1    1    2  502    0  0.38394942792E+02  0.37223830226E+02  0.77541258257E+03  0.77725443606E+03  0.00000000000E+00 0. -1.
         22    1    3    3    0    0 -0.84692398894E+02  0.28687710294E+02 -0.72007143819E+02  0.11480773455E+03  0.00000000000E+00 0.  1.
         22    1    3    3    0    0 -0.23583147049E+02 -0.22477143978E+02  0.42237076343E+02  0.53341892019E+02  0.00000000000E+00 0.  1.
</event>
<event>
 7    1  0.6122298E-006  0.1319895E+03  0.7818608E-02  0.1390823E+00
          2   -1    0    0  502    0  0.00000000000E+00  0.00000000000E+00  0.67204617075E+03  0.67204617075E+03  0.00000000000E+00 0. -1.
          1   -1    0    0  501    0 -0.00000000000E+00 -0.00000000000E+00 -0.22087418699E+04  0.22087418699E+04  0.00000000000E+00 0. -1.
         25    2    1    2    0    0  0.81059826577E+00  0.15900674148E+03  0.87897661209E+02  0.22052916547E+03  0.12499325211E+03 0.  0.
          2    1    1    2  501    0  0.76113060122E+01 -0.13141895057E+03 -0.21400003724E+04  0.21440453508E+04  0.00000000000E+00 0. -1.
          1    1    1    2  502    0 -0.84219042780E+01 -0.27587790914E+02  0.51540701203E+03  0.51621352436E+03  0.00000000000E+00 0. -1.
         22    1    3    3    0    0 -0.44605449340E+02  0.13245955706E+03  0.31243704587E+02  0.14321783912E+03  0.00000000000E+00 0.  1.
         22    1    3    3    0    0  0.45416047606E+02  0.26547184422E+02  0.56653956622E+02  0.77311326349E+02  0.00000000000E+00 0.  1.
</event>
<event>
 7    1  0.6122298E-006  0.5484221E+02  0.7818608E-02  0.1557509E+00
          2   -1    0    0  502    0  0.00000000000E+00  0.00000000000E+00  0.11018887808E+04  0.11018887808E+04  0.00000000000E+00 0. -1.
          1   -1    0    0  501    0 -0.00000000000E+00 -0.00000000000E+00 -0.75956665860E+02  0.75956665860E+02  0.00000000000E+00 0. -1.
         25    2    1    2    0    0 -0.59532132367E+02 -0.11915852073E+02  0.59813603821E+03  0.61406690748E+03  0.12500153736E+03 0.  0.
          2    1    1    2  501    0  0.13207962135E+02 -0.16454180432E+02 -0.64824569513E+02  0.68171952664E+02  0.00000000000E+00 0. -1.
          1    1    1    2  502    0  0.46324170233E+02  0.28370032506E+02  0.49262064622E+03  0.49560658649E+03  0.00000000000E+00 0. -1.
         22    1    3    3    0    0 -0.46573940877E+02  0.52571155205E+02  0.24550788384E+03  0.25535657297E+03  0.00000000000E+00 0.  1.
         22    1    3    3    0    0 -0.12958191490E+02 -0.64487007279E+02  0.35262815437E+03  0.35871033451E+03  0.00000000000E+00 0.  1.
</event>
<event>
 7    1  0.6122298E-006  0.7796961E+02  0.7818608E-02  0.1378938E+00
          2   -1    0    0  502    0  0.00000000000E+00  0.00000000000E+00  0.28910985267E+04  0.28910985267E+04  0.00000000000E+00 0. -1.
          1   -1    0    0  501    0 -0.00000000000E+00 -0.00000000000E+00 -0.55750682571E+02  0.55750682571E+02  0.00000000000E+00 0. -1.
         25    2    1    2    0    0 -0.46120533082E+02 -0.48647942038E+02  0.86362986530E+02  0.16601862904E+03  0.12493956103E+03 0.  0.
          2    1    1    2  501    0  0.20293980654E+02  0.95799447850E+02  0.13757605402E+03  0.16886844139E+03  0.00000000000E+00 0. -1.
          1    1    1    2  502    0  0.25826552428E+02 -0.47151505812E+02  0.26114088035E+04  0.26119621388E+04  0.00000000000E+00 0. -1.
         22    1    3    3    0    0  0.21965250464E+02 -0.65498484376E+02  0.27151709395E+02  0.74227616199E+02  0.00000000000E+00 0. -1.
         22    1    3    3    0    0 -0.68085783546E+02  0.16850542338E+02  0.59211277135E+02  0.91791012840E+02  0.00000000000E+00 0. -1.
</event>
<event>
 7    1  0.6122298E-006  0.6604102E+02  0.7818608E-02  0.1410495E+00
          2   -1    0    0  502    0  0.00000000000E+00  0.00000000000E+00  0.92916869847E+03  0.92916869847E+03  0.00000000000E+00 0. -1.
          1   -1    0    0  501    0 -0.00000000000E+00 -0.00000000000E+00 -0.52373693435E+03  0.52373693435E+03  0.00000000000E+00 0. -1.
         25    2    1    2    0    0 -0.10382430029E+03 -0.29763838140E+02  0.20998739894E+03  0.26717953315E+03  0.12499929533E+03 0.  0.
          2    1    1    2  501    0  0.54892229032E+02  0.36103947960E+02 -0.49207333238E+03  0.49644014372E+03  0.00000000000E+00 0. -1.
          1    1    1    2  502    0  0.48932071261E+02 -0.63401098206E+01  0.68751769756E+03  0.68928595594E+03  0.00000000000E+00 0. -1.
         22    1    3    3    0    0 -0.12496693831E+03 -0.51155412813E+02  0.17504585713E+03  0.22107614984E+03  0.00000000000E+00 0. -1.
         22    1    3    3    0    0  0.21142638013E+02  0.21391574674E+02  0.34941541810E+02  0.46103383316E+02  0.00000000000E+00 0. -1.
</event>
<event>
 7    1  0.6122298E-006  0.1269225E+03  0.7818608E-02  0.1314393E+00
          2   -1    0    0  502    0  0.00000000000E+00  0.00000000000E+00  0.71363323735E+03  0.71363323735E+03  0.00000000000E+00 0. -1.
          1   -1    0    0  501    0 -0.00000000000E+00 -0.00000000000E+00 -0.24955075837E+04  0.24955075837E+04  0.00000000000E+00 0. -1.
         25    2    1    2    0    0  0.14784715421E+03 -0.24852281172E+02  0.25166927134E+03  0.31849410158E+03  0.12499861485E+03 0.  0.
          2    1    1    2  501    0 -0.27579774837E+02  0.50408172326E+02 -0.24529329268E+04  0.24536058305E+04  0.00000000000E+00 0. -1.
          1    1    1    2  502    0 -0.12026737937E+03 -0.25555891153E+02  0.41938930910E+03  0.43704088905E+03  0.00000000000E+00 0. -1.
         22    1    3    3    0    0  0.15489325128E+03 -0.54867622423E+02  0.20953233579E+03  0.26628213425E+03  0.00000000000E+00 0. -1.
         22    1    3    3    0    0 -0.70460970655E+01  0.30015341250E+02  0.42136935548E+02  0.52211967322E+02  0.00000000000E+00 0. -1.
</event>
<event>
 7    1  0.6122298E-006  0.1087932E+03  0.7818608E-02  0.1324420E+00
          2   -1    0    0  502    0  0.00000000000E+00  0.00000000000E+00  0.83441764320E+03  0.83441764320E+03  0.00000000000E+00 0. -1.
          1   -1    0    0  501    0 -0.00000000000E+00 -0.00000000000E+00 -0.99131333288E+03  0.99131333288E+03  0.00000000000E+00 0. -1.
         25    2    1    2    0    0 -0.63603983874E+02 -0.95337736720E+02 -0.99847401241E+02  0.19679848010E+03  0.12500154970E+03 0.  0.
          2    1    1    2  501    0  0.59743067476E+02 -0.13664260905E+02 -0.83808198917E+03  0.84031980026E+03  0.00000000000E+00 0. -1.
          1    1    1    2  502    0  0.38609163982E+01  0.10900199763E+03  0.78103370074E+03  0.78861269572E+03  0.00000000000E+00 0. -1.
         22    1    3    3    0    0 -0.27979947178E+02 -0.96894527158E+02 -0.11926940921E+03  0.15619417022E+03  0.00000000000E+00 0.  1.
         22    1    3    3    0    0 -0.35624036696E+02  0.15567904380E+01  0.19422007973E+02  0.40604309879E+02  0.00000000000E+00 0.  1.
</event>
<event>
 7    1  0.6122298E-006  0.6899240E+02  0.7818608E-02  0.1380305E+00
          2   -1    0    0  502    0  0.00000000000E+00  0.00000000000E+00  0.19552348292E+03  0.19552348292E+03  0.00000000000E+00 0. -1.
          1   -1    0    0  501    0 -0.00000000000E+00 -0.00000000000E+00 -0.10748520276E+04  0.10748520276E+04  0.00000000000E+00 0. -1.
         25    2    1    2    0    0 -0.37237894687E+02  0.77079586182E+01 -0.12473579987E+03  0.18063872792E+03  0.12500102732E+03 0.  0.
          2    1    1    2  501    0  0.25570050563E+02 -0.66647188372E+02 -0.91534439933E+03  0.91812365430E+03  0.00000000000E+00 0. -1.
          1    1    1    2  502    0  0.11667844124E+02  0.58939229754E+02  0.16075165449E+03  0.17161312832E+03  0.00000000000E+00 0. -1.
         22    1    3    3    0    0 -0.27656765432E+01 -0.56538309960E+02 -0.42835676812E+02  0.70986792207E+02  0.00000000000E+00 0. -1.
         22    1    3    3    0    0 -0.34472218144E+02  0.64246268578E+02 -0.81900123054E+02  0.10965193572E+03  0.00000000000E+00 0. -1.
</event>
<event>
 7    1  0.6122298E-006  0.7531266E+02  0.7818608E-02  0.1415319E+00
          2   -1    0    0  502    0  0.00000000000E+00  0.00000000000E+00  0.22657788428E+03  0.22657788428E+03  0.00000000000E+00 0. -1.
          1   -1    0    0  501    0 -0.00000000000E+00 -0.00000000000E+00 -0.12423491098E+04  0.12423491098E+04  0.00000000000E+00 0. -1.
         25    2    1    2    0    0 -0.53718711244E+02  0.63585950958E+02  0.67426681247E+02  0.16461572057E+03  0.12499241984E+03 0.  0.
          2    1    1    2  501    0  0.13403040743E+02 -0.74142477609E+02 -0.11885915621E+04  0.11909771828E+04  0.00000000000E+00 0. -1.
          1    1    1    2  502    0  0.40315670501E+02  0.10556526651E+02  0.10539365531E+03  0.11333409073E+03  0.00000000000E+00 0. -1.
         22    1    3    3    0    0 -0.23505207349E+02 -0.28178951782E+02  0.56525251867E+02  0.67391781359E+02  0.00000000000E+00 0.  1.
         22    1    3    3    0    0 -0.30213503895E+02  0.91764902740E+02  0.10901429380E+02  0.97223939208E+02  0.00000000000E+00 0.  1.
</event>
<event>
 7    1  0.6122298E-006  0.1352376E+03  0.7818608E-02  0.1430104E+00
          2   -1    0    0  502    0  0.00000000000E+00  0.00000000000E+00  0.10790332024E+04  0.10790332024E+04  0.00000000000E+00 0. -1.
          1   -1    0    0  501    0 -0.00000000000E+00 -0.00000000000E+00 -0.16000512909E+03  0.16000512909E+03  0.00000000000E+00 0. -1.
         25    2    1    2    0    0 -0.15247156289E+03 -0.15800625084E+02  0.20723499394E+03  0.28647795488E+03  0.12500415463E+03 0.  0.
          2    1    1    2  501    0  0.13183922490E+03  0.13862442473E+02 -0.83712458553E+02  0.15678496181E+03  0.00000000000E+00 0. -1.
          1    1    1    2  502    0  0.20632337993E+02  0.19381826108E+01  0.79550553792E+03  0.79577541479E+03  0.00000000000E+00 0. -1.
         22    1    3    3    0    0 -0.14587931754E+03  0.28491991089E+02  0.13130655546E+03  0.19832796159E+03  0.00000000000E+00 0.  1.
         22    1    3    3    0    0 -0.65922453502E+01 -0.44292616173E+02  0.75928438478E+02  0.88149993284E+02  0.00000000000E+00 0.  1.
</event>
<event>
 7    1  0.6122298E-006  0.1291148E+03  0.7818608E-02  0.1270654E+00
          2   -1    0    0  502    0  0.00000000000E+00  0.00000000000E+00  0.75449607985E+03  0.75449607985E+03  0.00000000000E+00 0. -1.
          1   -1    0    0  501    0 -0.00000000000E+00 -0.00000000000E+00 -0.40337785739E+03  0.40337785739E+03  0.00000000000E+00 0. -1.
         25    2    1    2    0    0  0.20294540983E+02  0.13783627680E+03  0.52698960512E+02  0.19445463551E+03  0.12499886893E+03 0.  0.
          2    1    1    2  501    0  0.61587532195E+02 -0.11521661636E+03 -0.31663399272E+03  0.34252733928E+03  0.00000000000E+00 0. -1.
          1    1    1    2  502    0 -0.81882073178E+02 -0.22619660444E+02  0.61505325467E+03  0.62089196244E+03  0.00000000000E+00 0. -1.
         22    1    3    3    0    0 -0.19580312450E+02 -0.13051831089E+02  0.27784627374E+02  0.36410499156E+02  0.00000000000E+00 0.  1.
         22    1    3    3    0    0  0.39874853434E+02  0.15088810789E+03  0.24914333137E+02  0.15804413635E+03  0.00000000000E+00 0.  1.
</event>
<event>
 7    1  0.6122298E-006  0.8976479E+02  0.7818608E-02  0.1337317E+00
          2   -1    0    0  502    0  0.00000000000E+00  0.00000000000E+00  0.21690500341E+04  0.21690500341E+04  0.00000000000E+00 0. -1.
          1   -1    0    0  501    0 -0.00000000000E+00 -0.00000000000E+00 -0.91155901230E+03  0.91155901230E+03  0.00000000000E+00 0. -1.
         25    2    1    2    0    0 -0.27725386629E+02  0.56307662882E+02  0.38716889353E+02  0.14511713745E+03  0.12498294323E+03 0.  0.
          2    1    1    2  501    0 -0.31981558828E+02 -0.85179172948E+02 -0.85541630246E+03  0.86024145571E+03  0.00000000000E+00 0. -1.
          1    1    1    2  502    0  0.59706945457E+02  0.28871510066E+02  0.20741904349E+04  0.20752504532E+04  0.00000000000E+00 0. -1.
         22    1    3    3    0    0  0.13105108199E+02  0.28556025415E+01 -0.39641497469E+02  0.41849093758E+02  0.00000000000E+00 0. -1.
         22    1    3    3    0    0 -0.40830494827E+02  0.53452060341E+02  0.78358386822E+02  0.10326804369E+03  0.00000000000E+00 0. -1.
</event>
<event>
 7    1  0.6122298E-006  0.9375165E+02  0.7818608E-02  0.1302229E+00
          2   -1    0    0  502    0  0.00000000000E+00  0.00000000000E+00  0.51132866665E+03  0.51132866665E+03  0.00000000000E+00 0. -1.
          1   -1    0    0  501    0 -0.00000000000E+00 -0.00000000000E+00 -0.11908608893E+04  0.11908608893E+04  0.00000000000E+00 0. -1.
         25    2    1    2    0    0 -0.58299615000E+02 -0.30903642185E+02  0.14536479562E+03  0.20275601574E+03  0.12500079161E+03 0.  0.
          2    1    1    2  501    0 -0.96835057586E+00  0.94447401929E+02 -0.11546078456E+04  0.11584647282E+04  0.00000000000E+00 0. -1.
          1    1    1    2  502    0  0.59267965576E+02 -0.63543759744E+02  0.32971082728E+03  0.34096881203E+03  0.00000000000E+00 0. -1.
         22    1    3    3    0    0  0.15169367716E+02  0.24805545512E+02  0.91420222100E+02  0.95932694186E+02  0.00000000000E+00 0. -1.
         22    1    3    3    0    0 -0.73468982716E+02 -0.55709187698E+02  0.53944573520E+02  0.10682332155E+03  0.00000000000E+00 0. -1.
</event>
<event>
 7    1  0.6122298E-006  0.2692527E+03  0.7818608E-02  0.1262276E+00
          2   -1    0    0  502    0  0.00000000000E+00  0.00000000000E+00  0.10415658623E+04  0.10415658623E+04  0.00000000000E+00 0. -1.
          1   -1    0    0  501    0 -0.00000000000E+00 -0.00000000000E+00 -0.51171739491E+03  0.51171739491E+03  0.00000000000E+00 0. -1.
         25    2    1    2    0    0  0.29284044368E+03  0.10188576277E+03 -0.31419674544E+03  0.45878284749E+03  0.12500348874E+03 0.  0.
          2    1    1    2  501    0 -0.37149613429E+02 -0.23937375139E+02 -0.10213477168E+03  0.11128613253E+03  0.00000000000E+00 0. -1.
          1    1    1    2  502    0 -0.25569083025E+03 -0.77948387632E+02  0.94617998455E+03  0.98321427724E+03  0.00000000000E+00 0. -1.
         22    1    3    3    0    0  0.12855090155E+02  0.33421499170E+02 -0.51365615771E+01  0.36175049613E+02  0.00000000000E+00 0. -1.
         22    1    3    3    0    0  0.27998535352E+03  0.68464263600E+02 -0.30906018386E+03  0.42260779788E+03  0.00000000000E+00 0. -1.
</event>
<event>
 7    1  0.6122298E-006  0.5247744E+02  0.7818608E-02  0.1497853E+00
          2   -1    0    0  502    0  0.00000000000E+00  0.00000000000E+00  0.38037618191E+04  0.38037618191E+04  0.00000000000E+00 0. -1.
          1   -1    0    0  501    0 -0.00000000000E+00 -0.00000000000E+00 -0.42623174470E+03  0.42623174470E+03  0.00000000000E+00 0. -1.
         25    2    1    2    0    0 -0.25271895828E+02 -0.53718641342E+02  0.13311363815E+03  0.19201074394E+03  0.12499809591E+03 0.  0.
          2    1    1    2  501    0 -0.19489802896E+02  0.26293100361E+02 -0.39591871221E+03  0.39726918610E+03  0.00000000000E+00 0. -1.
          1    1    1    2  502    0  0.44761698723E+02  0.27425540980E+02  0.36403351485E+04  0.36407136338E+04  0.00000000000E+00 0. -1.
         22    1    3    3    0    0 -0.66469305785E+02 -0.57632821027E+02  0.11961102022E+03  0.14848066146E+03  0.00000000000E+00 0. -1.
         22    1    3    3    0    0  0.41197409957E+02  0.39141796849E+01  0.13502617933E+02  0.43530082481E+02  0.00000000000E+00 0. -1.
</event>
<event>
 7    1  0.6122298E-006  0.1269610E+03  0.7818608E-02  0.1393368E+00
          2   -1    0    0  502    0  0.00000000000E+00  0.00000000000E+00  0.40485367918E+04  0.40485367918E+04  0.00000000000E+00 0. -1.
          1   -1    0    0  501    0 -0.00000000000E+00 -0.00000000000E+00 -0.14897076018E+03  0.14897076018E+03  0.00000000000E+00 0. -1.
         25    2    1    2    0    0 -0.49591587636E+02  0.94243287131E+02  0.88791096802E+02  0.18666879363E+03  0.12498102620E+03 0.  0.
          2    1    1    2  501    0  0.11058797945E+02  0.27221424208E+02 -0.96813076880E+02  0.10117348864E+03  0.00000000000E+00 0. -1.
          1    1    1    2  502    0  0.38532789691E+02 -0.12146471134E+03  0.39075880117E+04  0.39096652697E+04  0.00000000000E+00 0. -1.
         22    1    3    3    0    0  0.12724824930E+01 -0.29900223901E+02  0.18901433385E+02  0.35396423337E+02  0.00000000000E+00 0.  1.
         22    1    3    3    0    0 -0.50864070129E+02  0.12414351103E+03  0.69889663417E+02  0.15127237029E+03  0.00000000000E+00 0.  1.
</event>
<event>
 7    1  0.6122298E-006  0.1300902E+03  0.7818608E-02  0.1294203E+00
          2   -1    0    0  502    0  0.00000000000E+00  0.00000000000E+00  0.25869168060E+03  0.25869168060E+03  0.00000000000E+00 0. -1.
          1   -1    0    0  501    0 -0.00000000000E+00 -0.00000000000E+00 -0.14450880262E+04  0.14450880262E+04  0.00000000000E+00 0. -1.
         25    2    1    2    0    0  0.12014781474E+03  0.41220229035E+02 -0.37184989207E+03  0.41235169663E+03  0.12500789901E+03 0.  0.
          2    1    1    2  501    0 -0.34536044915E+02  0.57930739824E+02 -0.10338129254E+04  0.10360105568E+04  0.00000000000E+00 0. -1.
          1    1    1    2  502    0 -0.85611769827E+02 -0.99150968859E+02  0.21926647192E+03  0.25541745334E+03  0.00000000000E+00 0. -1.
         22    1    3    3    0    0  0.18126629245E+02 -0.38384522504E+02 -0.50782323248E+02  0.66187541200E+02  0.00000000000E+00 0. -1.
         22    1    3    3    0    0  0.10202118550E+03  0.79604751539E+02 -0.32106756882E+03  0.34616415543E+03  0.00000000000E+00 0. -1.
</event>
<event>
 7    1  0.6122298E-006  0.3868200E+02  0.7818608E-02  0.1520436E+00
          2   -1    0    0  502    0  0.00000000000E+00  0.00000000000E+00  0.36603447888E+04  0.36603447888E+04  0.00000000000E+00 0. -1.
          1   -1    0    0  501    0 -0.00000000000E+00 -0.00000000000E+00 -0.56291263899E+02  0.56291263899E+02  0.00000000000E+00 0. -1.
         25    2    1    2    0    0  0.30399197477E+01 -0.37420853697E+02  0.11199690428E+04  0.11275482213E+04  0.12499909244E+03 0.  0.
          2    1    1    2  501    0  0.31860807798E+02  0.22157784757E+02 -0.45167041260E+02  0.59549476195E+02  0.00000000000E+00 0. -1.
          1    1    1    2  502    0 -0.34900727545E+02  0.15263068940E+02  0.25292515234E+04  0.25295383553E+04  0.00000000000E+00 0. -1.
         22    1    3    3    0    0  0.33898159853E+02  0.36025109493E+02  0.51146155943E+03  0.51384805199E+03  0.00000000000E+00 0. -1.
         22    1    3    3    0    0 -0.30858240105E+02 -0.73445963190E+02  0.60850748333E+03  0.61370016927E+03  0.00000000000E+00 0. -1.
</event>
<event>
 7    1  0.6122298E-006  0.6934435E+02  0.7818608E-02  0.1523394E+00
          2   -1    0    0  502    0  0.00000000000E+00  0.00000000000E+00  0.91393657549E+03  0.91393657549E+03  0.00000000000E+00 0. -1.
          1   -1    0    0  501    0 -0.00000000000E+00 -0.00000000000E+00 -0.84527964609E+03  0.84527964609E+03  0.00000000000E+00 0. -1.
         25    2    1    2    0    0 -0.45082326291E+02 -0.21980639956E+02  0.31822740112E+03  0.34556408604E+03  0.12502117443E+03 0.  0.
          2    1    1    2  501    0  0.57778937747E+02  0.38498505085E+02 -0.82997492383E+03  0.83287388885E+03  0.00000000000E+00 0. -1.
          1    1    1    2  502    0 -0.12696611456E+02 -0.16517865129E+02  0.58040445210E+03  0.58077824669E+03  0.00000000000E+00 0. -1.
         22    1    3    3    0    0  0.26611147726E+02 -0.48339887191E+02  0.98022493985E+02  0.11248692015E+03  0.00000000000E+00 0.  1.
         22    1    3    3    0    0 -0.71693474017E+02  0.26359247236E+02  0.22020490714E+03  0.23307716589E+03  0.00000000000E+00 0.  1.
</event>
<event>
 7    1  0.8449396E-006  0.2004127E+03  0.7818608E-02  0.1274574E+00
          2   -1    0    0  502    0  0.00000000000E+00  0.00000000000E+00  0.17094730449E+04  0.17094730449E+04  0.00000000000E+00 0. -1.
          1   -1    0    0  501    0 -0.00000000000E+00 -0.00000000000E+00 -0.14120537086E+04  0.14120537086E+04  0.00000000000E+00 0. -1.
         25    2    1    2    0    0  0.14793980406E+03 -0.17896445994E+02 -0.31630246002E+03  0.37132000947E+03  0.12499933925E+03 0.  0.
          2    1    1    2  501    0  0.52686080228E+02  0.12493474472E+01 -0.10615625651E+04  0.10628699184E+04  0.00000000000E+00 0. -1.
          1    1    1    2  502    0 -0.20062588429E+03  0.16647098547E+02  0.16752843614E+04  0.16873368256E+04  0.00000000000E+00 0. -1.
         22    1    3    3    0    0 -0.31208954978E+01 -0.15470737367E+02 -0.13230861333E+03  0.13324658669E+03  0.00000000000E+00 0.  1.
         22    1    3    3    0    0  0.15106069956E+03 -0.24257086269E+01 -0.18399384669E+03  0.23807342278E+03  0.00000000000E+00 0.  1.
</event>
<event>
 7    1  0.6122298E-006  0.3589084E+02  0.7818608E-02  0.1543252E+00
          2   -1    0    0  502    0  0.00000000000E+00  0.00000000000E+00  0.22941127970E+04  0.22941127970E+04  0.00000000000E+00 0. -1.
          1   -1    0    0  501    0 -0.00000000000E+00 -0.00000000000E+00 -0.50200214175E+02  0.50200214175E+02  0.00000000000E+00 0. -1.
         25    2    1    2    0    0 -0.97886208899E+01 -0.22335299437E+02  0.66092528090E+03  0.67307955057E+03  0.12497668491E+03 0.  0.
          2    1    1    2  501    0  0.35055000346E+02 -0.44055567836E+01 -0.36807959217E+02  0.51020464929E+02  0.00000000000E+00 0. -1.
          1    1    1    2  502    0 -0.25266379456E+02  0.26740856220E+02  0.16197952612E+04  0.16202129957E+04  0.00000000000E+00 0. -1.
         22    1    3    3    0    0  0.41909510635E+02 -0.52211238400E+02  0.38365182658E+03  0.38944979720E+03  0.00000000000E+00 0.  1.
         22    1    3    3    0    0 -0.51698131525E+02  0.29875938963E+02  0.27727345431E+03  0.28362975337E+03  0.00000000000E+00 0.  1.
</event>
<event>
 7    1  0.6122298E-006  0.1163603E+03  0.7818608E-02  0.1421155E+00
          2   -1    0    0  502    0  0.00000000000E+00  0.00000000000E+00  0.70313496912E+03  0.70313496912E+03  0.00000000000E+00 0. -1.
          1   -1    0    0  501    0 -0.00000000000E+00 -0.00000000000E+00 -0.43614843648E+02  0.43614843648E+02  0.00000000000E+00 0. -1.
         25    2    1    2    0    0  0.96327805835E+02 -0.89166554461E+02  0.25691550647E+03  0.31442148930E+03  0.12500229939E+03 0.  0.
          2    1    1    2  501    0 -0.80922365077E+02  0.68487403186E+02  0.18517273352E+03  0.21337266648E+03  0.00000000000E+00 0. -1.
          1    1    1    2  502    0 -0.15405440758E+02  0.20679151275E+02  0.21743188548E+03  0.21895565698E+03  0.00000000000E+00 0. -1.
         22    1    3    3    0    0  0.52011786129E+02 -0.26270730035E+02  0.14441004056E+02  0.60032655706E+02  0.00000000000E+00 0. -1.
         22    1    3    3    0    0  0.44316019706E+02 -0.62895824426E+02  0.24247450242E+03  0.25438883359E+03  0.00000000000E+00 0. -1.
</event>
<event>
 7    1  0.6122298E-006  0.1650316E+03  0.7818608E-02  0.1215560E+00
          2   -1    0    0  502    0  0.00000000000E+00  0.00000000000E+00  0.26275268649E+03  0.26275268649E+03  0.00000000000E+00 0. -1.
          1   -1    0    0  501    0 -0.00000000000E+00 -0.00000000000E+00 -0.46191637928E+03  0.46191637928E+03  0.00000000000E+00 0. -1.
         25    2    1    2    0    0 -0.66912327955E+02 -0.63975571332E+02 -0.73189511668E+02  0.17189729828E+03  0.12498737207E+03 0.  0.
          2    1    1    2  501    0 -0.10288126168E+02 -0.11553324785E+03 -0.28057402178E+03  0.30360427961E+03  0.00000000000E+00 0. -1.
          1    1    1    2  502    0  0.77200454123E+02  0.17950881919E+03  0.15459984066E+03  0.24916748788E+03  0.00000000000E+00 0. -1.
         22    1    3    3    0    0  0.31485508482E+02  0.50954796133E+01 -0.31029514356E+02  0.44498673217E+02  0.00000000000E+00 0. -1.
         22    1    3    3    0    0 -0.98397836438E+02 -0.69071050945E+02 -0.42159997312E+02  0.12739862506E+03  0.00000000000E+00 0. -1.
</event>
<event>
 7    1  0.6122298E-006  0.8674705E+02  0.7818608E-02  0.1426788E+00
          2   -1    0    0  502    0  0.00000000000E+00  0.00000000000E+00  0.15747667823E+04  0.15747667823E+04  0.00000000000E+00 0. -1.
          1   -1    0    0  501    0 -0.00000000000E+00 -0.00000000000E+00 -0.15777301489E+04  0.15777301489E+04  0.00000000000E+00 0. -1.
         25    2    1    2    0    0  0.61951583177E+02  0.53358192549E+02 -0.58243403189E+02  0.16032322844E+03  0.12500459268E+03 0.  0.
          2    1    1    2  501    0 -0.22694135789E+02  0.24138394257E+02 -0.14670214194E+04  0.14673954923E+04  0.00000000000E+00 0. -1.
          1    1    1    2  502    0 -0.39257447388E+02 -0.77496586806E+02  0.15223014560E+04  0.15247782105E+04  0.00000000000E+00 0. -1.
         22    1    3    3    0    0 -0.36922417970E+02  0.16796253514E+02 -0.32058697107E+02  0.51702409431E+02  0.00000000000E+00 0.  1.
         22    1    3    3    0    0  0.98874001146E+02  0.36561939036E+02 -0.26184706083E+02  0.10862081901E+03  0.00000000000E+00 0.  1.
</event>
<event>
 7    1  0.6122298E-006  0.9605586E+02  0.7818608E-02  0.1384144E+00
          2   -1    0    0  502    0  0.00000000000E+00  0.00000000000E+00  0.18692667874E+04  0.18692667874E+04  0.00000000000E+00 0. -1.
          1   -1    0    0  501    0 -0.00000000000E+00 -0.00000000000E+00 -0.15020968138E+04  0.15020968138E+04  0.00000000000E+00 0. -1.
         25    2    1    2    0    0  0.67949626125E+02  0.55011107148E+01  0.11009101030E+04  0.11100790590E+04  0.12500019313E+03 0.  0.
          2    1    1    2  501    0 -0.91627908521E+02  0.28980698851E+02 -0.14953960675E+04  0.14984808818E+04  0.00000000000E+00 0. -1.
          1    1    1    2  502    0  0.23678282397E+02 -0.34481809566E+02  0.76165593808E+03  0.76280366036E+03  0.00000000000E+00 0. -1.
         22    1    3    3    0    0  0.10390626263E+03 -0.52837812353E+01  0.75409940443E+03  0.76124262986E+03  0.00000000000E+00 0. -1.
         22    1    3    3    0    0 -0.35956636509E+02  0.10784891950E+02  0.34681069862E+03  0.34883642912E+03  0.00000000000E+00 0. -1.
</event>
<event>
 7    1  0.6122298E-006  0.5436605E+02  0.7818608E-02  0.1539500E+00
          2   -1    0    0  502    0  0.00000000000E+00  0.00000000000E+00  0.13271091175E+04  0.13271091175E+04  0.00000000000E+00 0. -1.
          1   -1    0    0  501    0 -0.00000000000E+00 -0.00000000000E+00 -0.44677893740E+03  0.44677893740E+03  0.00000000000E+00 0. -1.
         25    2    1    2    0    0 -0.36778694781E+02 -0.43022386391E+02 -0.32973232842E+03  0.35714448891E+03  0.12500071774E+03 0.  0.
          2    1    1    2  501    0 -0.12615984353E+02  0.20298795142E+02 -0.10138781223E+03  0.10416665788E+03  0.00000000000E+00 0. -1.
          1    1    1    2  502    0  0.49394679134E+02  0.22723591249E+02  0.13114503207E+04  0.13125769081E+04  0.00000000000E+00 0. -1.
         22    1    3    3    0    0 -0.17274770517E+02 -0.66920429188E+02 -0.31584037854E+03  0.32331394380E+03  0.00000000000E+00 0.  1.
         22    1    3    3    0    0 -0.19503924264E+02  0.23898042797E+02 -0.13891949881E+02  0.33830545114E+02  0.00000000000E+00 0.  1.
</event>
<event>
 7    1  0.6122298E-006  0.1934278E+03  0.7818608E-02  0.1332544E+00
          2   -1    0    0  502    0  0.00000000000E+00  0.00000000000E+00  0.31220996054E+04  0.31220996054E+04  0.00000000000E+00 0. -1.
          1   -1    0    0  501    0 -0.00000000000E+00 -0.00000000000E+00 -0.32735666978E+03  0.32735666978E+03  0.00000000000E+00 0. -1.
         25    2    1    2    0    0 -0.41870036821E+02  0.19093616646E+03  0.70561874641E+02  0.24251454080E+03  0.12499841880E+03 0.  0.
          2    1    1    2  501    0  0.32007930575E+02  0.22588129419E+01 -0.23714400551E+03  0.23930501291E+03  0.00000000000E+00 0. -1.
          1    1    1    2  502    0  0.98621062450E+01 -0.19319497940E+03  0.29613250665E+04  0.29676367215E+04  0.00000000000E+00 0. -1.
         22    1    3    3    0    0 -0.57590809027E+02  0.23923179074E+02  0.33216418126E+02  0.70656565262E+02  0.00000000000E+00 0. -1.
         22    1    3    3    0    0  0.15720772207E+02  0.16701298739E+03  0.37345456515E+02  0.17185797554E+03  0.00000000000E+00 0. -1.
</event>
<event>
 7    1  0.6122298E-006  0.8774109E+02  0.7818608E-02  0.1493933E+00
          2   -1    0    0  502    0  0.00000000000E+00  0.00000000000E+00  0.12514194879E+04  0.12514194879E+04  0.00000000000E+00 0. -1.
          1   -1    0    0  501    0 -0.00000000000E+00 -0.00000000000E+00 -0.38009117094E+02  0.38009117094E+02  0.00000000000E+00 0. -1.
         25    2    1    2    0    0  0.58205712241E+01 -0.95019291254E+02  0.39260813827E+03  0.42288170257E+03  0.12500095751E+03 0.  0.
          2    1    1    2  501    0 -0.17988451186E+02  0.89957616809E+01 -0.15718880022E+02  0.25526286323E+02  0.00000000000E+00 0. -1.
          1    1    1    2  502    0  0.12167879962E+02  0.86023529573E+02  0.83652111254E+03  0.84102061608E+03  0.00000000000E+00 0. -1.
         22    1    3    3    0    0  0.52352736585E+02 -0.75985741161E+02  0.15821342283E+03  0.18315602380E+03  0.00000000000E+00 0. -1.
         22    1    3    3    0    0 -0.46532165361E+02 -0.19033550093E+02  0.23439471543E+03  0.23972567878E+03  0.00000000000E+00 0. -1.
</event>
<event>
 7    1  0.6122298E-006  0.1045844E+03  0.7818608E-02  0.1360479E+00
          2   -1    0    0  502    0  0.00000000000E+00  0.00000000000E+00  0.95728921741E+03  0.95728921741E+03  0.00000000000E+00 0. -1.
          1   -1    0    0  501    0 -0.00000000000E+00 -0.00000000000E+00 -0.44192000943E+03  0.44192000943E+03  0.00000000000E+00 0. -1.
         25    2    1    2    0    0 -0.58270553244E+02  0.44259006958E+02  0.35550963737E+03  0.38388562781E+03  0.12500702341E+03 0.  0.
          2    1    1    2  501    0  0.10169049987E+03 -0.27064857098E+02 -0.42030731973E+03  0.43328017180E+03  0.00000000000E+00 0. -1.
          1    1    1    2  502    0 -0.43419946621E+02 -0.17194149859E+02  0.58016689033E+03  0.58204342724E+03  0.00000000000E+00 0. -1.
         22    1    3    3    0    0  0.14901203384E+02  0.23913741395E+02  0.96464356858E+01  0.29781984676E+02  0.00000000000E+00 0.  1.
         22    1    3    3    0    0 -0.73171756629E+02  0.20345265562E+02  0.34586320169E+03  0.35410364313E+03  0.00000000000E+00 0.  1.
</event>
<event>
 7    1  0.6122298E-006  0.1397726E+03  0.7818608E-02  0.1258118E+00
          2   -1    0    0  502    0  0.00000000000E+00  0.00000000000E+00  0.20074340177E+04  0.20074340177E+04  0.00000000000E+00 0. -1.
          1   -1    0    0  501    0 -0.00000000000E+00 -0.00000000000E+00 -0.44772253022E+03  0.44772253022E+03  0.00000000000E+00 0. -1.
         25    2    1    2    0    0  0.10997282029E+03 -0.19481551679E+03  0.72310414216E+03  0.76717042790E+03  0.12499503291E+03 0.  0.
          2    1    1    2  501    0 -0.84296185512E+02  0.10993160887E+03 -0.41280551884E+03  0.43542990470E+03  0.00000000000E+00 0. -1.
          1    1    1    2  502    0 -0.25676634774E+02  0.84883907916E+02  0.12494128642E+04  0.12525562154E+04  0.00000000000E+00 0. -1.
         22    1    3    3    0    0  0.38527106791E+02 -0.96231806929E+02  0.15707486420E+03  0.18819514230E+03  0.00000000000E+00 0. -1.
         22    1    3    3    0    0  0.71445713494E+02 -0.98583709862E+02  0.56602927796E+03  0.57897528560E+03  0.00000000000E+00 0. -1.
</event>
<event>
 7    1  0.6122298E-006  0.7932713E+02  0.7818608E-02  0.1458949E+00
          2   -1    0    0  502    0  0.00000000000E+00  0.00000000000E+00  0.34985196575E+04  0.34985196575E+04  0.00000000000E+00 0. -1.
          1   -1    0    0  501    0 -0.00000000000E+00 -0.00000000000E+00 -0.57139000400E+03  0.57139000400E+03  0.00000000000E+00 0. -1.
         25    2    1    2    0    0  0.13337099172E+02 -0.49388654080E+02  0.78353125980E+02  0.15614803078E+03  0.12500351115E+03 0.  0.
          2    1    1    2  501    0  0.82531811166E+01 -0.27297052393E+02 -0.53164108721E+03  0.53240538096E+03  0.00000000000E+00 0. -1.
          1    1    1    2  502    0 -0.21590280289E+02  0.76685706473E+02  0.33804176147E+04  0.33813562497E+04  0.00000000000E+00 0. -1.
         22    1    3    3    0    0  0.17871525799E+02  0.24251576126E+02 -0.17768798524E+02  0.34975142316E+02  0.00000000000E+00 0. -1.
         22    1    3    3    0    0 -0.45344266275E+01 -0.73640230206E+02  0.96121924504E+02  0.12117288847E+03  0.00000000000E+00 0. -1.
</event>
<event>
 7    1  0.6122298E-006  0.1318159E+03  0.7818608E-02  0.1336757E+00
          2   -1    0    0  502    0  0.00000000000E+00  0.00000000000E+00  0.13339250885E+04  0.13339250885E+04  0.00000000000E+00 0. -1.
          1   -1    0    0  501    0 -0.00000000000E+00 -0.00000000000E+00 -0.37356255330E+03  0.37356255330E+03  0.00000000000E+00 0. -1.
         25    2    1    2    0    0  0.31749818648E+02 -0.17093965281E+03  0.41470552223E+03  0.46672537367E+03  0.12499395334E+03 0.  0.
          2    1    1    2  501    0 -0.11918259336E+02  0.13011752333E+03 -0.33466679203E+03  0.35926936478E+03  0.00000000000E+00 0. -1.
          1    1    1    2  502    0 -0.19831559312E+02  0.40822129475E+02  0.88032380504E+03  0.88149290339E+03  0.00000000000E+00 0. -1.
         22    1    3    3    0    0 -0.13018110091E+02 -0.14673935189E+03  0.21493190526E+03  0.26057174152E+03  0.00000000000E+00 0. -1.
         22    1    3    3    0    0  0.44767928739E+02 -0.24200300919E+02  0.19977361698E+03  0.20615363215E+03  0.00000000000E+00 0. -1.
</event>
<event>
 7    1  0.6122298E-006  0.7541507E+02  0.7818608E-02  0.1482935E+00
          2   -1    0    0  502    0  0.00000000000E+00  0.00000000000E+00  0.23795502966E+04  0.23795502966E+04  0.00000000000E+00 0. -1.
          1   -1    0    0  501    0 -0.00000000000E+00 -0.00000000000E+00 -0.42567589639E+02  0.42567589639E+02  0.00000000000E+00 0. -1.
         25    2    1    2    0    0 -0.72159067051E+02 -0.67167788331E+02  0.53655097975E+03  0.55966941402E+03  0.12499782547E+03 0.  0.
          2    1    1    2  501    0  0.14898175057E+02  0.20407568037E+02 -0.24985714362E+02  0.35534636278E+02  0.00000000000E+00 0. -1.
          1    1    1    2  502    0  0.57260891994E+02  0.46760220294E+02  0.18254174415E+04  0.18269138359E+04  0.00000000000E+00 0. -1.
         22    1    3    3    0    0  0.77370264074E+01  0.31274121509E+02  0.98007803259E+02  0.10316715443E+03  0.00000000000E+00 0.  1.
         22    1    3    3    0    0 -0.79896093458E+02 -0.98441909840E+02  0.43854317649E+03  0.45650225958E+03  0.00000000000E+00 0.  1.
</event>
<event>
 7    1  0.6122298E-006  0.3202749E+02  0.7818608E-02  0.1624767E+00
          2   -1    0    0  502    0  0.00000000000E+00  0.00000000000E+00  0.21635650158E+03  0.21635650158E+03  0.00000000000E+00 0. -1.
          1   -1    0    0  501    0 -0.00000000000E+00 -0.00000000000E+00 -0.23884291910E+03  0.23884291910E+03  0.00000000000E+00 0. -1.
         25    2    1    2    0    0 -0.30723210772E+01  0.11748380108E+02 -0.71616793999E+02  0.14457288700E+03  0.12499956352E+03 0.  0.
          2    1    1    2  501    0  0.15975258114E+02  0.17896710689E+02 -0.12817338111E+03  0.13039906729E+03  0.00000000000E+00 0. -1.
          1    1    1    2  502    0 -0.12902937036E+02 -0.29645090797E+02  0.17730375758E+03  0.18022746640E+03  0.00000000000E+00 0. -1.
         22    1    3    3    0    0 -0.48345725680E+01  0.50348115760E+02  0.12416641592E+02  0.52081463506E+02  0.00000000000E+00 0.  1.
         22    1    3    3    0    0  0.17622514909E+01 -0.38599735652E+02 -0.84033435590E+02  0.92491423493E+02  0.00000000000E+00 0.  1.
</event>
<event>
 7    1  0.6122298E-006  0.3674263E+02  0.7818608E-02  0.1571286E+00
          2   -1    0    0  502    0  0.00000000000E+00  0.00000000000E+00  0.12035827048E+04  0.12035827048E+04  0.00000000000E+00 0. -1.
          1   -1    0    0  501    0 -0.00000000000E+00 -0.00000000000E+00 -0.45449539408E+02  0.45449539408E+02  0.00000000000E+00 0. -1.
         25    2    1    2    0    0  0.65655310044E+01  0.13674309097E+02  0.85266583293E+03  0.86191332119E+03  0.12500183067E+03 0.  0.
          2    1    1    2  501    0  0.21474335033E+02  0.19302218461E+02 -0.34169042110E+02  0.44735289664E+02  0.00000000000E+00 0. -1.
          1    1    1    2  502    0 -0.28039866038E+02 -0.32976527558E+02  0.33963637453E+03  0.34238363331E+03  0.00000000000E+00 0. -1.
         22    1    3    3    0    0  0.10020096501E+02  0.67469734688E+02  0.57773096161E+03  0.58174361315E+03  0.00000000000E+00 0.  1.
         22    1    3    3    0    0 -0.34545654967E+01 -0.53795425591E+02  0.27493487132E+03  0.28016970804E+03  0.00000000000E+00 0.  1.
</event>
<event>
 7    1  0.6122298E-006  0.6448788E+02  0.7818608E-02  0.1398167E+00
          2   -1    0    0  502    0  0.00000000000E+00  0.00000000000E+00  0.17725810372E+04  0.17725810372E+04  0.00000000000E+00 0. -1.
          1   -1    0    0  501    0 -0.00000000000E+00 -0.00000000000E+00 -0.70227487619E+03  0.70227487619E+03  0.00000000000E+00 0. -1.
         25    2    1    2    0    0 -0.59493901426E+01 -0.83912129522E+01  0.23396086891E+03  0.26545878934E+03  0.12499949184E+03 0.  0.
          2    1    1    2  501    0  0.11600256060E+02  0.63779874721E+02 -0.68448505952E+03  0.68754798746E+03  0.00000000000E+00 0. -1.
          1    1    1    2  502    0 -0.56508659178E+01 -0.55388661769E+02  0.15208303516E+04  0.15218491366E+04  0.00000000000E+00 0. -1.
         22    1    3    3    0    0 -0.38305048324E+02 -0.10491131456E+02  0.22928543233E+03  0.23269969928E+03  0.00000000000E+00 0. -1.
         22    1    3    3    0    0  0.32355658182E+02  0.20999185040E+01  0.46754365742E+01  0.32759090055E+02  0.00000000000E+00 0. -1.
</event>
<event>
 7    1  0.6122298E-006  0.1234998E+03  0.7818608E-02  0.1294496E+00
          2   -1    0    0  502    0  0.00000000000E+00  0.00000000000E+00  0.18424741720E+03  0.18424741720E+03  0.00000000000E+00 0. -1.
          1   -1    0    0  501    0 -0.00000000000E+00 -0.00000000000E+00 -0.10155729802E+04  0.10155729802E+04  0.00000000000E+00 0. -1.
         25    2    1    2    0    0 -0.38240354175E+02  0.92603086226E+02 -0.62716698363E+03  0.64730540332E+03  0.12501281354E+03 0.  0.
          2    1    1    2  501    0  0.43140783495E+02 -0.16328352524E+03 -0.35097641368E+03  0.38949593037E+03  0.00000000000E+00 0. -1.
          1    1    1    2  502    0 -0.49004293200E+01  0.70680439013E+02  0.14681783430E+03  0.16301906372E+03  0.00000000000E+00 0. -1.
         22    1    3    3    0    0 -0.55321735567E+02  0.11776806741E+02 -0.11111135024E+03  0.12467926754E+03  0.00000000000E+00 0.  1.
         22    1    3    3    0    0  0.17081381392E+02  0.80826279485E+02 -0.51605563339E+03  0.52262613578E+03  0.00000000000E+00 0.  1.
</event>
<event>
 7    1  0.6122298E-006  0.1090070E+03  0.7818608E-02  0.1365103E+00
          2   -1    0    0  502    0  0.00000000000E+00  0.00000000000E+00  0.42490457549E+03  0.42490457549E+03  0.00000000000E+00 0. -1.
          1   -1    0    0  501    0 -0.00000000000E+00 -0.00000000000E+00 -0.21758081938E+04  0.21758081938E+04  0.00000000000E+00 0. -1.
         25    2    1    2    0    0 -0.62349391329E+02  0.68874003101E+02  0.10359770927E+03  0.18705187052E+03  0.12499936798E+03 0.  0.
          2    1    1    2  501    0 -0.39892346886E+02 -0.16329673672E+02 -0.21220367804E+04  0.21224745357E+04  0.00000000000E+00 0. -1.
          1    1    1    2  502    0  0.10224173822E+03 -0.52544329429E+02  0.26753545273E+03  0.29118636311E+03  0.00000000000E+00 0. -1.
         22    1    3    3    0    0 -0.58153622896E+02  0.70619182701E+02  0.85332733407E+01  0.91878885361E+02  0.00000000000E+00 0.  1.
         22    1    3    3    0    0 -0.41957684335E+01 -0.17451795997E+01  0.95064435931E+02  0.95172985156E+02  0.00000000000E+00 0.  1.
</event>
<event>
 7    1  0.6122298E-006  0.6504578E+02  0.7818608E-02  0.1450497E+00
          2   -1    0    0  502    0  0.00000000000E+00  0.00000000000E+00  0.26980598264E+04  0.26980598264E+04  0.00000000000E+00 0. -1.
          1   -1    0    0  501    0 -0.00000000000E+00 -0.00000000000E+00 -0.39301133175E+03  0.39301133175E+03  0.00000000000E+00 0. -1.
         25    2    1    2    0    0  0.29166171266E+02 -0.31435873784E+01  0.61396616148E+02  0.14232118976E+03  0.12500091556E+03 0.  0.
          2    1    1    2  501    0 -0.66122358587E+02  0.13877180138E+01 -0.34931415219E+03  0.35551999802E+03  0.00000000000E+00 0. -1.
          1    1    1    2  502    0  0.36956187321E+02  0.17558693646E+01  0.25929660307E+04  0.25932299704E+04  0.00000000000E+00 0. -1.
         22    1    3    3    0    0  0.50472112142E+02  0.26018266208E+02  0.82754414911E+02  0.10036272948E+03  0.00000000000E+00 0.  1.
         22    1    3    3    0    0 -0.21305940875E+02 -0.29161853586E+02 -0.21357798763E+02  0.41958460281E+02  0.00000000000E+00 0.  1.
</event>
<event>
 7    1  0.6122298E-006  0.2011125E+03  0.7818608E-02  0.1224599E+00
          2   -1    0    0  502    0  0.00000000000E+00  0.00000000000E+00  0.99197039314E+03  0.99197039314E+03  0.00000000000E+00 0. -1.
          1   -1    0    0  501    0 -0.00000000000E+00 -0.00000000000E+00 -0.34291239813E+03  0.34291239813E+03  0.00000000000E+00 0. -1.
         25    2    1    2    0    0  0.14121331916E+03 -0.19914109856E+03 -0.39753675628E+02  0.27713375845E+03  0.12499754678E+03 0.  0.
          2    1    1    2  501    0 -0.14876017393E+03  0.11290566257E+03 -0.13434308992E+03  0.23005508862E+03  0.00000000000E+00 0. -1.
          1    1    1    2  502    0  0.75468547713E+01  0.86235435995E+02  0.82315476056E+03  0.82769394420E+03  0.00000000000E+00 0. -1.
         22    1    3    3    0    0  0.14728267323E+03 -0.11139192769E+03 -0.12658051799E+02  0.18509612007E+03  0.00000000000E+00 0. -1.
         22    1    3    3    0    0 -0.60693540759E+01 -0.87749170870E+02 -0.27095623829E+02  0.92037638376E+02  0.00000000000E+00 0. -1.
</event>
<event>
 7    1  0.6122298E-006  0.1016693E+03  0.7818608E-02  0.1403495E+00
          2   -1    0    0  502    0  0.00000000000E+00  0.00000000000E+00  0.17527762964E+04  0.17527762964E+04  0.00000000000E+00 0. -1.
          1   -1    0    0  501    0 -0.00000000000E+00 -0.00000000000E+00 -0.51764432930E+03  0.51764432930E+03  0.00000000000E+00 0. -1.
         25    2    1    2    0    0 -0.71343510002E+02 -0.10561455463E+03  0.51760713772E+02  0.18587273468E+03  0.12500068575E+03 0.  0.
          2    1    1    2  501    0  0.70416526930E+02  0.71769502517E+02 -0.44480115691E+03  0.45602348399E+03  0.00000000000E+00 0. -1.
          1    1    1    2  502    0  0.92698307232E+00  0.33845052109E+02  0.16281724103E+04  0.16285244071E+04  0.00000000000E+00 0. -1.
         22    1    3    3    0    0 -0.20534213940E+02 -0.44270355635E+02  0.86229555833E+02  0.99081050808E+02  0.00000000000E+00 0. -1.
         22    1    3    3    0    0 -0.50809296062E+02 -0.61344198991E+02 -0.34468842061E+02  0.86791683871E+02  0.00000000000E+00 0. -1.
</event>
<event>
 7    1  0.6122298E-006  0.1077608E+03  0.7818608E-02  0.1420209E+00
          2   -1    0    0  502    0  0.00000000000E+00  0.00000000000E+00  0.61772800255E+02  0.61772800255E+02  0.00000000000E+00 0. -1.
          1   -1    0    0  501    0 -0.00000000000E+00 -0.00000000000E+00 -0.41877234302E+03  0.41877234302E+03  0.00000000000E+00 0. -1.
         25    2    1    2    0    0 -0.10207099179E+03 -0.26992820891E+02 -0.21332947444E+03  0.26885428195E+03  0.12500424199E+03 0.  0.
          2    1    1    2  501    0  0.96303970775E+02  0.54441177323E+02 -0.14641494363E+03  0.18350921583E+03  0.00000000000E+00 0. -1.
          1    1    1    2  502    0  0.57670210167E+01 -0.27448356432E+02  0.27448753072E+01  0.28181645492E+02  0.00000000000E+00 0. -1.
         22    1    3    3    0    0 -0.17146374071E+02  0.45815360380E+02 -0.43312553907E+02  0.65337758735E+02  0.00000000000E+00 0.  1.
         22    1    3    3    0    0 -0.84924617720E+02 -0.72808181272E+02 -0.17001692053E+03  0.20351652321E+03  0.00000000000E+00 0.  1.
</event>
<event>
 7    1  0.6122298E-006  0.2911425E+03  0.7818608E-02  0.1222025E+00
          2   -1    0    0  502    0  0.00000000000E+00  0.00000000000E+00  0.14933022143E+04  0.14933022143E+04  0.00000000000E+00 0. -1.
          1   -1    0    0  501    0 -0.00000000000E+00 -0.00000000000E+00 -0.25399843253E+04  0.25399843253E+04  0.00000000000E+00 0. -1.
         25    2    1    2    0    0  0.13349853068E+02  0.23108190028E+03 -0.50968635898E+03  0.57357885972E+03  0.12504183528E+03 0.  0.
          2    1    1    2  501    0  0.80756221384E+01  0.60892239675E+02 -0.19832090280E+04  0.19841600564E+04  0.00000000000E+00 0. -1.
          1    1    1    2  502    0 -0.21425475206E+02 -0.29197413995E+03  0.14462132760E+04  0.14755476235E+04  0.00000000000E+00 0. -1.
         22    1    3    3    0    0  0.37386250597E+02  0.23534070889E+03 -0.45275196341E+03  0.51163201754E+03  0.00000000000E+00 0. -1.
         22    1    3    3    0    0 -0.24036397529E+02 -0.42588086178E+01 -0.56934395570E+02  0.61946842179E+02  0.00000000000E+00 0. -1.
</event>
<event>
 7    1  0.6122298E-006  0.5965066E+02  0.7818608E-02  0.1454434E+00
          2   -1    0    0  502    0  0.00000000000E+00  0.00000000000E+00  0.12777454083E+04  0.12777454083E+04  0.00000000000E+00 0. -1.
          1   -1    0    0  501    0 -0.00000000000E+00 -0.00000000000E+00 -0.43386997896E+03  0.43386997896E+03  0.00000000000E+00 0. -1.
         25    2    1    2    0    0  0.56813910177E+02 -0.20108182940E+02  0.45085073459E+03  0.47172292430E+03  0.12499589202E+03 0.  0.
          2    1    1    2  501    0 -0.23908453011E+02 -0.31058347665E+02 -0.42138999241E+03  0.42320888553E+03  0.00000000000E+00 0. -1.
          1    1    1    2  502    0 -0.32905457165E+02  0.51166530605E+02  0.81441468721E+03  0.81668357747E+03  0.00000000000E+00 0. -1.
         22    1    3    3    0    0  0.40901168726E+02 -0.44788768158E+02  0.43327383937E+03  0.43749875342E+03  0.00000000000E+00 0.  1.
         22    1    3    3    0    0  0.15912741451E+02  0.24680585218E+02  0.17576895211E+02  0.34224170881E+02  0.00000000000E+00 0.  1.
</event>
<event>
 7    1  0.6122298E-006  0.3373918E+02  0.7818608E-02  0.1636264E+00
          2   -1    0    0  502    0  0.00000000000E+00  0.00000000000E+00  0.35141720435E+03  0.35141720435E+03  0.00000000000E+00 0. -1.
          1   -1    0    0  501    0 -0.00000000000E+00 -0.00000000000E+00 -0.10277060085E+04  0.10277060085E+04  0.00000000000E+00 0. -1.
         25    2    1    2    0    0  0.27305468052E+02 -0.75881900583E+01  0.24111620999E+02  0.13041881883E+03  0.12499811528E+03 0.  0.
          2    1    1    2  501    0 -0.31015160680E+02 -0.13393164743E+02 -0.97384507759E+03  0.97443088632E+03  0.00000000000E+00 0. -1.
          1    1    1    2  502    0  0.37096926286E+01  0.20981354801E+02  0.27344465245E+03  0.27427350769E+03  0.00000000000E+00 0. -1.
         22    1    3    3    0    0 -0.19365462879E+02 -0.97708703085E+01 -0.43282381942E+02  0.48413382919E+02  0.00000000000E+00 0.  1.
         22    1    3    3    0    0  0.46670930931E+02  0.21826802502E+01  0.67394002940E+02  0.82005435913E+02  0.00000000000E+00 0.  1.
</event>
<event>
 7    1  0.6122298E-006  0.8422558E+02  0.7818608E-02  0.1397421E+00
          2   -1    0    0  502    0  0.00000000000E+00  0.00000000000E+00  0.11278324154E+04  0.11278324154E+04  0.00000000000E+00 0. -1.
          1   -1    0    0  501    0 -0.00000000000E+00 -0.00000000000E+00 -0.15555039722E+03  0.15555039722E+03  0.00000000000E+00 0. -1.
         25    2    1    2    0    0 -0.15179897606E+02  0.45296851098E+02  0.13694342748E+03  0.19146914989E+03  0.12499879608E+03 0.  0.
          2    1    1    2  501    0 -0.33472072941E+02  0.26804482003E+02 -0.12267792936E+03  0.12995666307E+03  0.00000000000E+00 0. -1.
          1    1    1    2  502    0  0.48651970546E+02 -0.72101333101E+02  0.95801652006E+03  0.96195699965E+03  0.00000000000E+00 0. -1.
         22    1    3    3    0    0 -0.34785024181E+02  0.22568514051E+02  0.15223629443E+03  0.15778220773E+03  0.00000000000E+00 0.  1.
         22    1    3    3    0    0  0.19605126575E+02  0.22728337047E+02 -0.15292866950E+02  0.33686942167E+02  0.00000000000E+00 0.  1.
</event>
<event>
 7    1  0.6122298E-006  0.1171327E+03  0.7818608E-02  0.1341935E+00
          2   -1    0    0  502    0  0.00000000000E+00  0.00000000000E+00  0.15714108334E+04  0.15714108334E+04  0.00000000000E+00 0. -1.
          1   -1    0    0  501    0 -0.00000000000E+00 -0.00000000000E+00 -0.30610857159E+03  0.30610857159E+03  0.00000000000E+00 0. -1.
         25    2    1    2    0    0  0.93112639650E+02  0.39424442110E+02  0.15300669306E+03  0.22195541193E+03  0.12501562487E+03 0.  0.
          2    1    1    2  501    0 -0.11814960232E+02  0.47380243509E+02 -0.26685956378E+03  0.27129044867E+03  0.00000000000E+00 0. -1.
          1    1    1    2  502    0 -0.81297679418E+02 -0.86804685619E+02  0.13791551325E+04  0.13842735443E+04  0.00000000000E+00 0. -1.
         22    1    3    3    0    0  0.55153944270E+02  0.22397844005E+02 -0.38720574418E+01  0.59654118160E+02  0.00000000000E+00 0.  1.
         22    1    3    3    0    0  0.37958695381E+02  0.17026598105E+02  0.15687875051E+03  0.16230129377E+03  0.00000000000E+00 0.  1.
</event>
<event>
 7    1  0.6122298E-006  0.6567226E+02  0.7818608E-02  0.1380198E+00
          2   -1    0    0  502    0  0.00000000000E+00  0.00000000000E+00  0.11162185227E+03  0.11162185227E+03  0.00000000000E+00 0. -1.
          1   -1    0    0  501    0 -0.00000000000E+00 -0.00000000000E+00 -0.11253928916E+04  0.11253928916E+04  0.00000000000E+00 0. -1.
         25    2    1    2    0    0 -0.11349662645E+02  0.19644486675E+02 -0.36240786392E+03  0.38402776015E+03  0.12499255992E+03 0.  0.
          2    1    1    2  501    0 -0.41679841792E+02 -0.58383586290E+02 -0.73955702740E+03  0.74302789257E+03  0.00000000000E+00 0. -1.
          1    1    1    2  502    0  0.53029504438E+02  0.38739099615E+02  0.88193852040E+02  0.10995909111E+03  0.00000000000E+00 0. -1.
         22    1    3    3    0    0  0.60615899845E+01  0.65921799684E+02 -0.28173637611E+03  0.28940941963E+03  0.00000000000E+00 0. -1.
         22    1    3    3    0    0 -0.17411252630E+02 -0.46277313008E+02 -0.80671487804E+02  0.94618340516E+02  0.00000000000E+00 0. -1.
</event>
<event>
 7    1  0.6122298E-006  0.3844955E+02  0.7818608E-02  0.1607793E+00
          2   -1    0    0  502    0  0.00000000000E+00  0.00000000000E+00  0.17722811224E+04  0.17722811224E+04  0.00000000000E+00 0. -1.
          1   -1    0    0  501    0 -0.00000000000E+00 -0.00000000000E+00 -0.66713874675E+03  0.66713874675E+03  0.00000000000E+00 0. -1.
         25    2    1    2    0    0  0.70657306220E+01 -0.18057659301E+02  0.89900036285E+02  0.15518454323E+03  0.12499688926E+03 0.  0.
          2    1    1    2  501    0 -0.81681854550E+01 -0.20518561542E+02 -0.63407853294E+03  0.63446301434E+03  0.00000000000E+00 0. -1.
          1    1    1    2  502    0  0.11024548330E+01  0.38576220843E+02  0.16493208723E+04  0.16497723116E+04  0.00000000000E+00 0. -1.
         22    1    3    3    0    0 -0.14495980035E+02 -0.67060175011E+02  0.30100363271E+02  0.74921508118E+02  0.00000000000E+00 0.  1.
         22    1    3    3    0    0  0.21561710657E+02  0.49002515709E+02  0.59799673014E+02  0.80263035109E+02  0.00000000000E+00 0.  1.
</event>
<event>
 7    1  0.6122298E-006  0.3890566E+02  0.7818608E-02  0.1604673E+00
          2   -1    0    0  502    0  0.00000000000E+00  0.00000000000E+00  0.92086679373E+02  0.92086679373E+02  0.00000000000E+00 0. -1.
          1   -1    0    0  501    0 -0.00000000000E+00 -0.00000000000E+00 -0.74703346485E+03  0.74703346485E+03  0.00000000000E+00 0. -1.
         25    2    1    2    0    0 -0.99909426759E+00 -0.26589149274E+02 -0.64270856256E+03  0.65529222413E+03  0.12500248626E+03 0.  0.
          2    1    1    2  501    0 -0.21617089686E+02 -0.52096236879E+01 -0.92205098834E+02  0.94848400073E+02  0.00000000000E+00 0. -1.
          1    1    1    2  502    0  0.22616183954E+02  0.31798772961E+02  0.79966875917E+02  0.88979520017E+02  0.00000000000E+00 0. -1.
         22    1    3    3    0    0  0.36733889408E+02 -0.20390525212E+02 -0.72431174825E+02  0.83734265603E+02  0.00000000000E+00 0.  1.
         22    1    3    3    0    0 -0.37732983675E+02 -0.61986240613E+01 -0.57027738774E+03  0.57155795853E+03  0.00000000000E+00 0.  1.
</event>
<event>
 7    1  0.6122298E-006  0.8717704E+02  0.7818608E-02  0.1347086E+00
          2   -1    0    0  502    0  0.00000000000E+00  0.00000000000E+00  0.19053381167E+04  0.19053381167E+04  0.00000000000E+00 0. -1.
          1   -1    0    0  501    0 -0.00000000000E+00 -0.00000000000E+00 -0.12589076310E+04  0.12589076310E+04  0.00000000000E+00 0. -1.
         25    2    1    2    0    0  0.14752823739E+03 -0.16362283879E+02  0.30509081077E+01  0.19407707752E+03  0.12499719523E+03 0.  0.
          2    1    1    2  501    0 -0.62759110160E+02 -0.95051193798E+00 -0.11615109692E+04  0.11632056314E+04  0.00000000000E+00 0. -1.
          1    1    1    2  502    0 -0.84769127235E+02  0.17312795817E+02  0.18048905468E+04  0.18069630388E+04  0.00000000000E+00 0. -1.
         22    1    3    3    0    0  0.40957029348E+02  0.35156751271E+02  0.43144227078E+02  0.69100649368E+02  0.00000000000E+00 0.  1.
         22    1    3    3    0    0  0.10657120805E+03 -0.51519035150E+02 -0.40093318970E+02  0.12497642815E+03  0.00000000000E+00 0.  1.
</event>
<event>
 7    1  0.6122298E-006  0.4153513E+02  0.7818608E-02  0.1568018E+00
          2   -1    0    0  502    0  0.00000000000E+00  0.00000000000E+00  0.30813620833E+04  0.30813620833E+04  0.00000000000E+00 0. -1.
          1   -1    0    0  501    0 -0.00000000000E+00 -0.00000000000E+00 -0.13965972647E+04  0.13965972647E+04  0.00000000000E+00 0. -1.
         25    2    1    2    0    0  0.56254626107E+02 -0.32246635439E+02  0.51400811834E+03  0.53294806912E+03  0.12499948083E+03 0.  0.
          2    1    1    2  501    0 -0.25633213519E+02  0.47541437441E+01 -0.13868392535E+04  0.13870842723E+04  0.00000000000E+00 0. -1.
          1    1    1    2  502    0 -0.30621412589E+02  0.27492491695E+02  0.25575959538E+04  0.25579270065E+04  0.00000000000E+00 0. -1.
         22    1    3    3    0    0  0.16765605896E+02 -0.10903262911E+02  0.32982349056E+01  0.20269312683E+02  0.00000000000E+00 0.  1.
         22    1    3    3    0    0  0.39489020212E+02 -0.21343372528E+02  0.51070988343E+03  0.51267875644E+03  0.00000000000E+00 0.  1.
</event>
<event>
 7    1  0.8686622E-006  0.1055461E+03  0.7818608E-02  0.1362369E+00
          2   -1    0    0  502    0  0.00000000000E+00  0.00000000000E+00  0.16135588830E+04  0.16135588830E+04  0.00000000000E+00 0. -1.
          1   -1    0    0  501    0 -0.00000000000E+00 -0.00000000000E+00 -0.87351720745E+03  0.87351720745E+03  0.00000000000E+00 0. -1.
         25    2    1    2    0    0  0.42332889099E+02 -0.83199695277E+02 -0.12618766537E+03  0.20065588905E+03  0.12500078450E+03 0.  0.
          2    1    1    2  501    0  0.41520959002E+02  0.18723623858E+02 -0.70758791213E+03  0.70905233764E+03  0.00000000000E+00 0. -1.
          1    1    1    2  502    0 -0.83853848101E+02  0.64476071420E+02  0.15738172531E+04  0.15773678638E+04  0.00000000000E+00 0. -1.
         22    1    3    3    0    0 -0.67566697139E+00  0.32221493886E+02 -0.19263397822E+02  0.37546766701E+02  0.00000000000E+00 0.  1.
         22    1    3    3    0    0  0.43008556070E+02 -0.11542118916E+03 -0.10692426755E+03  0.16310912235E+03  0.00000000000E+00 0.  1.
</event>
<event>
 7    1  0.6122298E-006  0.6217291E+02  0.7818608E-02  0.1530525E+00
          2   -1    0    0  502    0  0.00000000000E+00  0.00000000000E+00  0.13867898272E+04  0.13867898272E+04  0.00000000000E+00 0. -1.
          1   -1    0    0  501    0 -0.00000000000E+00 -0.00000000000E+00 -0.55570274432E+02  0.55570274432E+02  0.00000000000E+00 0. -1.
         25    2    1    2    0    0  0.19392970969E+02  0.42159175530E+02  0.82560927194E+03  0.83630682599E+03  0.12499981548E+03 0.  0.
          2    1    1    2  501    0  0.63651250200E+01  0.21231128708E+02 -0.45552924260E+02  0.50659101367E+02  0.00000000000E+00 0. -1.
          1    1    1    2  502    0 -0.25758095989E+02 -0.63390304238E+02  0.55116320509E+03  0.55539417428E+03  0.00000000000E+00 0. -1.
         22    1    3    3    0    0 -0.25775441748E+02  0.15970124428E+02  0.46894366554E+02  0.55843530387E+02  0.00000000000E+00 0. -1.
         22    1    3    3    0    0  0.45168412718E+02  0.26189051102E+02  0.77871490539E+03  0.78046329560E+03  0.00000000000E+00 0. -1.
</event>
<event>
 7    1  0.6122298E-006  0.8883124E+02  0.7818608E-02  0.1319349E+00
          2   -1    0    0  502    0  0.00000000000E+00  0.00000000000E+00  0.69513892416E+02  0.69513892416E+02  0.00000000000E+00 0. -1.
          1   -1    0    0  501    0 -0.00000000000E+00 -0.00000000000E+00 -0.78997646178E+03  0.78997646178E+03  0.00000000000E+00 0. -1.
         25    2    1    2    0    0  0.28199604695E+02  0.10171382981E+02 -0.60033298508E+02  0.14186958642E+03  0.12499723151E+03 0.  0.
          2    1    1    2  501    0 -0.82858549333E+02  0.46209431521E+02 -0.62379679516E+03  0.63097012007E+03  0.00000000000E+00 0. -1.
          1    1    1    2  502    0  0.54658944639E+02 -0.56380814502E+02 -0.36632475693E+02  0.86650647709E+02  0.00000000000E+00 0. -1.
         22    1    3    3    0    0  0.21750106792E+01  0.79421626272E+01  0.38789114213E+02  0.39653549653E+02  0.00000000000E+00 0. -1.
         22    1    3    3    0    0  0.26024594016E+02  0.22292203538E+01 -0.98822412721E+02  0.10221603677E+03  0.00000000000E+00 0. -1.
</event>
<event>
 7    1  0.6122298E-006  0.4686666E+02  0.7818608E-02  0.1539960E+00
          2   -1    0    0  502    0  0.00000000000E+00  0.00000000000E+00  0.32827135822E+03  0.32827135822E+03  0.00000000000E+00 0. -1.
          1   -1    0    0  501    0 -0.00000000000E+00 -0.00000000000E+00 -0.43646594414E+03  0.43646594414E+03  0.00000000000E+00 0. -1.
         25    2    1    2    0    0 -0.36206216112E+01  0.20077198313E+02 -0.22794072086E+03  0.26076624396E+03  0.12500343582E+03 0.  0.
          2    1    1    2  501    0 -0.15321725448E+02  0.23006197832E+02 -0.18932752401E+03  0.19133465906E+03  0.00000000000E+00 0. -1.
          1    1    1    2  502    0  0.18942347059E+02 -0.43083396145E+02  0.30907365896E+03  0.31263639935E+03  0.00000000000E+00 0. -1.
         22    1    3    3    0    0 -0.18353736815E+02 -0.21933539394E+02 -0.82636594639E-01  0.28599766332E+02  0.00000000000E+00 0.  1.
         22    1    3    3    0    0  0.14733115204E+02  0.42010737707E+02 -0.22785808427E+03  0.23216647762E+03  0.00000000000E+00 0.  1.
</event>
<event>
 7    1  0.6122298E-006  0.4783649E+02  0.7818608E-02  0.1530941E+00
          2   -1    0    0  502    0  0.00000000000E+00  0.00000000000E+00  0.32879588003E+03  0.32879588003E+03  0.00000000000E+00 0. -1.
          1   -1    0    0  501    0 -0.00000000000E+00 -0.00000000000E+00 -0.73648626176E+02  0.73648626176E+02  0.00000000000E+00 0. -1.
         25    2    1    2    0    0  0.53041310067E+02 -0.23138167762E+02  0.82519581599E+02  0.16056921342E+03  0.12499694225E+03 0.  0.
          2    1    1    2  501    0 -0.47091486070E+02 -0.49675162380E+01 -0.16827868088E+02  0.50253969218E+02  0.00000000000E+00 0. -1.
          1    1    1    2  502    0 -0.59498239973E+01  0.28105684000E+02  0.18945554034E+03  0.19162132356E+03  0.00000000000E+00 0. -1.
         22    1    3    3    0    0 -0.59728006644E-01  0.30332402006E+02 -0.17745727383E+02  0.35142125992E+02  0.00000000000E+00 0.  1.
         22    1    3    3    0    0  0.53101038074E+02 -0.53470569768E+02  0.10026530898E+03  0.12542708743E+03  0.00000000000E+00 0.  1.
</event>
<event>
 7    1  0.6122298E-006  0.6399885E+02  0.7818608E-02  0.1401116E+00
          2   -1    0    0  502    0  0.00000000000E+00  0.00000000000E+00  0.15684064833E+02  0.15684064833E+02  0.00000000000E+00 0. -1.
          1   -1    0    0  501    0 -0.00000000000E+00 -0.00000000000E+00 -0.17752901389E+04  0.17752901389E+04  0.00000000000E+00 0. -1.
         25    2    1    2    0    0  0.40944223115E+02 -0.58881002937E+02 -0.14000833219E+04  0.14074807326E+04  0.12500121044E+03 0.  0.
          2    1    1    2  501    0  0.13417763943E+02  0.65844165403E+02 -0.27239961127E+03  0.28056556939E+03  0.00000000000E+00 0. -1.
          1    1    1    2  502    0 -0.54361987058E+02 -0.69631624653E+01 -0.87123140946E+02  0.10292790174E+03  0.00000000000E+00 0. -1.
         22    1    3    3    0    0  0.23638174598E+02 -0.96281935861E+02 -0.82783472310E+03  0.83375014437E+03  0.00000000000E+00 0.  1.
         22    1    3    3    0    0  0.17306048517E+02  0.37400932924E+02 -0.57224859877E+03  0.57373058825E+03  0.00000000000E+00 0.  1.
</event>
<event>
 7    1  0.6122298E-006  0.6693396E+02  0.7818608E-02  0.1427716E+00
          2   -1    0    0  502    0  0.00000000000E+00  0.00000000000E+00  0.20488229776E+04  0.20488229776E+04  0.00000000000E+00 0. -1.
          1   -1    0    0  501    0 -0.00000000000E+00 -0.00000000000E+00 -0.83055901057E+03  0.83055901057E+03  0.00000000000E+00 0. -1.
         25    2    1    2    0    0  0.67410490527E+02  0.70257479292E+02  0.17300657296E+03  0.23458793173E+03  0.12497974156E+03 0.  0.
          2    1    1    2  501    0 -0.41681269317E+02 -0.89744915655E+01 -0.79860088995E+03  0.79973823914E+03  0.00000000000E+00 0. -1.
          1    1    1    2  502    0 -0.25729221210E+02 -0.61282987727E+02  0.18438582840E+04  0.18450558173E+04  0.00000000000E+00 0. -1.
         22    1    3    3    0    0  0.96606160032E+02  0.75632752834E+02  0.10934664212E+03  0.16434643775E+03  0.00000000000E+00 0.  1.
         22    1    3    3    0    0 -0.29195669506E+02 -0.53752735412E+01  0.63659930834E+02  0.70241493985E+02  0.00000000000E+00 0.  1.
</event>
<event>
 7    1  0.6122298E-006  0.3103839E+02  0.7818608E-02  0.1630502E+00
          2   -1    0    0  502    0  0.00000000000E+00  0.00000000000E+00  0.14507598422E+04  0.14507598422E+04  0.00000000000E+00 0. -1.
          1   -1    0    0  501    0 -0.00000000000E+00 -0.00000000000E+00 -0.49283546642E+02  0.49283546642E+02  0.00000000000E+00 0. -1.
         25    2    1    2    0    0 -0.35273050056E+02 -0.20167766662E+02  0.92227668897E+03  0.93159480027E+03  0.12499461583E+03 0.  0.
          2    1    1    2  501    0  0.22608203782E+02 -0.78830278258E+01 -0.40924864713E+02  0.47414318067E+02  0.00000000000E+00 0. -1.
          1    1    1    2  502    0  0.12664846274E+02  0.28050794488E+02  0.52012447132E+03  0.52103427053E+03  0.00000000000E+00 0. -1.
         22    1    3    3    0    0 -0.52868270228E+02  0.11137450604E+01  0.15407339159E+03  0.16289537876E+03  0.00000000000E+00 0.  1.
         22    1    3    3    0    0  0.17595220172E+02 -0.21281511722E+02  0.76820329738E+03  0.76869942151E+03  0.00000000000E+00 0.  1.
</event>
<event>
 7    1  0.6122298E-006  0.8750330E+02  0.7818608E-02  0.1467117E+00
          2   -1    0    0  502    0  0.00000000000E+00  0.00000000000E+00  0.51587571693E+03  0.51587571693E+03  0.00000000000E+00 0. -1.
          1   -1    0    0  501    0 -0.00000000000E+00 -0.00000000000E+00 -0.38845085166E+03  0.38845085166E+03  0.00000000000E+00 0. -1.
         25    2    1    2    0    0 -0.23209555368E+02  0.85950848460E+02  0.25186254325E+03  0.29494604917E+03  0.12502879434E+03 0.  0.
          2    1    1    2  501    0 -0.21946043649E+02 -0.10594942410E+02 -0.35852469825E+03  0.35935197355E+03  0.00000000000E+00 0. -1.
          1    1    1    2  502    0  0.45155599017E+02 -0.75355906051E+02  0.23408702026E+03  0.25002854588E+03  0.00000000000E+00 0. -1.
         22    1    3    3    0    0 -0.17149640687E+02  0.84500507934E+02  0.64998161550E+02  0.10797780801E+03  0.00000000000E+00 0.  1.
         22    1    3    3    0    0 -0.60599146812E+01  0.14503405264E+01  0.18686438170E+03  0.18696824116E+03  0.00000000000E+00 0.  1.
</event>
<event>
 7    1  0.6122298E-006  0.1253360E+03  0.7818608E-02  0.1363014E+00
          2   -1    0    0  502    0  0.00000000000E+00  0.00000000000E+00  0.98234160489E+02  0.98234160489E+02  0.00000000000E+00 0. -1.
          1   -1    0    0  501    0 -0.00000000000E+00 -0.00000000000E+00 -0.21430535309E+04  0.21430535309E+04  0.00000000000E+00 0. -1.
         25    2    1    2    0    0 -0.68080348765E+02 -0.13962852301E+03 -0.65591304689E+02  0.20990254291E+03  0.12500319973E+03 0.  0.
          2    1    1    2  501    0  0.71980468751E+02  0.10167919455E+03 -0.19882781463E+04  0.19921771591E+04  0.00000000000E+00 0. -1.
          1    1    1    2  502    0 -0.39001199862E+01  0.37949328463E+02  0.90500805780E+01  0.39207989303E+02  0.00000000000E+00 0. -1.
         22    1    3    3    0    0  0.15187894394E+02 -0.60004649165E+01 -0.48920147130E+02  0.51573816133E+02  0.00000000000E+00 0.  1.
         22    1    3    3    0    0 -0.83268243159E+02 -0.13362805809E+03 -0.16671157559E+02  0.15832872678E+03  0.00000000000E+00 0.  1.
</event>
<event>
 7    1  0.6122298E-006  0.5252606E+02  0.7818608E-02  0.1482042E+00
          2   -1    0    0  502    0  0.00000000000E+00  0.00000000000E+00  0.21276924992E+03  0.21276924992E+03  0.00000000000E+00 0. -1.
          1   -1    0    0  501    0 -0.00000000000E+00 -0.00000000000E+00 -0.83664156966E+03  0.83664156966E+03  0.00000000000E+00 0. -1.
         25    2    1    2    0    0 -0.33985321209E+02  0.14023279390E+02 -0.49623542489E+03  0.51305770679E+03  0.12500783637E+03 0.  0.
          2    1    1    2  501    0  0.12745831877E+02  0.34208980439E+02 -0.32756627509E+03  0.32959425837E+03  0.00000000000E+00 0. -1.
          1    1    1    2  502    0  0.21239489332E+02 -0.48232259828E+02  0.19992938024E+03  0.20675885442E+03  0.00000000000E+00 0. -1.
         22    1    3    3    0    0  0.40050307189E+02  0.47557309659E+01 -0.73969198186E+02  0.84250141622E+02  0.00000000000E+00 0. -1.
         22    1    3    3    0    0 -0.74035628399E+02  0.92675484237E+01 -0.42226622671E+03  0.42880756517E+03  0.00000000000E+00 0. -1.
</event>
<event>
 7    1  0.6122298E-006  0.1048104E+03  0.7818608E-02  0.1299758E+00
          2   -1    0    0  502    0  0.00000000000E+00  0.00000000000E+00  0.32118320551E+03  0.32118320551E+03  0.00000000000E+00 0. -1.
          1   -1    0    0  501    0 -0.00000000000E+00 -0.00000000000E+00 -0.12224672711E+04  0.12224672711E+04  0.00000000000E+00 0. -1.
         25    2    1    2    0    0 -0.78308734490E+02 -0.96378264374E+02 -0.47369279464E+03  0.50540160006E+03  0.12499954360E+03 0.  0.
          2    1    1    2  501    0 -0.24584855790E+02  0.75617338644E+02 -0.72164992925E+03  0.72601722942E+03  0.00000000000E+00 0. -1.
          1    1    1    2  502    0  0.10289359028E+03  0.20760925729E+02  0.29405865829E+03  0.31223164714E+03  0.00000000000E+00 0. -1.
         22    1    3    3    0    0 -0.10009817092E+03 -0.31937527923E+02 -0.23959774838E+03  0.26162326070E+03  0.00000000000E+00 0.  1.
         22    1    3    3    0    0  0.21789436426E+02 -0.64440736450E+02 -0.23409504626E+03  0.24377833935E+03  0.00000000000E+00 0.  1.
</event>
<event>
 7    1  0.6122298E-006  0.7416871E+02  0.7818608E-02  0.1474994E+00
          2   -1    0    0  502    0  0.00000000000E+00  0.00000000000E+00  0.43823531040E+03  0.43823531040E+03  0.00000000000E+00 0. -1.
          1   -1    0    0  501    0 -0.00000000000E+00 -0.00000000000E+00 -0.38204460439E+02  0.38204460439E+02  0.00000000000E+00 0. -1.
         25    2    1    2    0    0 -0.66174952942E+02  0.19513534489E+02  0.25599595429E+03  0.29311913569E+03  0.12499998668E+03 0.  0.
          2    1    1    2  501    0  0.61373733012E+02 -0.46262186667E+02  0.68162435207E+02  0.10272800296E+03  0.00000000000E+00 0. -1.
          1    1    1    2  502    0  0.48012199300E+01  0.26748652178E+02  0.75872460469E+02  0.80592632193E+02  0.00000000000E+00 0. -1.
         22    1    3    3    0    0  0.13536700855E+02 -0.33027251083E+02  0.26190409314E+02  0.44271651473E+02  0.00000000000E+00 0. -1.
         22    1    3    3    0    0 -0.79711653796E+02  0.52540785572E+02  0.22980554498E+03  0.24884748422E+03  0.00000000000E+00 0. -1.
</event>
<event>
 7    1  0.6122298E-006  0.7187395E+02  0.7818608E-02  0.1356578E+00
          2   -1    0    0  502    0  0.00000000000E+00  0.00000000000E+00  0.17526109995E+04  0.17526109995E+04  0.00000000000E+00 0. -1.
          1   -1    0    0  501    0 -0.00000000000E+00 -0.00000000000E+00 -0.72044441474E+02  0.72044441474E+02  0.00000000000E+00 0. -1.
         25    2    1    2    0    0 -0.31714641923E+02 -0.12010722927E+02  0.35767155665E+03  0.38039980056E+03  0.12499995938E+03 0.  0.
          2    1    1    2  501    0 -0.50499394118E+01  0.73770172165E+02 -0.36847255136E+02  0.82615134210E+02  0.00000000000E+00 0. -1.
          1    1    1    2  502    0  0.36764581335E+02 -0.61759449238E+02  0.13597422565E+04  0.13616405062E+04  0.00000000000E+00 0. -1.
         22    1    3    3    0    0 -0.77824512072E+02  0.80439281406E+01  0.19413953333E+03  0.20931201079E+03  0.00000000000E+00 0. -1.
         22    1    3    3    0    0  0.46109870149E+02 -0.20054651068E+02  0.16353202332E+03  0.17108778976E+03  0.00000000000E+00 0. -1.
</event>
<event>
 7    1  0.6122298E-006  0.5711799E+02  0.7818608E-02  0.1424592E+00
          2   -1    0    0  502    0  0.00000000000E+00  0.00000000000E+00  0.16424089965E+04  0.16424089965E+04  0.00000000000E+00 0. -1.
          1   -1    0    0  501    0 -0.00000000000E+00 -0.00000000000E+00 -0.34693977858E+03  0.34693977858E+03  0.00000000000E+00 0. -1.
         25    2    1    2    0    0  0.48719811099E+02 -0.86012409073E+02  0.46714940440E+02  0.16606585984E+03  0.12499531845E+03 0.  0.
          2    1    1    2  501    0 -0.39640620648E+01  0.51014152537E+02 -0.28445545236E+03  0.28902086763E+03  0.00000000000E+00 0. -1.
          1    1    1    2  502    0 -0.44755749034E+02  0.34998256536E+02  0.15332097298E+04  0.15342620476E+04  0.00000000000E+00 0. -1.
         22    1    3    3    0    0  0.20735393178E+01  0.24528523194E+02 -0.17289865670E+02  0.30081347547E+02  0.00000000000E+00 0. -1.
         22    1    3    3    0    0  0.46646271781E+02 -0.11054093227E+03  0.64004806110E+02  0.13598451229E+03  0.00000000000E+00 0. -1.
</event>
<event>
 7    1  0.6122298E-006  0.1914654E+03  0.7818608E-02  0.1256034E+00
          2   -1    0    0  502    0  0.00000000000E+00  0.00000000000E+00  0.28513777259E+04  0.28513777259E+04  0.00000000000E+00 0. -1.
          1   -1    0    0  501    0 -0.00000000000E+00 -0.00000000000E+00 -0.10065370115E+04  0.10065370115E+04  0.00000000000E+00 0. -1.
         25    2    1    2    0    0 -0.19623340000E+03  0.15555680411E+03  0.19282560031E+03  0.33987037210E+03  0.12499876445E+03 0.  0.
          2    1    1    2  501    0  0.16110352695E+03 -0.99581465598E+02 -0.92297477415E+03  0.94220658478E+03  0.00000000000E+00 0. -1.
          1    1    1    2  502    0  0.35129873046E+02 -0.55975338516E+02  0.25749898883E+04  0.25758377805E+04  0.00000000000E+00 0. -1.
         22    1    3    3    0    0 -0.18980774016E+03  0.86752851678E+02  0.16205875149E+03  0.26422731583E+03  0.00000000000E+00 0. -1.
         22    1    3    3    0    0 -0.64256598413E+01  0.68803952436E+02  0.30766848827E+02  0.75643056271E+02  0.00000000000E+00 0. -1.
</event>
<event>
 7    1  0.6122298E-006  0.1785483E+03  0.7818608E-02  0.1314499E+00
          2   -1    0    0  502    0  0.00000000000E+00  0.00000000000E+00  0.90178604760E+03  0.90178604760E+03  0.00000000000E+00 0. -1.
          1   -1    0    0  501    0 -0.00000000000E+00 -0.00000000000E+00 -0.21744871124E+03  0.21744871124E+03  0.00000000000E+00 0. -1.
         25    2    1    2    0    0  0.98981506142E+02  0.14554780645E+03  0.35550907307E+03  0.41592415885E+03  0.12499880941E+03 0.  0.
          2    1    1    2  501    0  0.34194303855E+02 -0.22269748344E+02 -0.16878026677E+03  0.17364322779E+03  0.00000000000E+00 0. -1.
          1    1    1    2  502    0 -0.13317581000E+03 -0.12327805810E+03  0.49760853006E+03  0.52966737220E+03  0.00000000000E+00 0. -1.
         22    1    3    3    0    0  0.56989885538E+02  0.12119982002E+03  0.33925617416E+03  0.36473551394E+03  0.00000000000E+00 0. -1.
         22    1    3    3    0    0  0.41991620604E+02  0.24347986424E+02  0.16252898916E+02  0.51188644904E+02  0.00000000000E+00 0. -1.
</event>
<event>
 7    1  0.6555742E-006  0.6156255E+02  0.7818608E-02  0.1412607E+00
          2   -1    0    0  502    0  0.00000000000E+00  0.00000000000E+00  0.31782323910E+04  0.31782323910E+04  0.00000000000E+00 0. -1.
          1   -1    0    0  501    0 -0.00000000000E+00 -0.00000000000E+00 -0.60439036860E+03  0.60439036860E+03  0.00000000000E+00 0. -1.
         25    2    1    2    0    0  0.50792398690E+02 -0.99738364586E+02  0.50384817085E+01  0.16786457831E+03  0.12500208485E+03 0.  0.
          2    1    1    2  501    0 -0.32874507600E+02  0.50851565426E+02 -0.52100449268E+03  0.52451148352E+03  0.00000000000E+00 0. -1.
          1    1    1    2  502    0 -0.17917891090E+02  0.48886799160E+02  0.30898080334E+04  0.30902466978E+04  0.00000000000E+00 0. -1.
         22    1    3    3    0    0  0.91550920229E+02 -0.53047689421E+02  0.35221159681E+01  0.10586800106E+03  0.00000000000E+00 0. -1.
         22    1    3    3    0    0 -0.40758521539E+02 -0.46690675166E+02  0.15163657404E+01  0.61996577249E+02  0.00000000000E+00 0. -1.
</event>
<event>
 7    1  0.6122298E-006  0.1208157E+03  0.7818608E-02  0.1274084E+00
          2   -1    0    0  502    0  0.00000000000E+00  0.00000000000E+00  0.64620325241E+03  0.64620325241E+03  0.00000000000E+00 0. -1.
          1   -1    0    0  501    0 -0.00000000000E+00 -0.00000000000E+00 -0.10411842562E+04  0.10411842562E+04  0.00000000000E+00 0. -1.
         25    2    1    2    0    0  0.13704088073E+01 -0.17546365470E+03 -0.13432275302E+03  0.25388224493E+03  0.12499688064E+03 0.  0.
          2    1    1    2  501    0  0.53924039484E+02  0.69332711010E+02 -0.83865896950E+03  0.84324592733E+03  0.00000000000E+00 0. -1.
          1    1    1    2  502    0 -0.55294448291E+02  0.10613094369E+03  0.57800071876E+03  0.59025933631E+03  0.00000000000E+00 0. -1.
         22    1    3    3    0    0 -0.17571039903E+02 -0.18911408994E+03 -0.10719545918E+03  0.21809114362E+03  0.00000000000E+00 0. -1.
         22    1    3    3    0    0  0.18941448710E+02  0.13650435244E+02 -0.27127293837E+02  0.35791101304E+02  0.00000000000E+00 0. -1.
</event>
<event>
 7    1  0.6122298E-006  0.1434618E+03  0.7818608E-02  0.1300327E+00
          2   -1    0    0  502    0  0.00000000000E+00  0.00000000000E+00  0.77510022576E+03  0.77510022576E+03  0.00000000000E+00 0. -1.
          1   -1    0    0  501    0 -0.00000000000E+00 -0.00000000000E+00 -0.12194223439E+04  0.12194223439E+04  0.00000000000E+00 0. -1.
         25    2    1    2    0    0  0.16952357004E+03 -0.80001232734E+02 -0.37200252147E+03  0.43491336060E+03  0.12500126885E+03 0.  0.
          2    1    1    2  501    0 -0.57206508134E+02 -0.81711577746E+01 -0.80806848794E+03  0.81013210873E+03  0.00000000000E+00 0. -1.
          1    1    1    2  502    0 -0.11231706190E+03  0.88172390509E+02  0.73574889129E+03  0.74947710031E+03  0.00000000000E+00 0. -1.
         22    1    3    3    0    0  0.11750876135E+03 -0.22966346184E+01 -0.28030339461E+03  0.30394666729E+03  0.00000000000E+00 0. -1.
         22    1    3    3    0    0  0.52014808691E+02 -0.77704598116E+02 -0.91699126852E+02  0.13096669331E+03  0.00000000000E+00 0. -1.
</event>
<event>
 7    1  0.6122298E-006  0.3702486E+02  0.7818608E-02  0.1572221E+00
          2   -1    0    0  502    0  0.00000000000E+00  0.00000000000E+00  0.24030344990E+03  0.24030344990E+03  0.00000000000E+00 0. -1.
          1   -1    0    0  501    0 -0.00000000000E+00 -0.00000000000E+00 -0.92860539764E+03  0.92860539764E+03  0.00000000000E+00 0. -1.
         25    2    1    2    0    0  0.72588557324E+01  0.65905799855E+01 -0.15143470650E+03  0.19660676542E+03  0.12500249256E+03 0.  0.
          2    1    1    2  501    0  0.27871856847E+02  0.58899245316E+01 -0.75271722128E+03  0.75325609644E+03  0.00000000000E+00 0. -1.
          1    1    1    2  502    0 -0.35130712579E+02 -0.12480504517E+02  0.21584998004E+03  0.21904598568E+03  0.00000000000E+00 0. -1.
         22    1    3    3    0    0 -0.18917036780E+02 -0.34001335303E+02 -0.14220611216E+03  0.14743311506E+03  0.00000000000E+00 0. -1.
         22    1    3    3    0    0  0.26175892512E+02  0.40591915288E+02 -0.92285943413E+01  0.49173650354E+02  0.00000000000E+00 0. -1.
</event>
<event>
 7    1  0.6122298E-006  0.7247141E+02  0.7818608E-02  0.1379352E+00
          2   -1    0    0  502    0  0.00000000000E+00  0.00000000000E+00  0.12859948149E+04  0.12859948149E+04  0.00000000000E+00 0. -1.
          1   -1    0    0  501    0 -0.00000000000E+00 -0.00000000000E+00 -0.61537437979E+02  0.61537437979E+02  0.00000000000E+00 0. -1.
         25    2    1    2    0    0 -0.10017032437E+03 -0.53142023127E+02  0.34983160504E+03  0.38840988408E+03  0.12498767002E+03 0.  0.
          2    1    1    2  501    0  0.30060579565E+02  0.49186134923E+02 -0.20548816359E+02  0.61197779095E+02  0.00000000000E+00 0. -1.
          1    1    1    2  502    0  0.70109744805E+02  0.39558882038E+01  0.89517458821E+03  0.89792458967E+03  0.00000000000E+00 0. -1.
         22    1    3    3    0    0 -0.45796630125E+02 -0.84129944510E+02  0.27298814773E+03  0.28930556112E+03  0.00000000000E+00 0.  1.
         22    1    3    3    0    0 -0.54373694245E+02  0.30987921383E+02  0.76843457312E+02  0.99104322959E+02  0.00000000000E+00 0.  1.
</event>
<event>
 7    1  0.6122298E-006  0.6698364E+02  0.7818608E-02  0.1409743E+00
          2   -1    0    0  502    0  0.00000000000E+00  0.00000000000E+00  0.15806838339E+04  0.15806838339E+04  0.00000000000E+00 0. -1.
          1   -1    0    0  501    0 -0.00000000000E+00 -0.00000000000E+00 -0.20863834146E+03  0.20863834146E+03  0.00000000000E+00 0. -1.
         25    2    1    2    0    0  0.13873281441E+02 -0.35361541815E+02 -0.11302380523E+02  0.13112785445E+03  0.12499545524E+03 0.  0.
          2    1    1    2  501    0 -0.62777318922E+02  0.37036355660E+02 -0.12733431965E+03  0.14671984314E+03  0.00000000000E+00 0. -1.
          1    1    1    2  502    0  0.48904037481E+02 -0.16748138448E+01  0.15106821926E+04  0.15114744778E+04  0.00000000000E+00 0. -1.
         22    1    3    3    0    0  0.77303395930E+01  0.18480462301E+02  0.47265340261E+02  0.51335153911E+02  0.00000000000E+00 0. -1.
         22    1    3    3    0    0  0.61429418480E+01 -0.53842004117E+02 -0.58567720783E+02  0.79792700541E+02  0.00000000000E+00 0. -1.
</event>
<event>
 7    1  0.6122298E-006  0.9222156E+02  0.7818608E-02  0.1456029E+00
          2   -1    0    0  502    0  0.00000000000E+00  0.00000000000E+00  0.40653888183E+04  0.40653888183E+04  0.00000000000E+00 0. -1.
          1   -1    0    0  501    0 -0.00000000000E+00 -0.00000000000E+00 -0.14162773142E+02  0.14162773142E+02  0.00000000000E+00 0. -1.
         25    2    1    2    0    0 -0.10578931498E+02 -0.73229429431E+02  0.21096178574E+04  0.21146127284E+04  0.12500009501E+03 0.  0.
          2    1    1    2  501    0 -0.35825582653E+01  0.93902012291E+02  0.17912455551E+03  0.20227710948E+03  0.00000000000E+00 0. -1.
          1    1    1    2  502    0  0.14161489763E+02 -0.20672582860E+02  0.17624836323E+04  0.17626617536E+04  0.00000000000E+00 0. -1.
         22    1    3    3    0    0  0.33022229819E+02 -0.21486852602E+01  0.16929975717E+03  0.17250360080E+03  0.00000000000E+00 0. -1.
         22    1    3    3    0    0 -0.43601161317E+02 -0.71080744170E+02  0.19403181002E+04  0.19421091276E+04  0.00000000000E+00 0. -1.
</event>
<event>
 7    1  0.6122298E-006  0.8025678E+02  0.7818608E-02  0.1405029E+00
          2   -1    0    0  502    0  0.00000000000E+00  0.00000000000E+00  0.11408906418E+04  0.11408906418E+04  0.00000000000E+00 0. -1.
          1   -1    0    0  501    0 -0.00000000000E+00 -0.00000000000E+00 -0.46139283722E+02  0.46139283722E+02  0.00000000000E+00 0. -1.
         25    2    1    2    0    0 -0.69626639716E+02 -0.94270647538E+02  0.35117872572E+03  0.39074982241E+03  0.12499640941E+03 0.  0.
          2    1    1    2  501    0  0.43636773599E+02  0.60799951613E+02  0.28700558942E+02  0.80153129757E+02  0.00000000000E+00 0. -1.
          1    1    1    2  502    0  0.25989866118E+02  0.33470695925E+02  0.71487207346E+03  0.71612697341E+03  0.00000000000E+00 0. -1.
         22    1    3    3    0    0  0.18465406731E+02  0.17836202474E+02  0.84977681486E+02  0.88771097296E+02  0.00000000000E+00 0.  1.
         22    1    3    3    0    0 -0.88092046447E+02 -0.11210685001E+03  0.26620104424E+03  0.30197872511E+03  0.00000000000E+00 0.  1.
</event>
<event>
 7    1  0.6122298E-006  0.1051031E+03  0.7818608E-02  0.1281872E+00
          2   -1    0    0  502    0  0.00000000000E+00  0.00000000000E+00  0.24929577366E+03  0.24929577366E+03  0.00000000000E+00 0. -1.
          1   -1    0    0  501    0 -0.00000000000E+00 -0.00000000000E+00 -0.14402526452E+04  0.14402526452E+04  0.00000000000E+00 0. -1.
         25    2    1    2    0    0  0.28294018113E+02 -0.18737889147E+03 -0.64668655423E+03  0.68537592871E+03  0.12500105522E+03 0.  0.
          2    1    1    2  501    0 -0.40750115885E+02  0.84408799811E+02 -0.75949612394E+03  0.76525798246E+03  0.00000000000E+00 0. -1.
          1    1    1    2  502    0  0.12456097772E+02  0.10297009165E+03  0.21522580663E+03  0.23891450769E+03  0.00000000000E+00 0. -1.
         22    1    3    3    0    0  0.42722001265E+02 -0.74240156566E+02 -0.44942741749E+03  0.45751696562E+03  0.00000000000E+00 0. -1.
         22    1    3    3    0    0 -0.14427983152E+02 -0.11313873490E+03 -0.19725913674E+03  0.22785896309E+03  0.00000000000E+00 0. -1.
</event>
<event>
 7    1  0.6122298E-006  0.2172219E+03  0.7818608E-02  0.1287588E+00
          2   -1    0    0  502    0  0.00000000000E+00  0.00000000000E+00  0.13281922705E+04  0.13281922705E+04  0.00000000000E+00 0. -1.
          1   -1    0    0  501    0 -0.00000000000E+00 -0.00000000000E+00 -0.72722730877E+03  0.72722730877E+03  0.00000000000E+00 0. -1.
         25    2    1    2    0    0  0.19916293620E+03  0.21027557678E+01 -0.18294108336E+03  0.29793082305E+03  0.12500015442E+03 0.  0.
          2    1    1    2  501    0  0.15562620197E+02 -0.40051326538E+02 -0.47646289926E+03  0.47839648648E+03  0.00000000000E+00 0. -1.
          1    1    1    2  502    0 -0.21472555640E+03  0.37948570770E+02  0.12603689443E+04  0.12790922697E+04  0.00000000000E+00 0. -1.
         22    1    3    3    0    0  0.14618207129E+03 -0.50622544346E+02 -0.15248711994E+03  0.21721915595E+03  0.00000000000E+00 0. -1.
         22    1    3    3    0    0  0.52980864909E+02  0.52725300114E+02 -0.30453963417E+02  0.80711667102E+02  0.00000000000E+00 0. -1.
</event>
<event>
 7    1  0.6122298E-006  0.1021764E+03  0.7818608E-02  0.1333526E+00
          2   -1    0    0  502    0  0.00000000000E+00  0.00000000000E+00  0.46509497860E+02  0.46509497860E+02  0.00000000000E+00 0. -1.
          1   -1    0    0  501    0 -0.00000000000E+00 -0.00000000000E+00 -0.96352343925E+03  0.96352343925E+03  0.00000000000E+00 0. -1.
         25    2    1    2    0    0  0.12255482674E+03 -0.88813513595E+02 -0.34404790612E+03  0.39610950999E+03  0.12500502567E+03 0.  0.
          2    1    1    2  501    0 -0.84816192900E+02  0.41880738729E+02 -0.53372670437E+03  0.54204425817E+03  0.00000000000E+00 0. -1.
          1    1    1    2  502    0 -0.37738633835E+02  0.46932774867E+02 -0.39239330901E+02  0.71879168957E+02  0.00000000000E+00 0. -1.
         22    1    3    3    0    0  0.13604375349E+03 -0.65017028706E+02 -0.20547634401E+03  0.25486397319E+03  0.00000000000E+00 0.  1.
         22    1    3    3    0    0 -0.13488926751E+02 -0.23796484890E+02 -0.13857156212E+03  0.14124553680E+03  0.00000000000E+00 0.  1.
</event>
<event>
 7    1  0.6122298E-006  0.2699228E+03  0.7818608E-02  0.1214781E+00
          2   -1    0    0  502    0  0.00000000000E+00  0.00000000000E+00  0.13769188788E+04  0.13769188788E+04  0.00000000000E+00 0. -1.
          1   -1    0    0  501    0 -0.00000000000E+00 -0.00000000000E+00 -0.14389751891E+04  0.14389751891E+04  0.00000000000E+00 0. -1.
         25    2    1    2    0    0 -0.17729653423E+02 -0.22642523448E+03  0.97082158094E+02  0.27683181614E+03  0.12501272571E+03 0.  0.
          2    1    1    2  501    0  0.51165209471E+02 -0.49948794360E+02 -0.13318460572E+04  0.13337641024E+04  0.00000000000E+00 0. -1.
          1    1    1    2  502    0 -0.33435556047E+02  0.27637402884E+03  0.11727075888E+04  0.12052981495E+04  0.00000000000E+00 0. -1.
         22    1    3    3    0    0 -0.40026419740E+02 -0.24597274938E+02  0.49561173258E+02  0.68289458237E+02  0.00000000000E+00 0. -1.
         22    1    3    3    0    0  0.22296766317E+02 -0.20182795954E+03  0.47520984836E+02  0.20854235790E+03  0.00000000000E+00 0. -1.
</event>
<event>
 7    1  0.6122298E-006  0.5299307E+02  0.7818608E-02  0.1488206E+00
          2   -1    0    0  502    0  0.00000000000E+00  0.00000000000E+00  0.18620683995E+04  0.18620683995E+04  0.00000000000E+00 0. -1.
          1   -1    0    0  501    0 -0.00000000000E+00 -0.00000000000E+00 -0.48283541645E+02  0.48283541645E+02  0.00000000000E+00 0. -1.
         25    2    1    2    0    0 -0.32547994260E+02  0.30297778444E+02  0.64318596310E+03  0.65671816717E+03  0.12495295381E+03 0.  0.
          2    1    1    2  501    0  0.64560919074E+01 -0.53103175354E+02 -0.23929755999E+02  0.58602573131E+02  0.00000000000E+00 0. -1.
          1    1    1    2  502    0  0.26091902353E+02  0.22805396910E+02  0.11945286508E+04  0.11950312008E+04  0.00000000000E+00 0. -1.
         22    1    3    3    0    0 -0.40648548299E+02 -0.19867820487E+02  0.53801791390E+03  0.53991694774E+03  0.00000000000E+00 0. -1.
         22    1    3    3    0    0  0.81005540390E+01  0.50165598931E+02  0.10516804919E+03  0.11680121944E+03  0.00000000000E+00 0. -1.
</event>
<event>
 7    1  0.6122298E-006  0.5185516E+02  0.7818608E-02  0.1497803E+00
          2   -1    0    0  502    0  0.00000000000E+00  0.00000000000E+00  0.37244071613E+03  0.37244071613E+03  0.00000000000E+00 0. -1.
          1   -1    0    0  501    0 -0.00000000000E+00 -0.00000000000E+00 -0.39278122661E+03  0.39278122661E+03  0.00000000000E+00 0. -1.
         25    2    1    2    0    0  0.23517519796E+02  0.52349527299E+01 -0.10192491249E+03  0.16307641470E+03  0.12499900311E+03 0.  0.
          2    1    1    2  501    0  0.26840041954E+02 -0.19427036029E+02 -0.25720994674E+03  0.25933521605E+03  0.00000000000E+00 0. -1.
          1    1    1    2  502    0 -0.50357561750E+02  0.14192083299E+02  0.33879434875E+03  0.34281031198E+03  0.00000000000E+00 0. -1.
         22    1    3    3    0    0  0.43718674655E+01  0.51401625065E+02 -0.23244259167E+01  0.51639551124E+02  0.00000000000E+00 0. -1.
         22    1    3    3    0    0  0.19145652330E+02 -0.46166672335E+02 -0.99600486578E+02  0.11143686358E+03  0.00000000000E+00 0. -1.
</event>
<event>
 7    1  0.6122298E-006  0.1238219E+03  0.7818608E-02  0.1440137E+00
          2   -1    0    0  502    0  0.00000000000E+00  0.00000000000E+00  0.11677620746E+04  0.11677620746E+04  0.00000000000E+00 0. -1.
          1   -1    0    0  501    0 -0.00000000000E+00 -0.00000000000E+00 -0.12761821828E+03  0.12761821828E+03  0.00000000000E+00 0. -1.
         25    2    1    2    0    0  0.66569291000E+02 -0.82582124672E+02  0.48938392939E+03  0.51611389420E+03  0.12500257447E+03 0.  0.
          2    1    1    2  501    0 -0.70677647872E+02  0.10316397709E+03 -0.79808127226E+02  0.14834915992E+03  0.00000000000E+00 0. -1.
          1    1    1    2  502    0  0.41083568717E+01 -0.20581852418E+02  0.63056805412E+03  0.63091723873E+03  0.00000000000E+00 0. -1.
         22    1    3    3    0    0  0.72947690534E+02 -0.92781715871E+01  0.35850658571E+03  0.36597052070E+03  0.00000000000E+00 0.  1.
         22    1    3    3    0    0 -0.63783995341E+01 -0.73303953085E+02  0.13087734368E+03  0.15014337350E+03  0.00000000000E+00 0.  1.
</event>
<event>
 7    1  0.6122298E-006  0.4043514E+02  0.7818608E-02  0.1559742E+00
          2   -1    0    0  502    0  0.00000000000E+00  0.00000000000E+00  0.22138577645E+04  0.22138577645E+04  0.00000000000E+00 0. -1.
          1   -1    0    0  501    0 -0.00000000000E+00 -0.00000000000E+00 -0.14786508639E+02  0.14786508639E+02  0.00000000000E+00 0. -1.
         25    2    1    2    0    0 -0.41275568832E+02 -0.11274099678E+02  0.43977444816E+03  0.45919312069E+03  0.12500391567E+03 0.  0.
          2    1    1    2  501    0  0.42214407714E+01  0.27896786577E+02  0.36298339267E+02  0.45974130737E+02  0.00000000000E+00 0. -1.
          1    1    1    2  502    0  0.37054128060E+02 -0.16622686899E+02  0.17229984684E+04  0.17234770217E+04  0.00000000000E+00 0. -1.
         22    1    3    3    0    0 -0.84947787466E+02 -0.86918282205E+01  0.24157691812E+03  0.25622467063E+03  0.00000000000E+00 0.  1.
         22    1    3    3    0    0  0.43672218634E+02 -0.25822714579E+01  0.19819753004E+03  0.20296845006E+03  0.00000000000E+00 0.  1.
</event>
<event>
 7    1  0.6122298E-006  0.1218195E+03  0.7818608E-02  0.1431697E+00
          2   -1    0    0  502    0  0.00000000000E+00  0.00000000000E+00  0.25922445655E+04  0.25922445655E+04  0.00000000000E+00 0. -1.
          1   -1    0    0  501    0 -0.00000000000E+00 -0.00000000000E+00 -0.10315334629E+03  0.10315334629E+03  0.00000000000E+00 0. -1.
         25    2    1    2    0    0 -0.94450769243E+02 -0.60816555764E+02  0.10901960021E+03  0.20032461906E+03  0.12500031402E+03 0.  0.
          2    1    1    2  501    0  0.48027327050E+01 -0.22216864500E+02 -0.53660198691E+02  0.58275828894E+02  0.00000000000E+00 0. -1.
          1    1    1    2  502    0  0.89648036538E+02  0.83033420264E+02  0.24337318177E+04  0.24367974639E+04  0.00000000000E+00 0. -1.
         22    1    3    3    0    0 -0.98429387343E+02 -0.22559880435E+02  0.19438887255E+02  0.10283561074E+03  0.00000000000E+00 0. -1.
         22    1    3    3    0    0  0.39786181002E+01 -0.38256675329E+02  0.89580712957E+02  0.97489008319E+02  0.00000000000E+00 0. -1.
</event>
<event>
 7    1  0.6122298E-006  0.6942105E+02  0.7818608E-02  0.1433087E+00
          2   -1    0    0  502    0  0.00000000000E+00  0.00000000000E+00  0.18937113305E+04  0.18937113305E+04  0.00000000000E+00 0. -1.
          1   -1    0    0  501    0 -0.00000000000E+00 -0.00000000000E+00 -0.47709622344E+02  0.47709622344E+02  0.00000000000E+00 0. -1.
         25    2    1    2    0    0 -0.18888572661E+02  0.35112533930E+02  0.87363841368E+03  0.88343561749E+03  0.12499897669E+03 0.  0.
          2    1    1    2  501    0 -0.26198567421E+02  0.29521071496E+02 -0.31829676182E+02  0.50704899990E+02  0.00000000000E+00 0. -1.
          1    1    1    2  502    0  0.45087140082E+02 -0.64633605426E+02  0.10041929707E+04  0.10072804354E+04  0.00000000000E+00 0. -1.
         22    1    3    3    0    0  0.41880616389E+02 -0.20643615123E+02  0.39419013076E+03  0.39694584525E+03  0.00000000000E+00 0.  1.
         22    1    3    3    0    0 -0.60769189050E+02  0.55756149053E+02  0.47944828292E+03  0.48648977223E+03  0.00000000000E+00 0.  1.
</event>
<event>
 7    1  0.6122298E-006  0.2876963E+03  0.7818608E-02  0.1252354E+00
          2   -1    0    0  502    0  0.00000000000E+00  0.00000000000E+00  0.17532746213E+04  0.17532746213E+04  0.00000000000E+00 0. -1.
          1   -1    0    0  501    0 -0.00000000000E+00 -0.00000000000E+00 -0.12817578363E+03  0.12817578363E+03  0.00000000000E+00 0. -1.
         25    2    1    2    0    0  0.28124830198E+03  0.16193435323E+01  0.29792198675E+03  0.42834950294E+03  0.12499022698E+03 0.  0.
          2    1    1    2  501    0 -0.29189740118E+03 -0.45975025312E+02  0.28702073682E+03  0.41194501955E+03  0.00000000000E+00 0. -1.
          1    1    1    2  502    0  0.10649099204E+02  0.44355681779E+02  0.10401561141E+04  0.10411558825E+04  0.00000000000E+00 0. -1.
         22    1    3    3    0    0  0.19973188525E+03  0.54567119327E+02  0.23169505548E+03  0.31072977847E+03  0.00000000000E+00 0.  1.
         22    1    3    3    0    0  0.81516416727E+02 -0.52947775794E+02  0.66226931272E+02  0.11761972447E+03  0.00000000000E+00 0.  1.
</event>
<event>
 7    1  0.6122298E-006  0.1148536E+03  0.7818608E-02  0.1286815E+00
          2   -1    0    0  502    0  0.00000000000E+00  0.00000000000E+00  0.15227964105E+04  0.15227964105E+04  0.00000000000E+00 0. -1.
          1   -1    0    0  501    0 -0.00000000000E+00 -0.00000000000E+00 -0.31270558166E+03  0.31270558166E+03  0.00000000000E+00 0. -1.
         25    2    1    2    0    0 -0.15595609709E+03 -0.60361917474E+02 -0.11984943621E+03  0.24073788598E+03  0.12499990834E+03 0.  0.
          2    1    1    2  501    0  0.41978367094E+02  0.70276331158E+02 -0.11728319817E+03  0.14302550332E+03  0.00000000000E+00 0. -1.
          1    1    1    2  502    0  0.11397773000E+03 -0.99144136847E+01  0.14472234633E+04  0.14517386029E+04  0.00000000000E+00 0. -1.
         22    1    3    3    0    0 -0.49161243983E+02  0.32916110297E+02 -0.71165686893E+01  0.59589795913E+02  0.00000000000E+00 0.  1.
         22    1    3    3    0    0 -0.10679485311E+03 -0.93278027770E+02 -0.11273286752E+03  0.18114809007E+03  0.00000000000E+00 0.  1.
</event>
<event>
 7    1  0.6122298E-006  0.9615386E+02  0.7818608E-02  0.1325656E+00
          2   -1    0    0  502    0  0.00000000000E+00  0.00000000000E+00  0.66935518450E+03  0.66935518450E+03  0.00000000000E+00 0. -1.
          1   -1    0    0  501    0 -0.00000000000E+00 -0.00000000000E+00 -0.60399932204E+03  0.60399932204E+03  0.00000000000E+00 0. -1.
         25    2    1    2    0    0  0.12200289730E+03 -0.34893486934E+02  0.16385322336E+03  0.24202228729E+03  0.12499858542E+03 0.  0.
          2    1    1    2  501    0 -0.63979300266E+02  0.71462976802E+02 -0.55828114015E+03  0.56646106606E+03  0.00000000000E+00 0. -1.
          1    1    1    2  502    0 -0.58023597037E+02 -0.36569489868E+02  0.45978377925E+03  0.46487115319E+03  0.00000000000E+00 0. -1.
         22    1    3    3    0    0  0.13343089538E+03 -0.62883852310E+02  0.12980081514E+03  0.19648520131E+03  0.00000000000E+00 0. -1.
         22    1    3    3    0    0 -0.11427998072E+02  0.27990365376E+02  0.34052408222E+02  0.45537085980E+02  0.00000000000E+00 0. -1.
</event>
<event>
 7    1  0.6122298E-006  0.9547923E+02  0.7818608E-02  0.1417172E+00
          2   -1    0    0  502    0  0.00000000000E+00  0.00000000000E+00  0.30581205388E+03  0.30581205388E+03  0.00000000000E+00 0. -1.
          1   -1    0    0  501    0 -0.00000000000E+00 -0.00000000000E+00 -0.89599479674E+03  0.89599479674E+03  0.00000000000E+00 0. -1.
         25    2    1    2    0    0  0.66967435736E+01  0.64264228283E+02  0.20894762154E+02  0.14225462231E+03  0.12500019629E+03 0.  0.
          2    1    1    2  501    0 -0.32604042853E+01 -0.96486462339E+02 -0.83133596201E+03  0.83692278580E+03  0.00000000000E+00 0. -1.
          1    1    1    2  502    0 -0.34363392883E+01  0.32222234056E+02  0.22025845699E+03  0.22262944251E+03  0.00000000000E+00 0. -1.
         22    1    3    3    0    0  0.60168180591E+02  0.23494597077E+02  0.35123521811E+02  0.73524606982E+02  0.00000000000E+00 0. -1.
         22    1    3    3    0    0 -0.53471437018E+02  0.40769631206E+02 -0.14228759657E+02  0.68730015326E+02  0.00000000000E+00 0. -1.
</event>
<event>
 7    1  0.6122298E-006  0.1688920E+03  0.7818608E-02  0.1320806E+00
          2   -1    0    0  502    0  0.00000000000E+00  0.00000000000E+00  0.69311844681E+03  0.69311844681E+03  0.00000000000E+00 0. -1.
          1   -1    0    0  501    0 -0.00000000000E+00 -0.00000000000E+00 -0.47257445330E+03  0.47257445330E+03  0.00000000000E+00 0. -1.
         25    2    1    2    0    0  0.13464409149E+03  0.20360649243E+02 -0.14655791584E+03  0.23589879659E+03  0.12500172848E+03 0.  0.
          2    1    1    2  501    0  0.36245759448E+02 -0.18661773938E+02 -0.26852070035E+03  0.27159783394E+03  0.00000000000E+00 0. -1.
          1    1    1    2  502    0 -0.17088985094E+03 -0.16988753049E+01  0.63562260970E+03  0.65819626958E+03  0.00000000000E+00 0. -1.
         22    1    3    3    0    0  0.11005349869E+03 -0.18341805973E+02 -0.37685371912E+02  0.11776409332E+03  0.00000000000E+00 0.  1.
         22    1    3    3    0    0  0.24590592808E+02  0.38702455216E+02 -0.10887254393E+03  0.11813470326E+03  0.00000000000E+00 0.  1.
</event>
<event>
 7    1  0.6122298E-006  0.5960974E+02  0.7818608E-02  0.1427232E+00
          2   -1    0    0  502    0  0.00000000000E+00  0.00000000000E+00  0.18978618872E+03  0.18978618872E+03  0.00000000000E+00 0. -1.
          1   -1    0    0  501    0 -0.00000000000E+00 -0.00000000000E+00 -0.20899680963E+04  0.20899680963E+04  0.00000000000E+00 0. -1.
         25    2    1    2    0    0 -0.61265178165E+02  0.86849341019E+02 -0.18721210494E+03  0.24893860345E+03  0.12500330378E+03 0.  0.
          2    1    1    2  501    0  0.30465767117E+02 -0.37159156083E+02 -0.18661966197E+04  0.18668151460E+04  0.00000000000E+00 0. -1.
          1    1    1    2  502    0  0.30799411049E+02 -0.49690184937E+02  0.15322681709E+03  0.16400053559E+03  0.00000000000E+00 0. -1.
         22    1    3    3    0    0 -0.45424788401E+02  0.11049627223E+03 -0.95610455860E+02  0.15301698222E+03  0.00000000000E+00 0. -1.
         22    1    3    3    0    0 -0.15840389764E+02 -0.23646931211E+02 -0.91601649084E+02  0.95921621225E+02  0.00000000000E+00 0. -1.
</event>
<event>
 7    1  0.6122298E-006  0.3320832E+02  0.7818608E-02  0.1565205E+00
          2   -1    0    0  502    0  0.00000000000E+00  0.00000000000E+00  0.51128274107E+03  0.51128274107E+03  0.00000000000E+00 0. -1.
          1   -1    0    0  501    0 -0.00000000000E+00 -0.00000000000E+00 -0.45388141243E+02  0.45388141243E+02  0.00000000000E+00 0. -1.
         25    2    1    2    0    0 -0.34695620243E+02 -0.20772997553E+02  0.35699220833E+03  0.38039917835E+03  0.12499917835E+03 0.  0.
          2    1    1    2  501    0  0.27008219640E+01  0.33098309686E+02 -0.22733172093E+02  0.40244125742E+02  0.00000000000E+00 0. -1.
          1    1    1    2  502    0  0.31994798279E+02 -0.12325312132E+02  0.13163556358E+03  0.13602757822E+03  0.00000000000E+00 0. -1.
         22    1    3    3    0    0  0.10009096290E+02  0.73934581956E+01  0.30828625456E+03  0.30853729107E+03  0.00000000000E+00 0. -1.
         22    1    3    3    0    0 -0.44704716533E+02 -0.28166455749E+02  0.48705953769E+02  0.71861887272E+02  0.00000000000E+00 0. -1.
</event>
<event>
 7    1  0.6122298E-006  0.3778407E+02  0.7818608E-02  0.1536157E+00
          2   -1    0    0  502    0  0.00000000000E+00  0.00000000000E+00  0.25319325781E+04  0.25319325781E+04  0.00000000000E+00 0. -1.
          1   -1    0    0  501    0 -0.00000000000E+00 -0.00000000000E+00 -0.12072242828E+02  0.12072242828E+02  0.00000000000E+00 0. -1.
         25    2    1    2    0    0 -0.13654751446E+02  0.21956514748E+02  0.12696047729E+04  0.12760089201E+04  0.12503577064E+03 0.  0.
          2    1    1    2  501    0  0.32362423984E+02  0.13711369137E+02  0.27630540278E+02  0.44707660258E+02  0.00000000000E+00 0. -1.
          1    1    1    2  502    0 -0.18707672538E+02 -0.35667883884E+02  0.12226250221E+04  0.12232882406E+04  0.00000000000E+00 0. -1.
         22    1    3    3    0    0 -0.49705481933E+02 -0.11336900212E+02  0.24593760408E+03  0.25116621059E+03  0.00000000000E+00 0. -1.
         22    1    3    3    0    0  0.36050730487E+02  0.33293414960E+02  0.10236671688E+04  0.10248427095E+04  0.00000000000E+00 0. -1.
</event>
<event>
 7    1  0.6122298E-006  0.6732857E+02  0.7818608E-02  0.1374040E+00
          2   -1    0    0  502    0  0.00000000000E+00  0.00000000000E+00  0.13417763038E+04  0.13417763038E+04  0.00000000000E+00 0. -1.
          1   -1    0    0  501    0 -0.00000000000E+00 -0.00000000000E+00 -0.14011236692E+03  0.14011236692E+03  0.00000000000E+00 0. -1.
         25    2    1    2    0    0 -0.82991194196E+01 -0.24391991444E+02  0.11963986279E+03  0.17493561708E+03  0.12499971490E+03 0.  0.
          2    1    1    2  501    0  0.71170545434E+02  0.86646460642E+01 -0.10005941128E+03  0.12309430700E+03  0.00000000000E+00 0. -1.
          1    1    1    2  502    0 -0.62871426014E+02  0.15727345380E+02  0.11820834853E+04  0.11838587466E+04  0.00000000000E+00 0. -1.
         22    1    3    3    0    0 -0.66209192242E+02 -0.18736236852E+02  0.73443012795E+02  0.10064084577E+03  0.00000000000E+00 0. -1.
         22    1    3    3    0    0  0.57910072823E+02 -0.56557545918E+01  0.46196849993E+02  0.74294771307E+02  0.00000000000E+00 0. -1.
</event>
<event>
 7    1  0.6122298E-006  0.7779435E+02  0.7818608E-02  0.1399202E+00
          2   -1    0    0  502    0  0.00000000000E+00  0.00000000000E+00  0.32843517058E+03  0.32843517058E+03  0.00000000000E+00 0. -1.
          1   -1    0    0  501    0 -0.00000000000E+00 -0.00000000000E+00 -0.15792728498E+04  0.15792728498E+04  0.00000000000E+00 0. -1.
         25    2    1    2    0    0 -0.51655758078E+02 -0.15005301645E+02 -0.42008954674E+03  0.44158543646E+03  0.12501597495E+03 0.  0.
          2    1    1    2  501    0  0.55305479579E+02  0.60635026135E+02 -0.11453104498E+04  0.11482470679E+04  0.00000000000E+00 0. -1.
          1    1    1    2  502    0 -0.36497215008E+01 -0.45629724489E+02  0.31456231732E+03  0.31787551605E+03  0.00000000000E+00 0. -1.
         22    1    3    3    0    0  0.32797938587E+02  0.21900370296E+02 -0.79478530884E+02  0.88725238045E+02  0.00000000000E+00 0.  1.
         22    1    3    3    0    0 -0.84453696665E+02 -0.36905671942E+02 -0.34061101586E+03  0.35286019842E+03  0.00000000000E+00 0.  1.
</event>
<event>
 7    1  0.1027337E-005  0.6737437E+02  0.7818608E-02  0.1371433E+00
          2   -1    0    0  502    0  0.00000000000E+00  0.00000000000E+00  0.92414677676E+03  0.92414677676E+03  0.00000000000E+00 0. -1.
          1   -1    0    0  501    0 -0.00000000000E+00 -0.00000000000E+00 -0.16608559729E+04  0.16608559729E+04  0.00000000000E+00 0. -1.
         25    2    1    2    0    0 -0.34554490027E+02  0.17950769117E+02 -0.26503565218E+03  0.29560559301E+03  0.12499010680E+03 0.  0.
          2    1    1    2  501    0 -0.60943683104E+01 -0.70165703188E+02 -0.13784306498E+04  0.13802287576E+04  0.00000000000E+00 0. -1.
          1    1    1    2  502    0  0.40648858337E+02  0.52214934071E+02  0.90675710574E+03  0.90916839906E+03  0.00000000000E+00 0. -1.
         22    1    3    3    0    0  0.12306889251E+02  0.52096613797E+02 -0.51293744362E+02  0.74138821833E+02  0.00000000000E+00 0. -1.
         22    1    3    3    0    0 -0.46861379278E+02 -0.34145844679E+02 -0.21374190782E+03  0.22146677118E+03  0.00000000000E+00 0. -1.
</event>
<event>
 7    1  0.6122298E-006  0.1271366E+03  0.7818608E-02  0.1272292E+00
          2   -1    0    0  502    0  0.00000000000E+00  0.00000000000E+00  0.11012385774E+04  0.11012385774E+04  0.00000000000E+00 0. -1.
          1   -1    0    0  501    0 -0.00000000000E+00 -0.00000000000E+00 -0.43964091815E+03  0.43964091815E+03  0.00000000000E+00 0. -1.
         25    2    1    2    0    0  0.60898874441E+02  0.97628604942E+02  0.40207792326E+02  0.17459010396E+03  0.12500008170E+03 0.  0.
          2    1    1    2  501    0 -0.79216040067E+02  0.30593313142E+02 -0.36331268833E+03  0.37310486637E+03  0.00000000000E+00 0. -1.
          1    1    1    2  502    0  0.18317165626E+02 -0.12822191808E+03  0.98470255523E+03  0.99318452521E+03  0.00000000000E+00 0. -1.
         22    1    3    3    0    0 -0.37265756260E+02  0.32490953433E+02 -0.19098599190E+01  0.49477734483E+02  0.00000000000E+00 0.  1.
         22    1    3    3    0    0  0.98164630701E+02  0.65137651509E+02  0.42117652245E+02  0.12511236947E+03  0.00000000000E+00 0.  1.
</event>
<event>
 7    1  0.6122298E-006  0.1047548E+03  0.7818608E-02  0.1453707E+00
          2   -1    0    0  502    0  0.00000000000E+00  0.00000000000E+00  0.16717904414E+04  0.16717904414E+04  0.00000000000E+00 0. -1.
          1   -1    0    0  501    0 -0.00000000000E+00 -0.00000000000E+00 -0.52917418931E+03  0.52917418931E+03  0.00000000000E+00 0. -1.
         25    2    1    2    0    0 -0.84946248875E+02 -0.40454180121E+02 -0.13233723372E+03  0.20491646876E+03  0.12500083941E+03 0.  0.
          2    1    1    2  501    0 -0.16773252216E+02  0.14903555226E+02 -0.35851485369E+03  0.35921631125E+03  0.00000000000E+00 0. -1.
          1    1    1    2  502    0  0.10171950109E+03  0.25550624895E+02  0.16334683395E+04  0.16368318507E+04  0.00000000000E+00 0. -1.
         22    1    3    3    0    0  0.22949117488E+02  0.19060128638E+02 -0.10484999097E+02  0.31620969359E+02  0.00000000000E+00 0.  1.
         22    1    3    3    0    0 -0.10789536636E+03 -0.59514308759E+02 -0.12185223462E+03  0.17329549940E+03  0.00000000000E+00 0.  1.
</event>
<event>
 7    1  0.6122298E-006  0.4615158E+02  0.7818608E-02  0.1550861E+00
          2   -1    0    0  502    0  0.00000000000E+00  0.00000000000E+00  0.58325633099E+03  0.58325633099E+03  0.00000000000E+00 0. -1.
          1   -1    0    0  501    0 -0.00000000000E+00 -0.00000000000E+00 -0.36039897724E+04  0.36039897724E+04  0.00000000000E+00 0. -1.
         25    2    1    2    0    0 -0.78484388629E+01 -0.58372294088E+02 -0.19944185698E+04  0.19991997601E+04  0.12500130615E+03 0.  0.
          2    1    1    2  501    0 -0.17263941833E+02  0.19654903941E+02 -0.16061573331E+04  0.16063703613E+04  0.00000000000E+00 0. -1.
          1    1    1    2  502    0  0.25112380696E+02  0.38717390147E+02  0.57984246146E+03  0.58167598204E+03  0.00000000000E+00 0. -1.
         22    1    3    3    0    0 -0.18731940945E+02 -0.96533559144E+02 -0.13757728040E+04  0.13792825751E+04  0.00000000000E+00 0.  1.
         22    1    3    3    0    0  0.10883502082E+02  0.38161265055E+02 -0.61864576575E+03  0.61991718499E+03  0.00000000000E+00 0.  1.
</event>
<event>
 7    1  0.6122298E-006  0.1176653E+03  0.7818608E-02  0.1427990E+00
          2   -1    0    0  502    0  0.00000000000E+00  0.00000000000E+00  0.18676252961E+03  0.18676252961E+03  0.00000000000E+00 0. -1.
          1   -1    0    0  501    0 -0.00000000000E+00 -0.00000000000E+00 -0.15451668543E+04  0.15451668543E+04  0.00000000000E+00 0. -1.
         25    2    1    2    0    0 -0.74360994631E+02  0.60361489578E+02  0.33374934120E+02  0.16098839824E+03  0.12502124297E+03 0.  0.
          2    1    1    2  501    0  0.85077318149E+02 -0.82063103137E+02 -0.14773203097E+04  0.14820417674E+04  0.00000000000E+00 0. -1.
          1    1    1    2  502    0 -0.10716323518E+02  0.21701613558E+02  0.85541050879E+02  0.88899218254E+02  0.00000000000E+00 0. -1.
         22    1    3    3    0    0 -0.69272651192E+02  0.32703613704E+02 -0.37095854478E+02  0.85113623892E+02  0.00000000000E+00 0.  1.
         22    1    3    3    0    0 -0.50883434389E+01  0.27657875874E+02  0.70470788599E+02  0.75874774349E+02  0.00000000000E+00 0.  1.
</event>
<event>
 7    1  0.6122298E-006  0.1414679E+03  0.7818608E-02  0.1311131E+00
          2   -1    0    0  502    0  0.00000000000E+00  0.00000000000E+00  0.26506195757E+03  0.26506195757E+03  0.00000000000E+00 0. -1.
          1   -1    0    0  501    0 -0.00000000000E+00 -0.00000000000E+00 -0.12686165138E+04  0.12686165138E+04  0.00000000000E+00 0. -1.
         25    2    1    2    0    0 -0.12882907989E+03  0.10920007753E+03  0.12955114484E+02  0.21050832471E+03  0.12499732408E+03 0.  0.
          2    1    1    2  501    0  0.12901569677E+03 -0.56106503375E+02 -0.11608657347E+04  0.11693597580E+04  0.00000000000E+00 0. -1.
          1    1    1    2  502    0 -0.18661688034E+00 -0.53093574151E+02  0.14435606397E+03  0.15381038862E+03  0.00000000000E+00 0. -1.
         22    1    3    3    0    0 -0.11769671740E+03  0.49609898567E+02  0.52538303565E+02  0.13810840910E+03  0.00000000000E+00 0. -1.
         22    1    3    3    0    0 -0.11132362486E+02  0.59590178958E+02 -0.39583189081E+02  0.72399915612E+02  0.00000000000E+00 0. -1.
</event>
<event>
 7    1  0.6122298E-006  0.9911401E+02  0.7818608E-02  0.1300344E+00
          2   -1    0    0  502    0  0.00000000000E+00  0.00000000000E+00  0.72296617080E+03  0.72296617080E+03  0.00000000000E+00 0. -1.
          1   -1    0    0  501    0 -0.00000000000E+00 -0.00000000000E+00 -0.17872102755E+04  0.17872102755E+04  0.00000000000E+00 0. -1.
         25    2    1    2    0    0  0.14444498962E+03 -0.14137562178E+02  0.14820560849E+03  0.24218843754E+03  0.12500444472E+03 0.  0.
          2    1    1    2  501    0 -0.69291267159E+02 -0.46827170866E+02 -0.17347670160E+04  0.17367816972E+04  0.00000000000E+00 0. -1.
          1    1    1    2  502    0 -0.75153722458E+02  0.60964733044E+02  0.52231730284E+03  0.53120631163E+03  0.00000000000E+00 0. -1.
         22    1    3    3    0    0 -0.20599576622E+02 -0.15294777983E+02  0.12636076856E+02  0.28599706797E+02  0.00000000000E+00 0.  1.
         22    1    3    3    0    0  0.16504456624E+03  0.11572158050E+01  0.13556953163E+03  0.21358873074E+03  0.00000000000E+00 0.  1.
</event>
<event>
 7    1  0.6122298E-006  0.1240780E+03  0.7818608E-02  0.1325707E+00
          2   -1    0    0  502    0  0.00000000000E+00  0.00000000000E+00  0.88195072521E+03  0.88195072521E+03  0.00000000000E+00 0. -1.
          1   -1    0    0  501    0 -0.00000000000E+00 -0.00000000000E+00 -0.49713440414E+02  0.49713440414E+02  0.00000000000E+00 0. -1.
         25    2    1    2    0    0  0.68245739322E+02  0.10207331819E+03  0.40602580045E+03  0.44221816473E+03  0.12499404530E+03 0.  0.
          2    1    1    2  501    0  0.40883612434E+02 -0.33926559979E+02  0.10335429176E+02  0.54123029608E+02  0.00000000000E+00 0. -1.
          1    1    1    2  502    0 -0.10912935176E+03 -0.68146758210E+02  0.41587605516E+03  0.43532297128E+03  0.00000000000E+00 0. -1.
         22    1    3    3    0    0  0.61272089158E+02  0.34648666546E+02  0.34133901346E+03  0.34852133524E+03  0.00000000000E+00 0.  1.
         22    1    3    3    0    0  0.69736501636E+01  0.67424651643E+02  0.64686786990E+02  0.93696829492E+02  0.00000000000E+00 0.  1.
</event>
<event>
 7    1  0.6122298E-006  0.4756862E+02  0.7818608E-02  0.1509195E+00
          2   -1    0    0  502    0  0.00000000000E+00  0.00000000000E+00  0.22956525212E+03  0.22956525212E+03  0.00000000000E+00 0. -1.
          1   -1    0    0  501    0 -0.00000000000E+00 -0.00000000000E+00 -0.15189721550E+04  0.15189721550E+04  0.00000000000E+00 0. -1.
         25    2    1    2    0    0 -0.14257760692E+02  0.86511179148E+01 -0.10771065872E+03  0.16583446142E+03  0.12498542720E+03 0.  0.
          2    1    1    2  501    0  0.47597112829E+02 -0.64522951437E+01 -0.13803870457E+04  0.13812224706E+04  0.00000000000E+00 0. -1.
          1    1    1    2  502    0 -0.33339352137E+02 -0.21988227710E+01  0.19869080156E+03  0.20148047511E+03  0.00000000000E+00 0. -1.
         22    1    3    3    0    0 -0.27942787988E+02  0.33202206384E+02 -0.12535081391E+03  0.13264996214E+03  0.00000000000E+00 0. -1.
         22    1    3    3    0    0  0.13685027296E+02 -0.24551088470E+02  0.17640155189E+02  0.33184499276E+02  0.00000000000E+00 0. -1.
</event>
<event>
 7    1  0.6122298E-006  0.3074409E+02  0.7818608E-02  0.1604943E+00
          2   -1    0    0  502    0  0.00000000000E+00  0.00000000000E+00  0.37623542067E+03  0.37623542067E+03  0.00000000000E+00 0. -1.
          1   -1    0    0  501    0 -0.00000000000E+00 -0.00000000000E+00 -0.39844398812E+03  0.39844398812E+03  0.00000000000E+00 0. -1.
         25    2    1    2    0    0 -0.17846138527E+00 -0.80019749967E+01  0.26361856563E+03  0.29186558232E+03  0.12500682598E+03 0.  0.
          2    1    1    2  501    0 -0.63314449421E+00 -0.28086347157E+02 -0.38047771973E+03  0.38151348466E+03  0.00000000000E+00 0. -1.
          1    1    1    2  502    0  0.81160587949E+00  0.36088322154E+02  0.94650586640E+02  0.10130034181E+03  0.00000000000E+00 0. -1.
         22    1    3    3    0    0 -0.43132021828E+02  0.40485196880E+02  0.10476776112E+03  0.12031502916E+03  0.00000000000E+00 0. -1.
         22    1    3    3    0    0  0.42953560443E+02 -0.48487171876E+02  0.15885080452E+03  0.17155055315E+03  0.00000000000E+00 0. -1.
</event>
<event>
 7    1  0.6122298E-006  0.4760018E+02  0.7818608E-02  0.1489927E+00
          2   -1    0    0  502    0  0.00000000000E+00  0.00000000000E+00  0.10661679259E+04  0.10661679259E+04  0.00000000000E+00 0. -1.
          1   -1    0    0  501    0 -0.00000000000E+00 -0.00000000000E+00 -0.65605875590E+02  0.65605875590E+02  0.00000000000E+00 0. -1.
         25    2    1    2    0    0  0.60815697599E+01  0.81547548030E+02  0.51779861722E+03  0.53891269234E+03  0.12499797551E+03 0.  0.
          2    1    1    2  501    0  0.34940601972E+01 -0.37958857361E+02 -0.47397918005E+02  0.60824714878E+02  0.00000000000E+00 0. -1.
          1    1    1    2  502    0 -0.95756299571E+01 -0.43588690669E+02  0.53016135106E+03  0.53203639425E+03  0.00000000000E+00 0. -1.
         22    1    3    3    0    0  0.39094021755E+02 -0.19027745773E+02  0.14536901268E+03  0.15173182756E+03  0.00000000000E+00 0.  1.
         22    1    3    3    0    0 -0.33012451996E+02  0.10057529380E+03  0.37242960455E+03  0.38718086478E+03  0.00000000000E+00 0.  1.
</event>
<event>
 7    1  0.6122298E-006  0.5671107E+02  0.7818608E-02  0.1544829E+00
          2   -1    0    0  502    0  0.00000000000E+00  0.00000000000E+00  0.10840285504E+03  0.10840285504E+03  0.00000000000E+00 0. -1.
          1   -1    0    0  501    0 -0.00000000000E+00 -0.00000000000E+00 -0.18002722245E+04  0.18002722245E+04  0.00000000000E+00 0. -1.
         25    2    1    2    0    0 -0.43014933351E+02 -0.52265144052E+02 -0.11568088693E+03  0.18327478130E+03  0.12500259232E+03 0.  0.
          2    1    1    2  501    0  0.47605269220E+02  0.30613696351E+02 -0.16486565307E+04  0.16496277811E+04  0.00000000000E+00 0. -1.
          1    1    1    2  502    0 -0.45903358685E+01  0.21651447701E+02  0.72468048080E+02  0.75772517204E+02  0.00000000000E+00 0. -1.
         22    1    3    3    0    0 -0.55822504097E+01 -0.73587619478E+02 -0.11904467267E+03  0.14006403304E+03  0.00000000000E+00 0.  1.
         22    1    3    3    0    0 -0.37432682942E+02  0.21322475427E+02  0.33637857458E+01  0.43210748259E+02  0.00000000000E+00 0.  1.
</event>
<event>
 7    1  0.6122298E-006  0.2339042E+03  0.7818608E-02  0.1339780E+00
          2   -1    0    0  502    0  0.00000000000E+00  0.00000000000E+00  0.32902024966E+03  0.32902024966E+03  0.00000000000E+00 0. -1.
          1   -1    0    0  501    0 -0.00000000000E+00 -0.00000000000E+00 -0.81956387615E+03  0.81956387615E+03  0.00000000000E+00 0. -1.
         25    2    1    2    0    0  0.24694891545E+03  0.40630606554E+02 -0.37265708734E+02  0.28222006567E+03  0.12499927755E+03 0.  0.
          2    1    1    2  501    0 -0.21055264050E+02 -0.13317458940E+02 -0.59681489956E+03  0.59733466599E+03  0.00000000000E+00 0. -1.
          1    1    1    2  502    0 -0.22589365140E+03 -0.27313147613E+02  0.14353698180E+03  0.26902939415E+03  0.00000000000E+00 0. -1.
         22    1    3    3    0    0  0.24337799066E+03  0.48686584697E+01 -0.37380924665E+02  0.24628009197E+03  0.00000000000E+00 0.  1.
         22    1    3    3    0    0  0.35709247914E+01  0.35761948084E+02  0.11521593063E+00  0.35939973697E+02  0.00000000000E+00 0.  1.
</event>
<event>
 7    1  0.6122298E-006  0.6156826E+02  0.7818608E-02  0.1490622E+00
          2   -1    0    0  502    0  0.00000000000E+00  0.00000000000E+00  0.43540969023E+02  0.43540969023E+02  0.00000000000E+00 0. -1.
          1   -1    0    0  501    0 -0.00000000000E+00 -0.00000000000E+00 -0.17960105453E+04  0.17960105453E+04  0.00000000000E+00 0. -1.
         25    2    1    2    0    0 -0.18366193142E+01  0.38005098934E+02 -0.25551704298E+03  0.28698689217E+03  0.12499902522E+03 0.  0.
          2    1    1    2  501    0  0.13744712294E+02  0.25908846788E+02 -0.14864126907E+04  0.14867020120E+04  0.00000000000E+00 0. -1.
          1    1    1    2  502    0 -0.11908092980E+02 -0.63913945722E+02 -0.10539842624E+02  0.65862610172E+02  0.00000000000E+00 0. -1.
         22    1    3    3    0    0 -0.15673338654E+02 -0.10211199187E+02  0.68097123541E+01  0.19907142330E+02  0.00000000000E+00 0.  1.
         22    1    3    3    0    0  0.13836719340E+02  0.48216298121E+02 -0.26232675534E+03  0.26707974984E+03  0.00000000000E+00 0.  1.
</event>
<event>
 7    1  0.6122298E-006  0.8099365E+02  0.7818608E-02  0.1380752E+00
          2   -1    0    0  502    0  0.00000000000E+00  0.00000000000E+00  0.44230369048E+03  0.44230369048E+03  0.00000000000E+00 0. -1.
          1   -1    0    0  501    0 -0.00000000000E+00 -0.00000000000E+00 -0.15390168515E+04  0.15390168515E+04  0.00000000000E+00 0. -1.
         25    2    1    2    0    0  0.46792545192E+02  0.17336331678E+02 -0.39088436781E+02  0.14014033677E+03  0.12498526881E+03 0.  0.
          2    1    1    2  501    0  0.24218357122E+00  0.50993401750E+02 -0.14445565032E+04  0.14454562866E+04  0.00000000000E+00 0. -1.
          1    1    1    2  502    0 -0.47034728763E+02 -0.68329733428E+02  0.38693177894E+03  0.39572391858E+03  0.00000000000E+00 0. -1.
         22    1    3    3    0    0 -0.38431908230E+02 -0.75562762417E+01  0.74919217976E+01  0.39877785459E+02  0.00000000000E+00 0.  1.
         22    1    3    3    0    0  0.85224453422E+02  0.24892607919E+02 -0.46580358579E+02  0.10026255131E+03  0.00000000000E+00 0.  1.
</event>
<event>
 7    1  0.6122298E-006  0.2711431E+03  0.7818608E-02  0.1254091E+00
          2   -1    0    0  502    0  0.00000000000E+00  0.00000000000E+00  0.33233837856E+04  0.33233837856E+04  0.00000000000E+00 0. -1.
          1   -1    0    0  501    0 -0.00000000000E+00 -0.00000000000E+00 -0.16605634872E+03  0.16605634872E+03  0.00000000000E+00 0. -1.
         25    2    1    2    0    0  0.29630714217E+03  0.17340867884E+02  0.95834423985E+03  0.10110134422E+04  0.12500348054E+03 0.  0.
          2    1    1    2  501    0 -0.26731543271E+03  0.20377478264E+02 -0.10629781870E+02  0.26830164824E+03  0.00000000000E+00 0. -1.
          1    1    1    2  502    0 -0.28991709463E+02 -0.37718346148E+02  0.22096129789E+04  0.22101250439E+04  0.00000000000E+00 0. -1.
         22    1    3    3    0    0  0.49883226311E+02  0.26727503732E+02  0.75382619483E+02  0.94261524723E+02  0.00000000000E+00 0.  1.
         22    1    3    3    0    0  0.24642391586E+03 -0.93866358477E+01  0.88296162037E+03  0.91675191752E+03  0.00000000000E+00 0.  1.
</event>
<event>
 7    1  0.6122298E-006  0.3631793E+02  0.7818608E-02  0.1611873E+00
          2   -1    0    0  502    0  0.00000000000E+00  0.00000000000E+00  0.23319874880E+04  0.23319874880E+04  0.00000000000E+00 0. -1.
          1   -1    0    0  501    0 -0.00000000000E+00 -0.00000000000E+00 -0.37389331202E+03  0.37389331202E+03  0.00000000000E+00 0. -1.
         25    2    1    2    0    0  0.28479527401E+02  0.47302937149E+02  0.29545523794E+03  0.32552628825E+03  0.12499966149E+03 0.  0.
          2    1    1    2  501    0 -0.19773527580E+01 -0.22735080064E+02 -0.35833327380E+03  0.35905922757E+03  0.00000000000E+00 0. -1.
          1    1    1    2  502    0 -0.26502174643E+02 -0.24567857085E+02  0.20209722119E+04  0.20212952842E+04  0.00000000000E+00 0. -1.
         22    1    3    3    0    0  0.65122609824E+02 -0.66498124843E+01  0.19556168896E+03  0.20622693448E+03  0.00000000000E+00 0. -1.
         22    1    3    3    0    0 -0.36643082422E+02  0.53952749633E+02  0.99893548977E+02  0.11929935377E+03  0.00000000000E+00 0. -1.
</event>
<event>
 7    1  0.6122298E-006  0.2622958E+02  0.7818608E-02  0.1658652E+00
          2   -1    0    0  502    0  0.00000000000E+00  0.00000000000E+00  0.35937704972E+03  0.35937704972E+03  0.00000000000E+00 0. -1.
          1   -1    0    0  501    0 -0.00000000000E+00 -0.00000000000E+00 -0.64398237690E+03  0.64398237690E+03  0.00000000000E+00 0. -1.
         25    2    1    2    0    0  0.14662478463E+02 -0.20836108686E+02 -0.19422544516E+02  0.12904453383E+03  0.12500449903E+03 0.  0.
          2    1    1    2  501    0  0.91782127981E+01  0.24640979964E+02 -0.56896628688E+03  0.56957357127E+03  0.00000000000E+00 0. -1.
          1    1    1    2  502    0 -0.23840691261E+02 -0.38048712781E+01  0.30378350422E+03  0.30474132152E+03  0.00000000000E+00 0. -1.
         22    1    3    3    0    0 -0.19031246555E+02 -0.62543026631E+02 -0.33714281078E+02  0.73555905774E+02  0.00000000000E+00 0.  1.
         22    1    3    3    0    0  0.33693725018E+02  0.41706917945E+02  0.14291736562E+02  0.55488628060E+02  0.00000000000E+00 0.  1.
</event>
<event>
 7    1  0.6122298E-006  0.2897152E+02  0.7818608E-02  0.1616937E+00
          2   -1    0    0  502    0  0.00000000000E+00  0.00000000000E+00  0.88507630893E+03  0.88507630893E+03  0.00000000000E+00 0. -1.
          1   -1    0    0  501    0 -0.00000000000E+00 -0.00000000000E+00 -0.12417794181E+04  0.12417794181E+04  0.00000000000E+00 0. -1.
         25    2    1    2    0    0 -0.35452104780E+01 -0.17631534496E+02 -0.87045788898E+03  0.87957124438E+03  0.12500079169E+03 0.  0.
          2    1    1    2  501    0  0.30034527176E+02  0.58984680213E+01 -0.36588735177E+03  0.36716538363E+03  0.00000000000E+00 0. -1.
          1    1    1    2  502    0 -0.26489316698E+02  0.11733066474E+02  0.87964213160E+03  0.88011909901E+03  0.00000000000E+00 0. -1.
         22    1    3    3    0    0  0.28774429957E+02  0.43010703530E+02 -0.24864485390E+03  0.25397273831E+03  0.00000000000E+00 0. -1.
         22    1    3    3    0    0 -0.32319640435E+02 -0.60642238026E+02 -0.62181303508E+03  0.62559850606E+03  0.00000000000E+00 0. -1.
</event>
<event>
 7    1  0.6122298E-006  0.7626163E+02  0.7818608E-02  0.1435486E+00
          2   -1    0    0  502    0  0.00000000000E+00  0.00000000000E+00  0.75608036523E+03  0.75608036523E+03  0.00000000000E+00 0. -1.
          1   -1    0    0  501    0 -0.00000000000E+00 -0.00000000000E+00 -0.54520836669E+03  0.54520836669E+03  0.00000000000E+00 0. -1.
         25    2    1    2    0    0  0.10652011376E+03 -0.11225476518E+02  0.21444170914E+03  0.27034039512E+03  0.12500454654E+03 0.  0.
          2    1    1    2  501    0 -0.75693822756E+02 -0.59453584497E+01 -0.51386019647E+03  0.51943931658E+03  0.00000000000E+00 0. -1.
          1    1    1    2  502    0 -0.30826291008E+02  0.17170834968E+02  0.51029048587E+03  0.51150902022E+03  0.00000000000E+00 0. -1.
         22    1    3    3    0    0  0.11857410550E+03  0.29314424585E+02  0.15366599937E+03  0.19629669724E+03  0.00000000000E+00 0.  1.
         22    1    3    3    0    0 -0.12053991736E+02 -0.40539901103E+02  0.60775709768E+02  0.74043697882E+02  0.00000000000E+00 0.  1.
</event>
<event>
 7    1  0.6122298E-006  0.3368681E+02  0.7818608E-02  0.1572712E+00
          2   -1    0    0  502    0  0.00000000000E+00  0.00000000000E+00  0.14492128803E+04  0.14492128803E+04  0.00000000000E+00 0. -1.
          1   -1    0    0  501    0 -0.00000000000E+00 -0.00000000000E+00 -0.15937485494E+02  0.15937485494E+02  0.00000000000E+00 0. -1.
         25    2    1    2    0    0  0.35157644512E+02  0.23697558069E+01  0.51083338429E+03  0.52708732826E+03  0.12501451673E+03 0.  0.
          2    1    1    2  501    0 -0.16682611202E+02  0.26382528049E+02  0.25057069383E+02  0.40027540880E+02  0.00000000000E+00 0. -1.
          1    1    1    2  502    0 -0.18475033310E+02 -0.28752283856E+02  0.89738494115E+03  0.89803549667E+03  0.00000000000E+00 0. -1.
         22    1    3    3    0    0 -0.27612866890E+02 -0.59761286623E+01  0.38674677409E+03  0.38777732244E+03  0.00000000000E+00 0.  1.
         22    1    3    3    0    0  0.62770511403E+02  0.83458844692E+01  0.12408661021E+03  0.13931000582E+03  0.00000000000E+00 0.  1.
</event>
<event>
 7    1  0.6122298E-006  0.2801461E+03  0.7818608E-02  0.1302198E+00
          2   -1    0    0  502    0  0.00000000000E+00  0.00000000000E+00  0.51245178313E+03  0.51245178313E+03  0.00000000000E+00 0. -1.
          1   -1    0    0  501    0 -0.00000000000E+00 -0.00000000000E+00 -0.16136607856E+04  0.16136607856E+04  0.00000000000E+00 0. -1.
         25    2    1    2    0    0 -0.27452508217E+03  0.27750383749E+02  0.22672859115E+02  0.30376777266E+03  0.12500678632E+03 0.  0.
          2    1    1    2  501    0 -0.77500306346E+01 -0.28036063640E+02 -0.14159005002E+04  0.14161992481E+04  0.00000000000E+00 0. -1.
          1    1    1    2  502    0  0.28227511281E+03  0.28567989009E+00  0.29201863855E+03  0.40614554803E+03  0.00000000000E+00 0. -1.
         22    1    3    3    0    0 -0.19598552311E+03  0.75064150324E+02  0.24946318131E+01  0.20988371809E+03  0.00000000000E+00 0. -1.
         22    1    3    3    0    0 -0.78539559068E+02 -0.47313766575E+02  0.20178227302E+02  0.93884054573E+02  0.00000000000E+00 0. -1.
</event>
<event>
 7    1  0.6122298E-006  0.8344252E+02  0.7818608E-02  0.1395361E+00
          2   -1    0    0  502    0  0.00000000000E+00  0.00000000000E+00  0.16822890443E+03  0.16822890443E+03  0.00000000000E+00 0. -1.
          1   -1    0    0  501    0 -0.00000000000E+00 -0.00000000000E+00 -0.55525917762E+03  0.55525917762E+03  0.00000000000E+00 0. -1.
         25    2    1    2    0    0  0.51174400861E+02  0.46436796876E+02 -0.36719048582E+02  0.14747278964E+03  0.12499895899E+03 0.  0.
          2    1    1    2  501    0  0.34356539604E+02 -0.27488944010E+02 -0.44491157990E+03  0.44708201461E+03  0.00000000000E+00 0. -1.
          1    1    1    2  502    0 -0.85530940465E+02 -0.18947852865E+02  0.94600355283E+02  0.12893327780E+03  0.00000000000E+00 0. -1.
         22    1    3    3    0    0  0.33400814203E+02  0.89445184314E+02 -0.17229321290E+02  0.97020126255E+02  0.00000000000E+00 0.  1.
         22    1    3    3    0    0  0.17773586658E+02 -0.43008387439E+02 -0.19489727292E+02  0.50452663385E+02  0.00000000000E+00 0.  1.
</event>
<event>
 7    1  0.6122298E-006  0.1644169E+03  0.7818608E-02  0.1333818E+00
          2   -1    0    0  502    0  0.00000000000E+00  0.00000000000E+00  0.41407921736E+02  0.41407921736E+02  0.00000000000E+00 0. -1.
          1   -1    0    0  501    0 -0.00000000000E+00 -0.00000000000E+00 -0.21305533882E+04  0.21305533882E+04  0.00000000000E+00 0. -1.
         25    2    1    2    0    0 -0.54503423349E+02 -0.14304634745E+03 -0.33199716810E+03  0.38636920792E+03  0.12500465802E+03 0.  0.
          2    1    1    2  501    0 -0.31365089536E+02 -0.20243252196E+02 -0.11598455167E+04  0.11604461128E+04  0.00000000000E+00 0. -1.
          1    1    1    2  502    0  0.85868512884E+02  0.16328959964E+03 -0.59730278168E+03  0.62514598924E+03  0.00000000000E+00 0. -1.
         22    1    3    3    0    0 -0.61249997602E+02 -0.16394094428E+03 -0.30415584112E+03  0.35091162863E+03  0.00000000000E+00 0.  1.
         22    1    3    3    0    0  0.67465742534E+01  0.20894596837E+02 -0.27841326981E+02  0.35457579291E+02  0.00000000000E+00 0.  1.
</event>
<event>
 7    1  0.6122298E-006  0.2292457E+03  0.7818608E-02  0.1321077E+00
          2   -1    0    0  502    0  0.00000000000E+00  0.00000000000E+00  0.14163925008E+04  0.14163925008E+04  0.00000000000E+00 0. -1.
          1   -1    0    0  501    0 -0.00000000000E+00 -0.00000000000E+00 -0.66320706180E+03  0.66320706180E+03  0.00000000000E+00 0. -1.
         25    2    1    2    0    0  0.14989277238E+02  0.24286152305E+03 -0.21108380079E+03  0.34552525018E+03  0.12499971897E+03 0.  0.
          2    1    1    2  501    0 -0.26309978885E+02 -0.14336548612E+02 -0.37459931404E+03  0.37579568611E+03  0.00000000000E+00 0. -1.
          1    1    1    2  502    0  0.11320701648E+02 -0.22852497444E+03  0.13388685538E+04  0.13582786263E+04  0.00000000000E+00 0. -1.
         22    1    3    3    0    0  0.37046428123E+02  0.32234255653E+02 -0.39089262561E+01  0.49262204363E+02  0.00000000000E+00 0. -1.
         22    1    3    3    0    0 -0.22057150886E+02  0.21062726740E+03 -0.20717487454E+03  0.29626304582E+03  0.00000000000E+00 0. -1.
</event>
<event>
 7    1  0.6122298E-006  0.6680660E+02  0.7818608E-02  0.1530695E+00
          2   -1    0    0  502    0  0.00000000000E+00  0.00000000000E+00  0.12681963746E+03  0.12681963746E+03  0.00000000000E+00 0. -1.
          1   -1    0    0  501    0 -0.00000000000E+00 -0.00000000000E+00 -0.12363636740E+04  0.12363636740E+04  0.00000000000E+00 0. -1.
         25    2    1    2    0    0 -0.68835301895E+02 -0.35488411841E+02 -0.12314371703E+03  0.19179906872E+03  0.12499912622E+03 0.  0.
          2    1    1    2  501    0  0.50025115078E+02  0.43897761071E+02 -0.10767043731E+04  0.10787593952E+04  0.00000000000E+00 0. -1.
          1    1    1    2  502    0  0.18810186817E+02 -0.84093492293E+01  0.90304053631E+02  0.92624847556E+02  0.00000000000E+00 0. -1.
         22    1    3    3    0    0 -0.52545264846E+02  0.90438735649E-02  0.96120986557E+01  0.53417201163E+02  0.00000000000E+00 0. -1.
         22    1    3    3    0    0 -0.16290037048E+02 -0.35497455715E+02 -0.13275581569E+03  0.13838186755E+03  0.00000000000E+00 0. -1.
</event>
<event>
 7    1  0.6122298E-006  0.2003510E+03  0.7818608E-02  0.1295495E+00
          2   -1    0    0  502    0  0.00000000000E+00  0.00000000000E+00  0.21564112624E+04  0.21564112624E+04  0.00000000000E+00 0. -1.
          1   -1    0    0  501    0 -0.00000000000E+00 -0.00000000000E+00 -0.31525766657E+03  0.31525766657E+03  0.00000000000E+00 0. -1.
         25    2    1    2    0    0  0.23204699885E+03  0.61877862903E+02  0.36891572672E+03  0.45760078926E+03  0.12499995727E+03 0.  0.
          2    1    1    2  501    0 -0.19052500698E+03 -0.49704581059E+02 -0.23482755990E+03  0.30645441187E+03  0.00000000000E+00 0. -1.
          1    1    1    2  502    0 -0.41521991864E+02 -0.12173281844E+02  0.17070654291E+04  0.17076137279E+04  0.00000000000E+00 0. -1.
         22    1    3    3    0    0  0.24545579817E+03  0.51058582284E+02  0.35850089522E+03  0.43746819262E+03  0.00000000000E+00 0.  1.
         22    1    3    3    0    0 -0.13408799321E+02  0.10819280619E+02  0.10414831505E+02  0.20132596644E+02  0.00000000000E+00 0.  1.
</event>
<event>
 7    1  0.6122298E-006  0.4720694E+02  0.7818608E-02  0.1537734E+00
          2   -1    0    0  502    0  0.00000000000E+00  0.00000000000E+00  0.77149056410E+03  0.77149056410E+03  0.00000000000E+00 0. -1.
          1   -1    0    0  501    0 -0.00000000000E+00 -0.00000000000E+00 -0.40617561786E+03  0.40617561786E+03  0.00000000000E+00 0. -1.
         25    2    1    2    0    0 -0.61933984375E+01  0.45201302950E+02  0.13043344880E+03  0.18633509113E+03  0.12500546248E+03 0.  0.
          2    1    1    2  501    0 -0.21480703039E+02 -0.42138160620E+02 -0.37642803304E+03  0.37938780850E+03  0.00000000000E+00 0. -1.
          1    1    1    2  502    0  0.27674101477E+02 -0.30631423297E+01  0.61130953048E+03  0.61194328233E+03  0.00000000000E+00 0. -1.
         22    1    3    3    0    0  0.17431947441E+02  0.69634209815E+02  0.25732332675E+02  0.76255812323E+02  0.00000000000E+00 0.  1.
         22    1    3    3    0    0 -0.23625345879E+02 -0.24432906865E+02  0.10470111612E+03  0.11007927881E+03  0.00000000000E+00 0.  1.
</event>
<event>
 7    1  0.6122298E-006  0.8889335E+02  0.7818608E-02  0.1384332E+00
          2   -1    0    0  502    0  0.00000000000E+00  0.00000000000E+00  0.18838155490E+04  0.18838155490E+04  0.00000000000E+00 0. -1.
          1   -1    0    0  501    0 -0.00000000000E+00 -0.00000000000E+00 -0.35110137049E+02  0.35110137049E+02  0.00000000000E+00 0. -1.
         25    2    1    2    0    0  0.71913407902E+02  0.85393979641E+02  0.90817353814E+03  0.92350856602E+03  0.12500090459E+03 0.  0.
          2    1    1    2  501    0 -0.26822608938E+02 -0.83508910515E+02  0.44691037884E+02  0.98440232389E+02  0.00000000000E+00 0. -1.
          1    1    1    2  502    0 -0.45090798964E+02 -0.18850691266E+01  0.89584083597E+03  0.89697688767E+03  0.00000000000E+00 0. -1.
         22    1    3    3    0    0  0.42611019502E+02 -0.14826120129E+02  0.50578477118E+03  0.50779301647E+03  0.00000000000E+00 0. -1.
         22    1    3    3    0    0  0.29302388400E+02  0.10022009977E+03  0.40238876695E+03  0.41571554955E+03  0.00000000000E+00 0. -1.
</event>
<event>
 7    1  0.6122298E-006  0.6292190E+02  0.7818608E-02  0.1442453E+00
          2   -1    0    0  502    0  0.00000000000E+00  0.00000000000E+00  0.31903621814E+03  0.31903621814E+03  0.00000000000E+00 0. -1.
          1   -1    0    0  501    0 -0.00000000000E+00 -0.00000000000E+00 -0.13338222034E+04  0.13338222034E+04  0.00000000000E+00 0. -1.
         25    2    1    2    0    0  0.24942081797E+02 -0.15642265599E+02 -0.52150092506E+03  0.53708125941E+03  0.12500510572E+03 0.  0.
          2    1    1    2  501    0 -0.52458276003E+02  0.45487362199E+02 -0.80170054209E+03  0.80470164038E+03  0.00000000000E+00 0. -1.
          1    1    1    2  502    0  0.27516194205E+02 -0.29845096600E+02  0.30841548191E+03  0.31107552173E+03  0.00000000000E+00 0. -1.
         22    1    3    3    0    0 -0.13830735619E+02 -0.63620201770E+02 -0.31027474617E+03  0.31703191863E+03  0.00000000000E+00 0.  1.
         22    1    3    3    0    0  0.38772817416E+02  0.47977936171E+02 -0.21122617889E+03  0.22004934078E+03  0.00000000000E+00 0.  1.
</event>
<event>
 7    1  0.6122298E-006  0.1056314E+03  0.7818608E-02  0.1312350E+00
          2   -1    0    0  502    0  0.00000000000E+00  0.00000000000E+00  0.22523472925E+03  0.22523472925E+03  0.00000000000E+00 0. -1.
          1   -1    0    0  501    0 -0.00000000000E+00 -0.00000000000E+00 -0.16422578770E+04  0.16422578770E+04  0.00000000000E+00 0. -1.
         25    2    1    2    0    0  0.48414581451E+02 -0.83069966096E+01 -0.36613049960E+03  0.38998484704E+03  0.12499464106E+03 0.  0.
          2    1    1    2  501    0  0.33711048740E+02 -0.61719974877E+02 -0.12494957370E+04  0.12514732866E+04  0.00000000000E+00 0. -1.
          1    1    1    2  502    0 -0.82125630191E+02  0.70026971487E+02  0.19860308894E+03  0.22603447261E+03  0.00000000000E+00 0. -1.
         22    1    3    3    0    0  0.12827758757E+02  0.51861040377E+02 -0.23904709047E+03  0.24494413723E+03  0.00000000000E+00 0. -1.
         22    1    3    3    0    0  0.35586822694E+02 -0.60168036986E+02 -0.12708340913E+03  0.14504070981E+03  0.00000000000E+00 0. -1.
</event>
<event>
 7    1  0.6122298E-006  0.5516280E+02  0.7818608E-02  0.1465935E+00
          2   -1    0    0  502    0  0.00000000000E+00  0.00000000000E+00  0.88792800147E+02  0.88792800147E+02  0.00000000000E+00 0. -1.
          1   -1    0    0  501    0 -0.00000000000E+00 -0.00000000000E+00 -0.19305684989E+04  0.19305684989E+04  0.00000000000E+00 0. -1.
         25    2    1    2    0    0 -0.39402137204E+02  0.25527410645E+02 -0.48779084929E+03  0.50574813236E+03  0.12504832515E+03 0.  0.
          2    1    1    2  501    0  0.13605235181E+02 -0.54759938254E+02 -0.14284474355E+04  0.14295614115E+04  0.00000000000E+00 0. -1.
          1    1    1    2  502    0  0.25796902023E+02  0.29232527610E+02  0.74462586057E+02  0.84051755168E+02  0.00000000000E+00 0. -1.
         22    1    3    3    0    0 -0.44961799074E+02 -0.43428468842E+02 -0.27412311843E+03  0.28116023784E+03  0.00000000000E+00 0.  1.
         22    1    3    3    0    0  0.55596618698E+01  0.68955879486E+02 -0.21366773086E+03  0.22458789452E+03  0.00000000000E+00 0.  1.
</event>
<event>
 7    1  0.6122298E-006  0.4951819E+02  0.7818608E-02  0.1460489E+00
          2   -1    0    0  502    0  0.00000000000E+00  0.00000000000E+00  0.19873913620E+03  0.19873913620E+03  0.00000000000E+00 0. -1.
          1   -1    0    0  501    0 -0.00000000000E+00 -0.00000000000E+00 -0.32602188604E+04  0.32602188604E+04  0.00000000000E+00 0. -1.
         25    2    1    2    0    0  0.58294317381E+02 -0.56555334832E+02 -0.40006978897E+02  0.15434452987E+03  0.12499976881E+03 0.  0.
          2    1    1    2  501    0 -0.44023799625E+02  0.10138283486E+02 -0.31587124866E+04  0.31590355257E+04  0.00000000000E+00 0. -1.
          1    1    1    2  502    0 -0.14270517755E+02  0.46417051346E+02  0.13723974127E+03  0.14557794104E+03  0.00000000000E+00 0. -1.
         22    1    3    3    0    0  0.85451182912E+02 -0.33605751277E+02 -0.63579168439E+02  0.11168510124E+03  0.00000000000E+00 0.  1.
         22    1    3    3    0    0 -0.27156865531E+02 -0.22949583555E+02  0.23572189542E+02  0.42659428625E+02  0.00000000000E+00 0.  1.
</event>
<event>
 7    1  0.6122298E-006  0.5374374E+02  0.7818608E-02  0.1467655E+00
          2   -1    0    0  502    0  0.00000000000E+00  0.00000000000E+00  0.48561683847E+03  0.48561683847E+03  0.00000000000E+00 0. -1.
          1   -1    0    0  501    0 -0.00000000000E+00 -0.00000000000E+00 -0.62806994969E+02  0.62806994969E+02  0.00000000000E+00 0. -1.
         25    2    1    2    0    0 -0.25000918397E+02  0.12235114158E+02  0.84241372720E+02  0.15328585860E+03  0.12500080652E+03 0.  0.
          2    1    1    2  501    0 -0.28847895735E+02 -0.27018413429E+02 -0.11088097153E+02  0.41050476867E+02  0.00000000000E+00 0. -1.
          1    1    1    2  502    0  0.53848814132E+02  0.14783299271E+02  0.34965656794E+03  0.35408749797E+03  0.00000000000E+00 0. -1.
         22    1    3    3    0    0 -0.61998135335E+02  0.15462766326E+02  0.30106307811E+01  0.63968193856E+02  0.00000000000E+00 0.  1.
         22    1    3    3    0    0  0.36997216938E+02 -0.32276521677E+01  0.81230741939E+02  0.89317664746E+02  0.00000000000E+00 0.  1.
</event>
<event>
 7    1  0.6122298E-006  0.1340649E+03  0.7818608E-02  0.1271926E+00
          2   -1    0    0  502    0  0.00000000000E+00  0.00000000000E+00  0.66642132923E+03  0.66642132923E+03  0.00000000000E+00 0. -1.
          1   -1    0    0  501    0 -0.00000000000E+00 -0.00000000000E+00 -0.91881593326E+02  0.91881593326E+02  0.00000000000E+00 0. -1.
         25    2    1    2    0    0  0.72169967500E+02 -0.89352490014E+02  0.34642038383E+03  0.38577665484E+03  0.12499669357E+03 0.  0.
          2    1    1    2  501    0  0.79129085433E+02  0.16419978442E+02 -0.96796617096E+01  0.81392405692E+02  0.00000000000E+00 0. -1.
          1    1    1    2  502    0 -0.15129905293E+03  0.72932511572E+02  0.23779901378E+03  0.29113386202E+03  0.00000000000E+00 0. -1.
         22    1    3    3    0    0  0.13374865311E+02  0.23204211317E+01  0.21352948391E+03  0.21396053813E+03  0.00000000000E+00 0.  1.
         22    1    3    3    0    0  0.58795102189E+02 -0.91672911146E+02  0.13289089992E+03  0.17181611671E+03  0.00000000000E+00 0.  1.
</event>
<event>
 7    1  0.6122298E-006  0.6744341E+02  0.7818608E-02  0.1392543E+00
          2   -1    0    0  502    0  0.00000000000E+00  0.00000000000E+00  0.20892299656E+04  0.20892299656E+04  0.00000000000E+00 0. -1.
          1   -1    0    0  501    0 -0.00000000000E+00 -0.00000000000E+00 -0.20571765269E+04  0.20571765269E+04  0.00000000000E+00 0. -1.
         25    2    1    2    0    0 -0.55397575676E+01  0.12362157580E+02 -0.10603155585E+02  0.12618218662E+03  0.12500402176E+03 0.  0.
          2    1    1    2  501    0 -0.44198941094E+02  0.33859102903E+02 -0.19878265785E+04  0.19886061680E+04  0.00000000000E+00 0. -1.
          1    1    1    2  502    0  0.49738698662E+02 -0.46221260483E+02  0.20304831728E+04  0.20316181378E+04  0.00000000000E+00 0. -1.
         22    1    3    3    0    0  0.40157893344E+02  0.44648802345E+02 -0.29785802488E+02  0.67032574011E+02  0.00000000000E+00 0.  1.
         22    1    3    3    0    0 -0.45697650912E+02 -0.32286644765E+02  0.19182646903E+02  0.59149612604E+02  0.00000000000E+00 0.  1.
</event>
<event>
 7    1  0.6122298E-006  0.9958338E+02  0.7818608E-02  0.1360683E+00
          2   -1    0    0  502    0  0.00000000000E+00  0.00000000000E+00  0.15491702468E+04  0.15491702468E+04  0.00000000000E+00 0. -1.
          1   -1    0    0  501    0 -0.00000000000E+00 -0.00000000000E+00 -0.37361525133E+03  0.37361525133E+03  0.00000000000E+00 0. -1.
         25    2    1    2    0    0  0.14634460663E+03  0.16035878141E+02 -0.83296555150E+02  0.21032733712E+03  0.12500151744E+03 0.  0.
          2    1    1    2  501    0 -0.48925904868E+02  0.18722535365E+01 -0.22248752531E+03  0.22781121223E+03  0.00000000000E+00 0. -1.
          1    1    1    2  502    0 -0.97418701761E+02 -0.17908131678E+02  0.14813390759E+04  0.14846469488E+04  0.00000000000E+00 0. -1.
         22    1    3    3    0    0  0.34569559818E+02 -0.50091566538E+02 -0.11525089107E+02  0.61943903519E+02  0.00000000000E+00 0.  1.
         22    1    3    3    0    0  0.11177504681E+03  0.66127444679E+02 -0.71771466043E+02  0.14838343360E+03  0.00000000000E+00 0.  1.
</event>
<event>
 7    1  0.6122298E-006  0.4965637E+02  0.7818608E-02  0.1476817E+00
          2   -1    0    0  502    0  0.00000000000E+00  0.00000000000E+00  0.68872828793E+03  0.68872828793E+03  0.00000000000E+00 0. -1.
          1   -1    0    0  501    0 -0.00000000000E+00 -0.00000000000E+00 -0.19163739250E+04  0.19163739250E+04  0.00000000000E+00 0. -1.
         25    2    1    2    0    0  0.19732359502E+02 -0.23093038434E+02 -0.81544109844E+01  0.12889440779E+03  0.12499847801E+03 0.  0.
          2    1    1    2  501    0 -0.30642211565E+02 -0.25818317444E+02 -0.18466326668E+04  0.18470673341E+04  0.00000000000E+00 0. -1.
          1    1    1    2  502    0  0.10909852063E+02  0.48911355878E+02  0.62714144073E+03  0.62914047102E+03  0.00000000000E+00 0. -1.
         22    1    3    3    0    0  0.12129394475E+02  0.50970841928E+02  0.71643508294E+01  0.52881725199E+02  0.00000000000E+00 0. -1.
         22    1    3    3    0    0  0.76029650271E+01 -0.74063880362E+02 -0.15318761814E+02  0.76012682593E+02  0.00000000000E+00 0. -1.
</event>
<event>
 7    1  0.6176040E-006  0.9044221E+02  0.7818608E-02  0.1319376E+00
          2   -1    0    0  502    0  0.00000000000E+00  0.00000000000E+00  0.83465008583E+03  0.83465008583E+03  0.00000000000E+00 0. -1.
          1   -1    0    0  501    0 -0.00000000000E+00 -0.00000000000E+00 -0.15691404527E+04  0.15691404527E+04  0.00000000000E+00 0. -1.
         25    2    1    2    0    0 -0.14104747378E+03 -0.75580728585E+02 -0.21563596252E+03  0.29619228259E+03  0.12499665411E+03 0.  0.
          2    1    1    2  501    0  0.75862871249E+02  0.13805783165E+02 -0.13095503797E+04  0.13118185742E+04  0.00000000000E+00 0. -1.
          1    1    1    2  502    0  0.65184602527E+02  0.61774945420E+02  0.79069597536E+03  0.79577968165E+03  0.00000000000E+00 0. -1.
         22    1    3    3    0    0 -0.58964662824E+01 -0.37156410981E+02  0.13969578878E+01  0.37647293169E+02  0.00000000000E+00 0.  1.
         22    1    3    3    0    0 -0.13515100749E+03 -0.38424317604E+02 -0.21703292041E+03  0.25854498942E+03  0.00000000000E+00 0.  1.
</event>
<event>
 7    1  0.6122298E-006  0.5693757E+02  0.7818608E-02  0.1516298E+00
          2   -1    0    0  502    0  0.00000000000E+00  0.00000000000E+00  0.15323728002E+04  0.15323728002E+04  0.00000000000E+00 0. -1.
          1   -1    0    0  501    0 -0.00000000000E+00 -0.00000000000E+00 -0.94014015955E+01  0.94014015955E+01  0.00000000000E+00 0. -1.
         25    2    1    2    0    0 -0.15677652076E+02 -0.65090654555E+02  0.72606612431E+03  0.73978306225E+03  0.12499752088E+03 0.  0.
          2    1    1    2  501    0 -0.81268363236E+01  0.53205518469E+02  0.33283130417E+03  0.33715508256E+03  0.00000000000E+00 0. -1.
          1    1    1    2  502    0  0.23804488399E+02  0.11885136086E+02  0.46407397012E+03  0.46483605698E+03  0.00000000000E+00 0. -1.
         22    1    3    3    0    0 -0.20621750095E+01 -0.98755870426E+02  0.41446441121E+03  0.42607243829E+03  0.00000000000E+00 0.  1.
         22    1    3    3    0    0 -0.13615477066E+02  0.33665215871E+02  0.31160171311E+03  0.31371062396E+03  0.00000000000E+00 0.  1.
</event>
<event>
 7    1  0.6122298E-006  0.1066567E+03  0.7818608E-02  0.1454738E+00
          2   -1    0    0  502    0  0.00000000000E+00  0.00000000000E+00  0.15467815521E+04  0.15467815521E+04  0.00000000000E+00 0. -1.
          1   -1    0    0  501    0 -0.00000000000E+00 -0.00000000000E+00 -0.30573510375E+03  0.30573510375E+03  0.00000000000E+00 0. -1.
         25    2    1    2    0    0 -0.85318014779E+02  0.75123146767E+02  0.19098577172E+03  0.25499676303E+03  0.12500053332E+03 0.  0.
          2    1    1    2  501    0  0.91599289601E+02 -0.54172546531E+02 -0.26329178868E+03  0.28398531765E+03  0.00000000000E+00 0. -1.
          1    1    1    2  502    0 -0.62812748221E+01 -0.20950600236E+02  0.13133524653E+04  0.13135345752E+04  0.00000000000E+00 0. -1.
         22    1    3    3    0    0 -0.47820589091E+02  0.21174454722E+02  0.18116970040E+03  0.18856729997E+03  0.00000000000E+00 0.  1.
         22    1    3    3    0    0 -0.37497425688E+02  0.53948692045E+02  0.98160713224E+01  0.66429463062E+02  0.00000000000E+00 0.  1.
</event>
<event>
 7    1  0.9707218E-006  0.1444808E+03  0.7818608E-02  0.1332109E+00
          2   -1    0    0  502    0  0.00000000000E+00  0.00000000000E+00  0.17042015068E+04  0.17042015068E+04  0.00000000000E+00 0. -1.
          1   -1    0    0  501    0 -0.00000000000E+00 -0.00000000000E+00 -0.15540653619E+04  0.15540653619E+04  0.00000000000E+00 0. -1.
         25    2    1    2    0    0 -0.67388618111E+02 -0.77577773305E+02 -0.72107699483E+02  0.17715697233E+03  0.12500214301E+03 0.  0.
          2    1    1    2  501    0 -0.23230834032E+02 -0.36329773026E+02 -0.14258995768E+04  0.14265514807E+04  0.00000000000E+00 0. -1.
          1    1    1    2  502    0  0.90619452143E+02  0.11390754633E+03  0.16481434211E+04  0.16545584157E+04  0.00000000000E+00 0. -1.
         22    1    3    3    0    0  0.23983696769E+02  0.13066102218E+02  0.40444991415E+01  0.27609757535E+02  0.00000000000E+00 0.  1.
         22    1    3    3    0    0 -0.91372314879E+02 -0.90643875523E+02 -0.76152198624E+02  0.14954721479E+03  0.00000000000E+00 0.  1.
</event>
<event>
 7    1  0.6122298E-006  0.2703032E+03  0.7818608E-02  0.1195398E+00
          2   -1    0    0  502    0  0.00000000000E+00  0.00000000000E+00  0.26383052899E+04  0.26383052899E+04  0.00000000000E+00 0. -1.
          1   -1    0    0  501    0 -0.00000000000E+00 -0.00000000000E+00 -0.83165301698E+03  0.83165301698E+03  0.00000000000E+00 0. -1.
         25    2    1    2    0    0 -0.32574003822E+03 -0.63454146523E+02 -0.71553485924E+02  0.36177052369E+03  0.12500003702E+03 0.  0.
          2    1    1    2  501    0  0.24253850793E+03  0.92035340849E+02 -0.58681512671E+03  0.64159755668E+03  0.00000000000E+00 0. -1.
          1    1    1    2  502    0  0.83201530291E+02 -0.28581194326E+02  0.24650208855E+04  0.24665902265E+04  0.00000000000E+00 0. -1.
         22    1    3    3    0    0 -0.85097788256E+02 -0.68773331273E+02  0.40097743219E+01  0.10948736434E+03  0.00000000000E+00 0. -1.
         22    1    3    3    0    0 -0.24064224996E+03  0.53191847496E+01 -0.75563260246E+02  0.25228315935E+03  0.00000000000E+00 0. -1.
</event>
<event>
 7    1  0.6122298E-006  0.1283481E+03  0.7818608E-02  0.1285986E+00
          2   -1    0    0  502    0  0.00000000000E+00  0.00000000000E+00  0.20877793310E+04  0.20877793310E+04  0.00000000000E+00 0. -1.
          1   -1    0    0  501    0 -0.00000000000E+00 -0.00000000000E+00 -0.55114216031E+03  0.55114216031E+03  0.00000000000E+00 0. -1.
         25    2    1    2    0    0 -0.15697777747E+03 -0.11680044237E+03 -0.48454664443E+02  0.23718406931E+03  0.12499624903E+03 0.  0.
          2    1    1    2  501    0  0.98479234756E+02  0.71763246011E+02 -0.39852986563E+03  0.41674233881E+03  0.00000000000E+00 0. -1.
          1    1    1    2  502    0  0.58498542718E+02  0.45037196355E+02  0.19836217007E+04  0.19849950832E+04  0.00000000000E+00 0. -1.
         22    1    3    3    0    0 -0.26719280437E+02  0.75807737687E+01  0.29867680587E+02  0.40785615376E+02  0.00000000000E+00 0. -1.
         22    1    3    3    0    0 -0.13025849704E+03 -0.12438121614E+03 -0.78322345029E+02  0.19639845394E+03  0.00000000000E+00 0. -1.
</event>
<event>
 7    1  0.6122298E-006  0.7615447E+02  0.7818608E-02  0.1384147E+00
          2   -1    0    0  502    0  0.00000000000E+00  0.00000000000E+00  0.16805490957E+04  0.16805490957E+04  0.00000000000E+00 0. -1.
          1   -1    0    0  501    0 -0.00000000000E+00 -0.00000000000E+00 -0.27677979761E+02  0.27677979761E+02  0.00000000000E+00 0. -1.
         25    2    1    2    0    0  0.62055111725E+02  0.73324255886E+02  0.38415468730E+03  0.41525236777E+03  0.12502968356E+03 0.  0.
          2    1    1    2  501    0  0.10526814349E+02 -0.51697801834E+02  0.52591814169E+02  0.74494130322E+02  0.00000000000E+00 0. -1.
          1    1    1    2  502    0 -0.72581926074E+02 -0.21626454052E+02  0.12161246145E+04  0.12184805774E+04  0.00000000000E+00 0. -1.
         22    1    3    3    0    0 -0.22154184856E+02 -0.14814412753E+02  0.27300623438E+02  0.38152310179E+02  0.00000000000E+00 0.  1.
         22    1    3    3    0    0  0.84209296581E+02  0.88138668640E+02  0.35685406387E+03  0.37710005759E+03  0.00000000000E+00 0.  1.
</event>
<event>
 7    1  0.6122298E-006  0.3260557E+02  0.7818608E-02  0.1628507E+00
          2   -1    0    0  502    0  0.00000000000E+00  0.00000000000E+00  0.49862326757E+02  0.49862326757E+02  0.00000000000E+00 0. -1.
          1   -1    0    0  501    0 -0.00000000000E+00 -0.00000000000E+00 -0.49603997579E+03  0.49603997579E+03  0.00000000000E+00 0. -1.
         25    2    1    2    0    0  0.29859990072E+02 -0.32354971313E+02 -0.98314435012E+02  0.16501285764E+03  0.12500020752E+03 0.  0.
          2    1    1    2  501    0 -0.23024260378E+02  0.12335712944E+01 -0.34826123654E+03  0.34902367705E+03  0.00000000000E+00 0. -1.
          1    1    1    2  502    0 -0.68357296936E+01  0.31121400019E+02  0.39802251495E+00  0.31865767863E+02  0.00000000000E+00 0. -1.
         22    1    3    3    0    0 -0.54985632023E+01 -0.73226883867E+02 -0.33757716055E+02  0.80820752974E+02  0.00000000000E+00 0. -1.
         22    1    3    3    0    0  0.35358553274E+02  0.40871912553E+02 -0.64556718958E+02  0.84192104665E+02  0.00000000000E+00 0. -1.
</event>
<event>
 7    1  0.6122298E-006  0.6091984E+02  0.7818608E-02  0.1397759E+00
          2   -1    0    0  502    0  0.00000000000E+00  0.00000000000E+00  0.10007678891E+04  0.10007678891E+04  0.00000000000E+00 0. -1.
          1   -1    0    0  501    0 -0.00000000000E+00 -0.00000000000E+00 -0.99324821890E+03  0.99324821890E+03  0.00000000000E+00 0. -1.
         25    2    1    2    0    0 -0.27042715430E+02  0.38837886848E+02  0.48082353926E+02  0.14204335739E+03  0.12499885082E+03 0.  0.
          2    1    1    2  501    0 -0.34036477947E+02 -0.48349669238E+02 -0.94428719086E+03  0.94613660281E+03  0.00000000000E+00 0. -1.
          1    1    1    2  502    0  0.61079193377E+02  0.95117823904E+01  0.90372450710E+03  0.90583614777E+03  0.00000000000E+00 0. -1.
         22    1    3    3    0    0 -0.14379470531E+02  0.38124239531E+02  0.89708192929E+02  0.98528101022E+02  0.00000000000E+00 0.  1.
         22    1    3    3    0    0 -0.12663244900E+02  0.71364731647E+00 -0.41625839002E+02  0.43515256365E+02  0.00000000000E+00 0.  1.
</event>
<event>
 7    1  0.6122298E-006  0.7007866E+02  0.7818608E-02  0.1362310E+00
          2   -1    0    0  502    0  0.00000000000E+00  0.00000000000E+00  0.89663232489E+03  0.89663232489E+03  0.00000000000E+00 0. -1.
          1   -1    0    0  501    0 -0.00000000000E+00 -0.00000000000E+00 -0.15887635479E+03  0.15887635479E+03  0.00000000000E+00 0. -1.
         25    2    1    2    0    0 -0.25225998021E+01 -0.64244053116E+01  0.24135264127E+02  0.12749498934E+03  0.12499929935E+03 0.  0.
          2    1    1    2  501    0 -0.66074880594E+02  0.23347981290E+02 -0.94033717945E+02  0.11727471248E+03  0.00000000000E+00 0. -1.
          1    1    1    2  502    0  0.68597480396E+02 -0.16923575978E+02  0.80765442392E+03  0.81073897786E+03  0.00000000000E+00 0. -1.
         22    1    3    3    0    0  0.29106753416E+02 -0.23236065505E+02  0.63908921055E+02  0.73969372209E+02  0.00000000000E+00 0.  1.
         22    1    3    3    0    0 -0.31629353218E+02  0.16811660193E+02 -0.39773656929E+02  0.53525617128E+02  0.00000000000E+00 0.  1.
</event>
<event>
 7    1  0.6122298E-006  0.6126547E+02  0.7818608E-02  0.1396877E+00
          2   -1    0    0  502    0  0.00000000000E+00  0.00000000000E+00  0.15145211474E+04  0.15145211474E+04  0.00000000000E+00 0. -1.
          1   -1    0    0  501    0 -0.00000000000E+00 -0.00000000000E+00 -0.35439680731E+03  0.35439680731E+03  0.00000000000E+00 0. -1.
         25    2    1    2    0    0  0.11872846210E+01 -0.29024126914E+02  0.53506853902E+03  0.55024176310E+03  0.12499538719E+03 0.  0.
          2    1    1    2  501    0 -0.58600046205E+02 -0.84644154551E+01 -0.34306169539E+03  0.34813350685E+03  0.00000000000E+00 0. -1.
          1    1    1    2  502    0  0.57412761584E+02  0.37488542369E+02  0.96811749648E+03  0.97054268478E+03  0.00000000000E+00 0. -1.
         22    1    3    3    0    0  0.20968188587E+02 -0.72357287643E+02  0.24605999679E+03  0.25733395428E+03  0.00000000000E+00 0.  1.
         22    1    3    3    0    0 -0.19780903966E+02  0.43333160730E+02  0.28900854223E+03  0.29290780881E+03  0.00000000000E+00 0.  1.
</event>
<event>
 7    1  0.6122298E-006  0.3965918E+02  0.7818608E-02  0.1557095E+00
          2   -1    0    0  502    0  0.00000000000E+00  0.00000000000E+00  0.37934195606E+04  0.37934195606E+04  0.00000000000E+00 0. -1.
          1   -1    0    0  501    0 -0.00000000000E+00 -0.00000000000E+00 -0.13876034720E+04  0.13876034720E+04  0.00000000000E+00 0. -1.
         25    2    1    2    0    0 -0.19390425783E+02  0.20229056006E+02  0.93879336291E+03  0.94749588621E+03  0.12502108948E+03 0.  0.
          2    1    1    2  501    0 -0.20930539143E+02 -0.20438157315E+02 -0.13829549115E+04  0.13832642889E+04  0.00000000000E+00 0. -1.
          1    1    1    2  502    0  0.40320964926E+02  0.20910130920E+00  0.28499776372E+04  0.28502628574E+04  0.00000000000E+00 0. -1.
         22    1    3    3    0    0  0.37054619164E+02 -0.19369602606E+02  0.61616586221E+03  0.61758286574E+03  0.00000000000E+00 0.  1.
         22    1    3    3    0    0 -0.56445044947E+02  0.39598658612E+02  0.32262750070E+03  0.32991302047E+03  0.00000000000E+00 0.  1.
</event>
<event>
 7    1  0.6122298E-006  0.7210416E+02  0.7818608E-02  0.1394353E+00
          2   -1    0    0  502    0  0.00000000000E+00  0.00000000000E+00  0.13671639426E+04  0.13671639426E+04  0.00000000000E+00 0. -1.
          1   -1    0    0  501    0 -0.00000000000E+00 -0.00000000000E+00 -0.24501252935E+03  0.24501252935E+03  0.00000000000E+00 0. -1.
         25    2    1    2    0    0  0.10999934018E+03  0.44972591736E+02  0.46179716499E+03  0.49295352513E+03  0.12499666996E+03 0.  0.
          2    1    1    2  501    0 -0.70553372700E+02 -0.12127277252E+02 -0.22308695766E+03  0.23429178375E+03  0.00000000000E+00 0. -1.
          1    1    1    2  502    0 -0.39445967480E+02 -0.32845314484E+02  0.88344120594E+03  0.88493116308E+03  0.00000000000E+00 0. -1.
         22    1    3    3    0    0  0.13534649367E+03  0.49306954868E+02  0.35517515796E+03  0.38327436906E+03  0.00000000000E+00 0.  1.
         22    1    3    3    0    0 -0.25347153488E+02 -0.43343631321E+01  0.10662200703E+03  0.10967915607E+03  0.00000000000E+00 0.  1.
</event>
<event>
 7    1  0.6122298E-006  0.9359868E+02  0.7818608E-02  0.1315074E+00
          2   -1    0    0  502    0  0.00000000000E+00  0.00000000000E+00  0.64062361930E+03  0.64062361930E+03  0.00000000000E+00 0. -1.
          1   -1    0    0  501    0 -0.00000000000E+00 -0.00000000000E+00 -0.18073382810E+04  0.18073382810E+04  0.00000000000E+00 0. -1.
         25    2    1    2    0    0  0.32064575362E+02 -0.16590516996E+02  0.53999388181E+02  0.14087116048E+03  0.12500147073E+03 0.  0.
          2    1    1    2  501    0 -0.86201561769E+02 -0.38783241463E+02 -0.17598674758E+04  0.17624041482E+04  0.00000000000E+00 0. -1.
          1    1    1    2  502    0  0.54136986407E+02  0.55373758460E+02  0.53915342593E+03  0.54468659165E+03  0.00000000000E+00 0. -1.
         22    1    3    3    0    0 -0.24488263104E+02 -0.44171865140E+02 -0.95966482747E+01  0.51409380058E+02  0.00000000000E+00 0. -1.
         22    1    3    3    0    0  0.56552838467E+02  0.27581348144E+02  0.63596036455E+02  0.89461780425E+02  0.00000000000E+00 0. -1.
</event>
<event>
 7    1  0.6122298E-006  0.1518591E+03  0.7818608E-02  0.1208860E+00
          2   -1    0    0  502    0  0.00000000000E+00  0.00000000000E+00  0.15319626341E+04  0.15319626341E+04  0.00000000000E+00 0. -1.
          1   -1    0    0  501    0 -0.00000000000E+00 -0.00000000000E+00 -0.15694417681E+03  0.15694417681E+03  0.00000000000E+00 0. -1.
         25    2    1    2    0    0 -0.70429519694E+01 -0.22345356228E+01  0.12376826076E+03  0.17605506114E+03  0.12498882294E+03 0.  0.
          2    1    1    2  501    0 -0.14995261709E+03  0.23987347665E+02 -0.80381604054E+02  0.17182078597E+03  0.00000000000E+00 0. -1.
          1    1    1    2  502    0  0.15699556906E+03 -0.21752812042E+02  0.13316318006E+04  0.13410309638E+04  0.00000000000E+00 0. -1.
         22    1    3    3    0    0  0.48964303893E+02 -0.31284473748E+02  0.81577049809E+02  0.10015506182E+03  0.00000000000E+00 0.  1.
         22    1    3    3    0    0 -0.56007255862E+02  0.29049938126E+02  0.42191210947E+02  0.75899999312E+02  0.00000000000E+00 0.  1.
</event>
<event>
 7    1  0.6122298E-006  0.6528696E+02  0.7818608E-02  0.1467364E+00
          2   -1    0    0  502    0  0.00000000000E+00  0.00000000000E+00  0.21391894247E+03  0.21391894247E+03  0.00000000000E+00 0. -1.
          1   -1    0    0  501    0 -0.00000000000E+00 -0.00000000000E+00 -0.35289231453E+03  0.35289231453E+03  0.00000000000E+00 0. -1.
         25    2    1    2    0    0 -0.88655260230E+02  0.13323879344E+02 -0.11692620339E+03  0.19322214426E+03  0.12500311623E+03 0.  0.
          2    1    1    2  501    0  0.24679223716E+02 -0.21307267052E+02 -0.19047391421E+03  0.19324434198E+03  0.00000000000E+00 0. -1.
          1    1    1    2  502    0  0.63976036514E+02  0.79833877087E+01  0.16842674554E+03  0.18034477076E+03  0.00000000000E+00 0. -1.
         22    1    3    3    0    0 -0.39513927388E+02  0.40279062484E+02  0.73404929842E+01  0.56900229960E+02  0.00000000000E+00 0.  1.
         22    1    3    3    0    0 -0.49141332842E+02 -0.26955183140E+02 -0.12426669637E+03  0.13632191430E+03  0.00000000000E+00 0.  1.
</event>
<event>
 7    1  0.1162856E-005  0.5620733E+02  0.7818608E-02  0.1420363E+00
          2   -1    0    0  502    0  0.00000000000E+00  0.00000000000E+00  0.19593216418E+04  0.19593216418E+04  0.00000000000E+00 0. -1.
          1   -1    0    0  501    0 -0.00000000000E+00 -0.00000000000E+00 -0.11565490937E+04  0.11565490937E+04  0.00000000000E+00 0. -1.
         25    2    1    2    0    0 -0.48632815975E+02  0.59437298788E+02 -0.75621258799E+02  0.16504936243E+03  0.12499909591E+03 0.  0.
          2    1    1    2  501    0 -0.72337646079E+01 -0.53219918904E+02 -0.10351048055E+04  0.10364972964E+04  0.00000000000E+00 0. -1.
          1    1    1    2  502    0  0.55866580582E+02 -0.62173798832E+01  0.19134986125E+04  0.19143240767E+04  0.00000000000E+00 0. -1.
         22    1    3    3    0    0 -0.74356509636E+02  0.73432828341E+02 -0.84560114313E+02  0.13443096271E+03  0.00000000000E+00 0. -1.
         22    1    3    3    0    0  0.25723693662E+02 -0.13995529554E+02  0.89388555135E+01  0.30618399713E+02  0.00000000000E+00 0. -1.
</event>
<event>
 7    1  0.6122298E-006  0.8776178E+02  0.7818608E-02  0.1340911E+00
          2   -1    0    0  502    0  0.00000000000E+00  0.00000000000E+00  0.89619840916E+03  0.89619840916E+03  0.00000000000E+00 0. -1.
          1   -1    0    0  501    0 -0.00000000000E+00 -0.00000000000E+00 -0.18494328838E+04  0.18494328838E+04  0.00000000000E+00 0. -1.
         25    2    1    2    0    0 -0.14676589864E+03  0.35053274048E+02  0.79389777114E+02  0.21141333655E+03  0.12499560446E+03 0.  0.
          2    1    1    2  501    0  0.64887098278E+02 -0.10632491446E+02 -0.17803813360E+04  0.17815950963E+04  0.00000000000E+00 0. -1.
          1    1    1    2  502    0  0.81878800363E+02 -0.24420782602E+02  0.74775708426E+03  0.75262286016E+03  0.00000000000E+00 0. -1.
         22    1    3    3    0    0  0.12944287092E+02 -0.56104941039E+01 -0.15728303972E+02  0.21128458492E+02  0.00000000000E+00 0. -1.
         22    1    3    3    0    0 -0.15971018573E+03  0.40663768152E+02  0.95118081086E+02  0.19028487805E+03  0.00000000000E+00 0. -1.
</event>
<event>
 7    1  0.6122298E-006  0.2482451E+03  0.7818608E-02  0.1179335E+00
          2   -1    0    0  502    0  0.00000000000E+00  0.00000000000E+00  0.11136742182E+04  0.11136742182E+04  0.00000000000E+00 0. -1.
          1   -1    0    0  501    0 -0.00000000000E+00 -0.00000000000E+00 -0.95425221803E+03  0.95425221803E+03  0.00000000000E+00 0. -1.
         25    2    1    2    0    0 -0.21871494007E+02  0.35045843503E+03  0.52068626308E+03  0.64034211149E+03  0.12499743300E+03 0.  0.
          2    1    1    2  501    0  0.51517616801E+02 -0.23988113356E+03 -0.87113111873E+03  0.90502289977E+03  0.00000000000E+00 0. -1.
          1    1    1    2  502    0 -0.29646122795E+02 -0.11057730147E+03  0.50986685578E+03  0.52256142492E+03  0.00000000000E+00 0. -1.
         22    1    3    3    0    0  0.74585560078E+01  0.10788118733E+02 -0.47830144366E+01  0.13960329173E+02  0.00000000000E+00 0.  1.
         22    1    3    3    0    0 -0.29330050014E+02  0.33967031630E+03  0.52546927752E+03  0.62638178232E+03  0.00000000000E+00 0.  1.
</event>
<event>
 7    1  0.6122298E-006  0.6902891E+02  0.7818608E-02  0.1415586E+00
          2   -1    0    0  502    0  0.00000000000E+00  0.00000000000E+00  0.10345277658E+04  0.10345277658E+04  0.00000000000E+00 0. -1.
          1   -1    0    0  501    0 -0.00000000000E+00 -0.00000000000E+00 -0.63664742102E+03  0.63664742102E+03  0.00000000000E+00 0. -1.
         25    2    1    2    0    0  0.38296288375E+02 -0.19831022414E+01  0.27286161706E+03  0.30257100087E+03  0.12500084041E+03 0.  0.
          2    1    1    2  501    0 -0.57036338448E+02 -0.39340937758E+02 -0.61916932827E+03  0.62303411653E+03  0.00000000000E+00 0. -1.
          1    1    1    2  502    0  0.18740050073E+02  0.41324039999E+02  0.74418805604E+03  0.74557006948E+03  0.00000000000E+00 0. -1.
         22    1    3    3    0    0 -0.10520265087E+02  0.32444334188E+01  0.24668946455E+03  0.24693500004E+03  0.00000000000E+00 0. -1.
         22    1    3    3    0    0  0.48816553462E+02 -0.52275356601E+01  0.26172152509E+02  0.55636000826E+02  0.00000000000E+00 0. -1.
</event>
<event>
 7    1  0.6122298E-006  0.5845812E+02  0.7818608E-02  0.1440728E+00
          2   -1    0    0  502    0  0.00000000000E+00  0.00000000000E+00  0.11571825752E+04  0.11571825752E+04  0.00000000000E+00 0. -1.
          1   -1    0    0  501    0 -0.00000000000E+00 -0.00000000000E+00 -0.35179153954E+03  0.35179153954E+03  0.00000000000E+00 0. -1.
         25    2    1    2    0    0 -0.72933075705E+02  0.66551330348E+02  0.34799775085E+03  0.38272114549E+03  0.12499891002E+03 0.  0.
          2    1    1    2  501    0  0.50939709624E+02 -0.28143397044E+02 -0.33127282793E+03  0.33634593998E+03  0.00000000000E+00 0. -1.
          1    1    1    2  502    0  0.21993366081E+02 -0.38407933304E+02  0.78866611272E+03  0.78990702924E+03  0.00000000000E+00 0. -1.
         22    1    3    3    0    0 -0.48592773583E+02  0.91921354005E+02  0.32368693506E+03  0.33997650638E+03  0.00000000000E+00 0.  1.
         22    1    3    3    0    0 -0.24340302122E+02 -0.25370023658E+02  0.24310815791E+02  0.42744639105E+02  0.00000000000E+00 0.  1.
</event>
<event>
 7    1  0.6122298E-006  0.6628062E+02  0.7818608E-02  0.1385801E+00
          2   -1    0    0  502    0  0.00000000000E+00  0.00000000000E+00  0.12987400143E+04  0.12987400143E+04  0.00000000000E+00 0. -1.
          1   -1    0    0  501    0 -0.00000000000E+00 -0.00000000000E+00 -0.35683498798E+03  0.35683498798E+03  0.00000000000E+00 0. -1.
         25    2    1    2    0    0  0.11027422533E+03  0.86916038448E+01  0.40927577162E+03  0.44200411364E+03  0.12500012194E+03 0.  0.
          2    1    1    2  501    0 -0.50745056951E+02 -0.31660551829E+02 -0.33666563471E+03  0.34193742256E+03  0.00000000000E+00 0. -1.
          1    1    1    2  502    0 -0.59529168382E+02  0.22968947984E+02  0.86929488945E+03  0.87163346613E+03  0.00000000000E+00 0. -1.
         22    1    3    3    0    0  0.18173639747E+01  0.47508207202E+02  0.78847614197E+02  0.92072139260E+02  0.00000000000E+00 0.  1.
         22    1    3    3    0    0  0.10845686136E+03 -0.38816603357E+02  0.33042815743E+03  0.34993197438E+03  0.00000000000E+00 0.  1.
</event>
<event>
 7    1  0.6122298E-006  0.8751463E+02  0.7818608E-02  0.1398294E+00
          2   -1    0    0  502    0  0.00000000000E+00  0.00000000000E+00  0.30178002771E+04  0.30178002771E+04  0.00000000000E+00 0. -1.
          1   -1    0    0  501    0 -0.00000000000E+00 -0.00000000000E+00 -0.56948624435E+02  0.56948624435E+02  0.00000000000E+00 0. -1.
         25    2    1    2    0    0  0.79562596756E+02  0.31811403529E+02  0.23343480563E+03  0.27831353005E+03  0.12499776131E+03 0.  0.
          2    1    1    2  501    0 -0.59196070670E+02 -0.67378199772E+02  0.24183768525E+02  0.92891610210E+02  0.00000000000E+00 0. -1.
          1    1    1    2  502    0 -0.20366526086E+02  0.35566796243E+02  0.27032330785E+04  0.27035437612E+04  0.00000000000E+00 0. -1.
         22    1    3    3    0    0 -0.16757392925E+02  0.49414958921E+02  0.10015746118E+03  0.11293434116E+03  0.00000000000E+00 0.  1.
         22    1    3    3    0    0  0.96319989681E+02 -0.17603555392E+02  0.13327734445E+03  0.16537918889E+03  0.00000000000E+00 0.  1.
</event>
<event>
 7    1  0.6122298E-006  0.5593367E+02  0.7818608E-02  0.1478703E+00
          2   -1    0    0  502    0  0.00000000000E+00  0.00000000000E+00  0.44031936093E+03  0.44031936093E+03  0.00000000000E+00 0. -1.
          1   -1    0    0  501    0 -0.00000000000E+00 -0.00000000000E+00 -0.14289043150E+04  0.14289043150E+04  0.00000000000E+00 0. -1.
         25    2    1    2    0    0  0.39537702423E+02 -0.14819733141E+02  0.72100375012E+02  0.15035266623E+03  0.12499842304E+03 0.  0.
          2    1    1    2  501    0  0.15301442566E+02  0.31589178827E+02 -0.13870562732E+04  0.13875003119E+04  0.00000000000E+00 0. -1.
          1    1    1    2  502    0 -0.54839144989E+02 -0.16769445686E+02  0.32637094419E+03  0.33137069777E+03  0.00000000000E+00 0. -1.
         22    1    3    3    0    0  0.45535649032E+02 -0.33264614081E+02  0.10092449896E+03  0.11561048556E+03  0.00000000000E+00 0. -1.
         22    1    3    3    0    0 -0.59979466088E+01  0.18444880940E+02 -0.28824123946E+02  0.34742180669E+02  0.00000000000E+00 0. -1.
</event>
<event>
 7    1  0.6122298E-006  0.1079934E+03  0.7818608E-02  0.1348356E+00
          2   -1    0    0  502    0  0.00000000000E+00  0.00000000000E+00  0.15802061937E+04  0.15802061937E+04  0.00000000000E+00 0. -1.
          1   -1    0    0  501    0 -0.00000000000E+00 -0.00000000000E+00 -0.24755456533E+04  0.24755456533E+04  0.00000000000E+00 0. -1.
         25    2    1    2    0    0 -0.47163617283E+02  0.11374274012E+03 -0.16639399912E+03  0.24181220659E+03  0.12499745033E+03 0.  0.
          2    1    1    2  501    0 -0.26020505083E+01 -0.10779378012E+03 -0.22697552358E+04  0.22723149210E+04  0.00000000000E+00 0. -1.
          1    1    1    2  502    0  0.49765667791E+02 -0.59489599970E+01  0.15408097753E+04  0.15416247194E+04  0.00000000000E+00 0. -1.
         22    1    3    3    0    0 -0.89762522325E+02  0.74110251965E+02 -0.99302820375E+02  0.15300552276E+03  0.00000000000E+00 0. -1.
         22    1    3    3    0    0  0.42598905043E+02  0.39632488152E+02 -0.67091178743E+02  0.88806683831E+02  0.00000000000E+00 0. -1.
</event>
<event>
 7    1  0.6122298E-006  0.9005679E+02  0.7818608E-02  0.1378197E+00
          2   -1    0    0  502    0  0.00000000000E+00  0.00000000000E+00  0.14325336878E+04  0.14325336878E+04  0.00000000000E+00 0. -1.
          1   -1    0    0  501    0 -0.00000000000E+00 -0.00000000000E+00 -0.81884704972E+03  0.81884704972E+03  0.00000000000E+00 0. -1.
         25    2    1    2    0    0  0.99862006734E+02  0.75490683056E+02  0.56488669365E+03  0.59193901839E+03  0.12499424474E+03 0.  0.
          2    1    1    2  501    0 -0.84294619556E+02 -0.31325444309E+02 -0.80216467452E+03  0.80718958826E+03  0.00000000000E+00 0. -1.
          1    1    1    2  502    0 -0.15567387179E+02 -0.44165238747E+02  0.85096461890E+03  0.85225213082E+03  0.00000000000E+00 0. -1.
         22    1    3    3    0    0 -0.29927473160E+02  0.11553683581E+02  0.11188143091E+03  0.11638984422E+03  0.00000000000E+00 0.  1.
         22    1    3    3    0    0  0.12978947989E+03  0.63936999475E+02  0.45300526274E+03  0.47554917418E+03  0.00000000000E+00 0.  1.
</event>
<event>
 7    1  0.6122298E-006  0.6362553E+02  0.7818608E-02  0.1419299E+00
          2   -1    0    0  502    0  0.00000000000E+00  0.00000000000E+00  0.64416414319E+03  0.64416414319E+03  0.00000000000E+00 0. -1.
          1   -1    0    0  501    0 -0.00000000000E+00 -0.00000000000E+00 -0.24504204365E+03  0.24504204365E+03  0.00000000000E+00 0. -1.
         25    2    1    2    0    0 -0.34700908222E+02  0.54277996637E+02  0.55365096072E+02  0.15112968404E+03  0.12499853433E+03 0.  0.
          2    1    1    2  501    0 -0.12282627389E+02 -0.63275436665E+02 -0.19079482441E+03  0.20138845260E+03  0.00000000000E+00 0. -1.
          1    1    1    2  502    0  0.46983535611E+02  0.89974400282E+01  0.53455182787E+03  0.53668805020E+03  0.00000000000E+00 0. -1.
         22    1    3    3    0    0  0.42918452435E+02  0.20857519990E+02  0.45696832962E+02  0.66069889074E+02  0.00000000000E+00 0.  1.
         22    1    3    3    0    0 -0.77619360656E+02  0.33420476647E+02  0.96682631096E+01  0.85059794966E+02  0.00000000000E+00 0.  1.
</event>
<event>
 7    1  0.6122298E-006  0.6219261E+02  0.7818608E-02  0.1413619E+00
          2   -1    0    0  502    0  0.00000000000E+00  0.00000000000E+00  0.11281852266E+04  0.11281852266E+04  0.00000000000E+00 0. -1.
          1   -1    0    0  501    0 -0.00000000000E+00 -0.00000000000E+00 -0.21314847561E+03  0.21314847561E+03  0.00000000000E+00 0. -1.
         25    2    1    2    0    0 -0.80249622435E+02 -0.56715067289E+02 -0.46024631374E+02  0.16552594064E+03  0.12499587822E+03 0.  0.
          2    1    1    2  501    0  0.18967685785E+02  0.47488165985E+02 -0.10032931340E+03  0.11260936968E+03  0.00000000000E+00 0. -1.
          1    1    1    2  502    0  0.61281936649E+02  0.92269013035E+01  0.10613906958E+04  0.10631983919E+04  0.00000000000E+00 0. -1.
         22    1    3    3    0    0 -0.96349651872E+01  0.30246162522E+02  0.18007558799E+02  0.36495685709E+02  0.00000000000E+00 0. -1.
         22    1    3    3    0    0 -0.70614657247E+02 -0.86961229811E+02 -0.64032190173E+02  0.12903025493E+03  0.00000000000E+00 0. -1.
</event>
<event>
 7    1  0.6122298E-006  0.4496689E+02  0.7818608E-02  0.1497000E+00
          2   -1    0    0  502    0  0.00000000000E+00  0.00000000000E+00  0.18099190138E+03  0.18099190138E+03  0.00000000000E+00 0. -1.
          1   -1    0    0  501    0 -0.00000000000E+00 -0.00000000000E+00 -0.62337929645E+03  0.62337929645E+03  0.00000000000E+00 0. -1.
         25    2    1    2    0    0 -0.17409772834E+02 -0.18233501693E+02 -0.33877041737E+03  0.36197464734E+03  0.12499875544E+03 0.  0.
          2    1    1    2  501    0  0.50510144459E+02 -0.12729910081E+01 -0.26844058163E+03  0.27315424410E+03  0.00000000000E+00 0. -1.
          1    1    1    2  502    0 -0.33100371625E+02  0.19506492701E+02  0.16482360393E+03  0.16924230639E+03  0.00000000000E+00 0. -1.
         22    1    3    3    0    0  0.44610958398E+02  0.16625816515E+02 -0.20506355022E+03  0.21051749337E+03  0.00000000000E+00 0. -1.
         22    1    3    3    0    0 -0.62020731233E+02 -0.34859318208E+02 -0.13370686714E+03  0.15145715397E+03  0.00000000000E+00 0. -1.
</event>
<event>
 7    1  0.6122298E-006  0.6683534E+02  0.7818608E-02  0.1371722E+00
          2   -1    0    0  502    0  0.00000000000E+00  0.00000000000E+00  0.23248260260E+04  0.23248260260E+04  0.00000000000E+00 0. -1.
          1   -1    0    0  501    0 -0.00000000000E+00 -0.00000000000E+00 -0.71253261379E+02  0.71253261379E+02  0.00000000000E+00 0. -1.
         25    2    1    2    0    0  0.28759891999E+02  0.24996791691E+02  0.83468447749E+03  0.84485142691E+03  0.12499514230E+03 0.  0.
          2    1    1    2  501    0  0.25995258948E+02 -0.62815960687E+02 -0.47752794304E+02  0.83077841622E+02  0.00000000000E+00 0. -1.
          1    1    1    2  502    0 -0.54755150947E+02  0.37819168995E+02  0.14666410815E+04  0.14681500189E+04  0.00000000000E+00 0. -1.
         22    1    3    3    0    0  0.28759385912E+00 -0.20008694682E+02  0.19538199627E+02  0.27967334835E+02  0.00000000000E+00 0. -1.
         22    1    3    3    0    0  0.28472298140E+02  0.45005486373E+02  0.81514627787E+03  0.81688409207E+03  0.00000000000E+00 0. -1.
</event>
<event>
 7    1  0.6122298E-006  0.4647027E+02  0.7818608E-02  0.1513334E+00
          2   -1    0    0  502    0  0.00000000000E+00  0.00000000000E+00  0.57201010504E+03  0.57201010504E+03  0.00000000000E+00 0. -1.
          1   -1    0    0  501    0 -0.00000000000E+00 -0.00000000000E+00 -0.41674549155E+02  0.41674549155E+02  0.00000000000E+00 0. -1.
         25    2    1    2    0    0  0.14351170193E+02  0.35132039933E+02  0.43086093100E+03  0.45022866525E+03  0.12499797135E+03 0.  0.
          2    1    1    2  501    0  0.32727684945E+02 -0.59089463602E+01 -0.14841527672E+02  0.36418236539E+02  0.00000000000E+00 0. -1.
          1    1    1    2  502    0 -0.47078855138E+02 -0.29223093573E+02  0.11431615256E+03  0.12703775240E+03  0.00000000000E+00 0. -1.
         22    1    3    3    0    0  0.60476348712E+02  0.39074444080E+02  0.16019138936E+03  0.17562881927E+03  0.00000000000E+00 0. -1.
         22    1    3    3    0    0 -0.46125178518E+02 -0.39424041469E+01  0.27066954164E+03  0.27459984599E+03  0.00000000000E+00 0. -1.
</event>
<event>
 7    1  0.6122298E-006  0.3312777E+02  0.7818608E-02  0.1641788E+00
          2   -1    0    0  502    0  0.00000000000E+00  0.00000000000E+00  0.37725484793E+02  0.37725484793E+02  0.00000000000E+00 0. -1.
          1   -1    0    0  501    0 -0.00000000000E+00 -0.00000000000E+00 -0.94439150958E+03  0.94439150958E+03  0.00000000000E+00 0. -1.
         25    2    1    2    0    0  0.14324020222E+02  0.42929730674E+02 -0.50504949819E+03  0.52225304942E+03  0.12500045066E+03 0.  0.
          2    1    1    2  501    0  0.85799749229E+01 -0.19194161556E+02 -0.42105385466E+03  0.42157843912E+03  0.00000000000E+00 0. -1.
          1    1    1    2  502    0 -0.22903995145E+02 -0.23735569118E+02  0.19437328067E+02  0.38285505839E+02  0.00000000000E+00 0. -1.
         22    1    3    3    0    0 -0.35983382829E+02  0.17989058998E+02 -0.52038921692E+02  0.65775827280E+02  0.00000000000E+00 0.  1.
         22    1    3    3    0    0  0.50307403051E+02  0.24940671676E+02 -0.45301057650E+03  0.45647722214E+03  0.00000000000E+00 0.  1.
</event>
<event>
 7    1  0.6122298E-006  0.1439726E+03  0.7818608E-02  0.1305670E+00
          2   -1    0    0  502    0  0.00000000000E+00  0.00000000000E+00  0.36822695956E+04  0.36822695956E+04  0.00000000000E+00 0. -1.
          1   -1    0    0  501    0 -0.00000000000E+00 -0.00000000000E+00 -0.87879887953E+03  0.87879887953E+03  0.00000000000E+00 0. -1.
         25    2    1    2    0    0 -0.28756990901E+02 -0.18167248221E+03 -0.20971649379E+01  0.22239767145E+03  0.12499788338E+03 0.  0.
          2    1    1    2  501    0  0.39016514141E+02  0.38519931691E+02 -0.76412725353E+03  0.76609172630E+03  0.00000000000E+00 0. -1.
          1    1    1    2  502    0 -0.10259523239E+02  0.14315255052E+03  0.35696951346E+04  0.35725790774E+04  0.00000000000E+00 0. -1.
         22    1    3    3    0    0  0.33311509830E+02 -0.12683278767E+03 -0.30868036491E+02  0.13471840406E+03  0.00000000000E+00 0.  1.
         22    1    3    3    0    0 -0.62068500732E+02 -0.54839694534E+02  0.28770871553E+02  0.87679267388E+02  0.00000000000E+00 0.  1.
</event>
<event>
 7    1  0.6122298E-006  0.1087025E+03  0.7818608E-02  0.1275434E+00
          2   -1    0    0  502    0  0.00000000000E+00  0.00000000000E+00  0.27801117419E+04  0.27801117419E+04  0.00000000000E+00 0. -1.
          1   -1    0    0  501    0 -0.00000000000E+00 -0.00000000000E+00 -0.96243867997E+03  0.96243867997E+03  0.00000000000E+00 0. -1.
         25    2    1    2    0    0  0.96980014079E+02 -0.59633109977E+02  0.38945016379E+03  0.42456738176E+03  0.12499920259E+03 0.  0.
          2    1    1    2  501    0  0.81361494693E+01  0.96021353549E+02 -0.94111479997E+03  0.94603560397E+03  0.00000000000E+00 0. -1.
          1    1    1    2  502    0 -0.10511616355E+03 -0.36388243572E+02  0.23693376981E+04  0.23719474361E+04  0.00000000000E+00 0. -1.
         22    1    3    3    0    0  0.49756013628E+02 -0.90589533836E+02  0.17922152785E+03  0.20688760373E+03  0.00000000000E+00 0. -1.
         22    1    3    3    0    0  0.47224000451E+02  0.30956423859E+02  0.21022863594E+03  0.21767977803E+03  0.00000000000E+00 0. -1.
</event>
<event>
 7    1  0.6122298E-006  0.1700525E+03  0.7818608E-02  0.1225800E+00
          2   -1    0    0  502    0  0.00000000000E+00  0.00000000000E+00  0.45825701818E+03  0.45825701818E+03  0.00000000000E+00 0. -1.
          1   -1    0    0  501    0 -0.00000000000E+00 -0.00000000000E+00 -0.57023954523E+03  0.57023954523E+03  0.00000000000E+00 0. -1.
         25    2    1    2    0    0  0.12339143626E+03  0.97702635747E+01 -0.10625261724E+03  0.20551394019E+03  0.12500182539E+03 0.  0.
          2    1    1    2  501    0 -0.16972326617E+03 -0.99633309737E+02 -0.38396664365E+03  0.43146629871E+03  0.00000000000E+00 0. -1.
          1    1    1    2  502    0  0.46331829902E+02  0.89863046162E+02  0.37823673384E+03  0.39151632451E+03  0.00000000000E+00 0. -1.
         22    1    3    3    0    0  0.13454603210E+03  0.18906704532E+02 -0.45821613451E+02  0.14338660498E+03  0.00000000000E+00 0.  1.
         22    1    3    3    0    0 -0.11154595833E+02 -0.91364409570E+01 -0.60431003787E+02  0.62127335210E+02  0.00000000000E+00 0.  1.
</event>
<event>
 7    1  0.6122298E-006  0.8179671E+02  0.7818608E-02  0.1437484E+00
          2   -1    0    0  502    0  0.00000000000E+00  0.00000000000E+00  0.29281312195E+04  0.29281312195E+04  0.00000000000E+00 0. -1.
          1   -1    0    0  501    0 -0.00000000000E+00 -0.00000000000E+00 -0.29030141649E+03  0.29030141649E+03  0.00000000000E+00 0. -1.
         25    2    1    2    0    0  0.33987991591E+02 -0.51344450822E+02  0.51174398352E+02  0.14844583924E+03  0.12500364770E+03 0.  0.
          2    1    1    2  501    0  0.32278740047E+02  0.28918304451E+01 -0.23998061446E+03  0.24215898715E+03  0.00000000000E+00 0. -1.
          1    1    1    2  502    0 -0.66266731638E+02  0.48452620377E+02  0.28266360191E+04  0.28278278096E+04  0.00000000000E+00 0. -1.
         22    1    3    3    0    0 -0.44162198697E+02 -0.27281719391E+02 -0.13613489691E+00  0.51909638213E+02  0.00000000000E+00 0.  1.
         22    1    3    3    0    0  0.78150190288E+02 -0.24062731431E+02  0.51310533249E+02  0.96536201025E+02  0.00000000000E+00 0.  1.
</event>
<event>
 7    1  0.6122298E-006  0.3543526E+02  0.7818608E-02  0.1573404E+00
          2   -1    0    0  502    0  0.00000000000E+00  0.00000000000E+00  0.92310983688E+03  0.92310983688E+03  0.00000000000E+00 0. -1.
          1   -1    0    0  501    0 -0.00000000000E+00 -0.00000000000E+00 -0.95652403047E+02  0.95652403047E+02  0.00000000000E+00 0. -1.
         25    2    1    2    0    0  0.43488623262E+01  0.47118201548E+02  0.17599662466E+03  0.22099522812E+03  0.12500016576E+03 0.  0.
          2    1    1    2  501    0  0.19432800561E+02 -0.29584325822E+02 -0.68550641713E+02  0.77149572593E+02  0.00000000000E+00 0. -1.
          1    1    1    2  502    0 -0.23781662887E+02 -0.17533875726E+02  0.72001145089E+03  0.72061743921E+03  0.00000000000E+00 0. -1.
         22    1    3    3    0    0 -0.53121662908E+01  0.86312708056E+02  0.14949858680E+03  0.17270764354E+03  0.00000000000E+00 0.  1.
         22    1    3    3    0    0  0.96610286170E+01 -0.39194506508E+02  0.26498037864E+02  0.48287584584E+02  0.00000000000E+00 0.  1.
</event>
<event>
 7    1  0.6122298E-006  0.6462382E+02  0.7818608E-02  0.1523329E+00
          2   -1    0    0  502    0  0.00000000000E+00  0.00000000000E+00  0.70564053785E+03  0.70564053785E+03  0.00000000000E+00 0. -1.
          1   -1    0    0  501    0 -0.00000000000E+00 -0.00000000000E+00 -0.59255138098E+03  0.59255138098E+03  0.00000000000E+00 0. -1.
         25    2    1    2    0    0  0.67242905223E+02 -0.65519377932E+01  0.21462249987E+02  0.14370065939E+03  0.12499886056E+03 0.  0.
          2    1    1    2  501    0 -0.44509313540E+01  0.21917846641E+02 -0.52951870238E+03  0.52999081026E+03  0.00000000000E+00 0. -1.
          1    1    1    2  502    0 -0.62791973869E+02 -0.15365908847E+02  0.62114560925E+03  0.62450044918E+03  0.00000000000E+00 0. -1.
         22    1    3    3    0    0  0.72533626299E+02 -0.28155914780E+02 -0.33270130251E+02  0.84621416014E+02  0.00000000000E+00 0. -1.
         22    1    3    3    0    0 -0.52907210762E+01  0.21603976987E+02  0.54732380238E+02  0.59079243374E+02  0.00000000000E+00 0. -1.
</event>
<event>
 7    1  0.6122298E-006  0.1390811E+03  0.7818608E-02  0.1270127E+00
          2   -1    0    0  502    0  0.00000000000E+00  0.00000000000E+00  0.42194430304E+04  0.42194430304E+04  0.00000000000E+00 0. -1.
          1   -1    0    0  501    0 -0.00000000000E+00 -0.00000000000E+00 -0.54618963277E+02  0.54618963277E+02  0.00000000000E+00 0. -1.
         25    2    1    2    0    0  0.16414947970E+03 -0.85741951902E+02  0.16665624914E+04  0.16814732192E+04  0.12499966096E+03 0.  0.
          2    1    1    2  501    0 -0.78221872850E+02 -0.12815717545E+02 -0.10910439646E+02  0.80012134715E+02  0.00000000000E+00 0. -1.
          1    1    1    2  502    0 -0.85927606852E+02  0.98557669447E+02  0.25091720153E+04  0.25125766397E+04  0.00000000000E+00 0. -1.
         22    1    3    3    0    0  0.12319121780E+03 -0.28408414793E+02  0.14020004812E+04  0.14076890507E+04  0.00000000000E+00 0. -1.
         22    1    3    3    0    0  0.40958261906E+02 -0.57333537109E+02  0.26456201017E+03  0.27378416850E+03  0.00000000000E+00 0. -1.
</event>
<event>
 7    1  0.6122298E-006  0.8914717E+02  0.7818608E-02  0.1391879E+00
          2   -1    0    0  502    0  0.00000000000E+00  0.00000000000E+00  0.28926381191E+03  0.28926381191E+03  0.00000000000E+00 0. -1.
          1   -1    0    0  501    0 -0.00000000000E+00 -0.00000000000E+00 -0.17668694748E+04  0.17668694748E+04  0.00000000000E+00 0. -1.
         25    2    1    2    0    0 -0.24406705758E+02  0.53612249252E+02 -0.78330840700E+02  0.15883825195E+03  0.12499563641E+03 0.  0.
          2    1    1    2  501    0  0.66015736946E+02 -0.61481602271E+02 -0.16452399034E+04  0.16477112625E+04  0.00000000000E+00 0. -1.
          1    1    1    2  502    0 -0.41609031188E+02  0.78693530192E+01  0.24596508120E+03  0.24958377224E+03  0.00000000000E+00 0. -1.
         22    1    3    3    0    0 -0.57487064014E+02  0.16058625371E+02 -0.89484598805E+02  0.10756456387E+03  0.00000000000E+00 0.  1.
         22    1    3    3    0    0  0.33080358256E+02  0.37553623881E+02  0.11153758105E+02  0.51273688075E+02  0.00000000000E+00 0.  1.
</event>
<event>
 7    1  0.6122298E-006  0.1776939E+03  0.7818608E-02  0.1350595E+00
          2   -1    0    0  502    0  0.00000000000E+00  0.00000000000E+00  0.12790821050E+04  0.12790821050E+04  0.00000000000E+00 0. -1.
          1   -1    0    0  501    0 -0.00000000000E+00 -0.00000000000E+00 -0.75742625145E+03  0.75742625145E+03  0.00000000000E+00 0. -1.
         25    2    1    2    0    0  0.15398245221E+03 -0.79898434249E+02 -0.39241655787E+03  0.44688898076E+03  0.12499860339E+03 0.  0.
          2    1    1    2  501    0  0.15333105537E+02  0.25649970637E+02 -0.33078371537E+03  0.33213083487E+03  0.00000000000E+00 0. -1.
          1    1    1    2  502    0 -0.16931555775E+03  0.54248463612E+02  0.12448561268E+04  0.12574885409E+04  0.00000000000E+00 0. -1.
         22    1    3    3    0    0  0.39125070703E+02 -0.83152689173E+02 -0.11933822320E+03  0.15062122158E+03  0.00000000000E+00 0.  1.
         22    1    3    3    0    0  0.11485738151E+03  0.32542549239E+01 -0.27307833466E+03  0.29626775917E+03  0.00000000000E+00 0.  1.
</event>
<event>
 7    1  0.6122298E-006  0.1718753E+03  0.7818608E-02  0.1273662E+00
          2   -1    0    0  502    0  0.00000000000E+00  0.00000000000E+00  0.18383115886E+04  0.18383115886E+04  0.00000000000E+00 0. -1.
          1   -1    0    0  501    0 -0.00000000000E+00 -0.00000000000E+00 -0.97039276875E+02  0.97039276875E+02  0.00000000000E+00 0. -1.
         25    2    1    2    0    0 -0.15106521124E+03  0.14086145428E+03  0.54211247162E+03  0.59344209220E+03  0.12499975024E+03 0.  0.
          2    1    1    2  501    0  0.14693057872E+03 -0.79007618976E+02  0.28059659019E+02  0.16916897849E+03  0.00000000000E+00 0. -1.
          1    1    1    2  502    0  0.41346325236E+01 -0.61853835305E+02  0.11711001811E+04  0.11727397948E+04  0.00000000000E+00 0. -1.
         22    1    3    3    0    0 -0.22045204142E+02  0.56122215921E+02  0.52085027306E+02  0.79677752322E+02  0.00000000000E+00 0.  1.
         22    1    3    3    0    0 -0.12902000710E+03  0.84739238360E+02  0.49002744431E+03  0.51376433988E+03  0.00000000000E+00 0.  1.
</event>
<event>
 7    1  0.6122298E-006  0.1080432E+03  0.7818608E-02  0.1438438E+00
          2   -1    0    0  502    0  0.00000000000E+00  0.00000000000E+00  0.21455411999E+03  0.21455411999E+03  0.00000000000E+00 0. -1.
          1   -1    0    0  501    0 -0.00000000000E+00 -0.00000000000E+00 -0.23718966475E+03  0.23718966475E+03  0.00000000000E+00 0. -1.
         25    2    1    2    0    0 -0.95427474148E+02 -0.29344023907E+02  0.88164272003E+02  0.18266484947E+03  0.12500413518E+03 0.  0.
          2    1    1    2  501    0  0.95142405827E+02  0.53702984532E+02 -0.17168623588E+03  0.20350000374E+03  0.00000000000E+00 0. -1.
          1    1    1    2  502    0  0.28506832070E+00 -0.24358960626E+02  0.60886419115E+02  0.65578931520E+02  0.00000000000E+00 0. -1.
         22    1    3    3    0    0 -0.20975677452E+02  0.38557492192E+02 -0.65425762913E+01  0.44378649745E+02  0.00000000000E+00 0. -1.
         22    1    3    3    0    0 -0.74451796696E+02 -0.67901516099E+02  0.94706848295E+02  0.13828619972E+03  0.00000000000E+00 0. -1.
</event>
<event>
 7    1  0.6122298E-006  0.2609313E+03  0.7818608E-02  0.1336683E+00
          2   -1    0    0  502    0  0.00000000000E+00  0.00000000000E+00  0.21708145014E+04  0.21708145014E+04  0.00000000000E+00 0. -1.
          1   -1    0    0  501    0 -0.00000000000E+00 -0.00000000000E+00 -0.16085608685E+04  0.16085608685E+04  0.00000000000E+00 0. -1.
         25    2    1    2    0    0 -0.12517558342E+03 -0.24767333656E+03  0.61901302955E+03  0.68978473816E+03  0.12495937707E+03 0.  0.
          2    1    1    2  501    0  0.31909032589E+01  0.22718745987E+02 -0.15622942066E+04  0.15624626431E+04  0.00000000000E+00 0. -1.
          1    1    1    2  502    0  0.12198468016E+03  0.22495459057E+03  0.15055348098E+04  0.15271279886E+04  0.00000000000E+00 0. -1.
         22    1    3    3    0    0 -0.11461675463E+03 -0.26076640011E+03  0.55803590003E+03  0.62653027189E+03  0.00000000000E+00 0.  1.
         22    1    3    3    0    0 -0.10558828791E+02  0.13093063556E+02  0.60977129524E+02  0.63254466274E+02  0.00000000000E+00 0.  1.
</event>
<event>
 7    1  0.6122298E-006  0.7082856E+02  0.7818608E-02  0.1420217E+00
          2   -1    0    0  502    0  0.00000000000E+00  0.00000000000E+00  0.19523251832E+04  0.19523251832E+04  0.00000000000E+00 0. -1.
          1   -1    0    0  501    0 -0.00000000000E+00 -0.00000000000E+00 -0.95783565257E+02  0.95783565257E+02  0.00000000000E+00 0. -1.
         25    2    1    2    0    0 -0.10723361397E+02  0.58720011169E+02 -0.20961696169E+02  0.14009585111E+03  0.12499769838E+03 0.  0.
          2    1    1    2  501    0  0.42393348417E+02  0.48497435230E+01  0.16647643486E+02  0.45802402076E+02  0.00000000000E+00 0. -1.
          1    1    1    2  502    0 -0.31669987020E+02 -0.63569754692E+02  0.18608556706E+04  0.18622104952E+04  0.00000000000E+00 0. -1.
         22    1    3    3    0    0 -0.51848248097E+02  0.39642717330E+02 -0.53418605118E+02  0.84340578851E+02  0.00000000000E+00 0. -1.
         22    1    3    3    0    0  0.41124886700E+02  0.19077293839E+02  0.32456908950E+02  0.55755272261E+02  0.00000000000E+00 0. -1.
</event>
<event>
 7    1  0.6122298E-006  0.1036887E+03  0.7818608E-02  0.1306062E+00
          2   -1    0    0  502    0  0.00000000000E+00  0.00000000000E+00  0.65674505537E+03  0.65674505537E+03  0.00000000000E+00 0. -1.
          1   -1    0    0  501    0 -0.00000000000E+00 -0.00000000000E+00 -0.63941446234E+03  0.63941446234E+03  0.00000000000E+00 0. -1.
         25    2    1    2    0    0 -0.97097043598E+02  0.67765423418E+02 -0.89040616193E+02  0.19383403575E+03  0.12499365423E+03 0.  0.
          2    1    1    2  501    0  0.28737781185E+02 -0.10064662283E+03 -0.49004813644E+03  0.50110156534E+03  0.00000000000E+00 0. -1.
          1    1    1    2  502    0  0.68359262414E+02  0.32881199415E+02  0.59641934567E+03  0.60122391662E+03  0.00000000000E+00 0. -1.
         22    1    3    3    0    0 -0.89518821754E+02  0.95551416029E+02 -0.39905365268E+02  0.13687998660E+03  0.00000000000E+00 0. -1.
         22    1    3    3    0    0 -0.75782218443E+01 -0.27785992611E+02 -0.49135250925E+02  0.56954049155E+02  0.00000000000E+00 0. -1.
</event>
<event>
 7    1  0.6122298E-006  0.6974432E+02  0.7818608E-02  0.1372460E+00
          2   -1    0    0  502    0  0.00000000000E+00  0.00000000000E+00  0.98317088809E+03  0.98317088809E+03  0.00000000000E+00 0. -1.
          1   -1    0    0  501    0 -0.00000000000E+00 -0.00000000000E+00 -0.28306485848E+03  0.28306485848E+03  0.00000000000E+00 0. -1.
         25    2    1    2    0    0  0.10902873708E+03  0.40964042728E+02  0.11833673918E+03  0.20783119348E+03  0.12499961135E+03 0.  0.
          2    1    1    2  501    0 -0.62650178767E+02  0.96147414975E+01 -0.23263449544E+03  0.24111469599E+03  0.00000000000E+00 0. -1.
          1    1    1    2  502    0 -0.46378558312E+02 -0.50578784226E+02  0.81440378587E+03  0.81728985710E+03  0.00000000000E+00 0. -1.
         22    1    3    3    0    0  0.13516111506E+03  0.25102761828E+02  0.80941323364E+02  0.15953110513E+03  0.00000000000E+00 0.  1.
         22    1    3    3    0    0 -0.26132377980E+02  0.15861280900E+02  0.37395415820E+02  0.48300088354E+02  0.00000000000E+00 0.  1.
</event>
<event>
 7    1  0.6122298E-006  0.5688365E+02  0.7818608E-02  0.1471649E+00
          2   -1    0    0  502    0  0.00000000000E+00  0.00000000000E+00  0.24977058998E+02  0.24977058998E+02  0.00000000000E+00 0. -1.
          1   -1    0    0  501    0 -0.00000000000E+00 -0.00000000000E+00 -0.27374294277E+04  0.27374294277E+04  0.00000000000E+00 0. -1.
         25    2    1    2    0    0 -0.17642655621E+02  0.35904547172E+02 -0.23085378297E+03  0.26555274980E+03  0.12499757603E+03 0.  0.
          2    1    1    2  501    0  0.14234493580E+02  0.33381050878E+02 -0.23283851342E+04  0.23286679128E+04  0.00000000000E+00 0. -1.
          1    1    1    2  502    0  0.34081620408E+01 -0.69285598050E+02 -0.15321345160E+03  0.16818582407E+03  0.00000000000E+00 0. -1.
         22    1    3    3    0    0 -0.31553403289E+02  0.78366957618E+02 -0.17230821250E+03  0.19190392753E+03  0.00000000000E+00 0. -1.
         22    1    3    3    0    0  0.13910747668E+02 -0.42462410446E+02 -0.58545570468E+02  0.73648822278E+02  0.00000000000E+00 0. -1.
</event>
<event>
 7    1  0.6122298E-006  0.3477007E+02  0.7818608E-02  0.1557248E+00
          2   -1    0    0  502    0  0.00000000000E+00  0.00000000000E+00  0.15174054397E+04  0.15174054397E+04  0.00000000000E+00 0. -1.
          1   -1    0    0  501    0 -0.00000000000E+00 -0.00000000000E+00 -0.17836076815E+03  0.17836076815E+03  0.00000000000E+00 0. -1.
         25    2    1    2    0    0 -0.27834310453E+02 -0.54538711014E+02  0.51911629284E+02  0.14856281096E+03  0.12500748661E+03 0.  0.
          2    1    1    2  501    0  0.13710783561E+01  0.34267164842E+02 -0.12757425835E+03  0.13210340585E+03  0.00000000000E+00 0. -1.
          1    1    1    2  502    0  0.26463232097E+02  0.20271546172E+02  0.14147073006E+04  0.14150999911E+04  0.00000000000E+00 0. -1.
         22    1    3    3    0    0  0.59067798230E+01  0.57802799687E+00 -0.37652860190E+02  0.38117739240E+02  0.00000000000E+00 0. -1.
         22    1    3    3    0    0 -0.33741090276E+02 -0.55116739011E+02  0.89564489474E+02  0.11044507172E+03  0.00000000000E+00 0. -1.
</event>
<event>
 7    1  0.6122298E-006  0.7559677E+02  0.7818608E-02  0.1352241E+00
          2   -1    0    0  502    0  0.00000000000E+00  0.00000000000E+00  0.57373707944E+02  0.57373707944E+02  0.00000000000E+00 0. -1.
          1   -1    0    0  501    0 -0.00000000000E+00 -0.00000000000E+00 -0.28176713378E+04  0.28176713378E+04  0.00000000000E+00 0. -1.
         25    2    1    2    0    0 -0.60725684214E+02 -0.61081050323E+02 -0.15803445968E+04  0.15876185751E+04  0.12500076824E+03 0.  0.
          2    1    1    2  501    0 -0.60164266653E+01  0.79604841335E+02 -0.12094934636E+04  0.12121252273E+04  0.00000000000E+00 0. -1.
          1    1    1    2  502    0  0.66742110879E+02 -0.18523791012E+02  0.29540430588E+02  0.75301243266E+02  0.00000000000E+00 0. -1.
         22    1    3    3    0    0  0.17966121926E+02 -0.20318814509E+02 -0.10156523038E+04  0.10160143886E+04  0.00000000000E+00 0.  1.
         22    1    3    3    0    0 -0.78691806140E+02 -0.40762235813E+02 -0.56469229303E+03  0.57160418650E+03  0.00000000000E+00 0.  1.
</event>
<event>
 7    1  0.6122298E-006  0.1466613E+03  0.7818608E-02  0.1294244E+00
          2   -1    0    0  502    0  0.00000000000E+00  0.00000000000E+00  0.16268843801E+04  0.16268843801E+04  0.00000000000E+00 0. -1.
          1   -1    0    0  501    0 -0.00000000000E+00 -0.00000000000E+00 -0.35551569577E+03  0.35551569577E+03  0.00000000000E+00 0. -1.
         25    2    1    2    0    0 -0.71865966054E+02  0.17227526919E+03  0.66014577809E+02  0.23415184635E+03  0.12500270883E+03 0.  0.
          2    1    1    2  501    0  0.52662783278E+02 -0.28333371341E+02 -0.26453150191E+03  0.27120668166E+03  0.00000000000E+00 0. -1.
          1    1    1    2  502    0  0.19203182777E+02 -0.14394189785E+03  0.14698856084E+04  0.14770415479E+04  0.00000000000E+00 0. -1.
         22    1    3    3    0    0 -0.78705978667E+02  0.17690483714E+03  0.86498154049E+02  0.21206575191E+03  0.00000000000E+00 0.  1.
         22    1    3    3    0    0  0.68400126131E+01 -0.46295679468E+01 -0.20483576240E+02  0.22086094438E+02  0.00000000000E+00 0.  1.
</event>
<event>
 7    1  0.6122298E-006  0.7173321E+02  0.7818608E-02  0.1484242E+00
          2   -1    0    0  502    0  0.00000000000E+00  0.00000000000E+00  0.14992599799E+02  0.14992599799E+02  0.00000000000E+00 0. -1.
          1   -1    0    0  501    0 -0.00000000000E+00 -0.00000000000E+00 -0.35628988895E+04  0.35628988895E+04  0.00000000000E+00 0. -1.
         25    2    1    2    0    0  0.17815979690E+02 -0.82345265159E+02 -0.16666843809E+04  0.16734872916E+04  0.12499895124E+03 0.  0.
          2    1    1    2  501    0  0.16842123435E+02  0.20227342875E+02 -0.17826623027E+04  0.17828566089E+04  0.00000000000E+00 0. -1.
          1    1    1    2  502    0 -0.34658103126E+02  0.62117922283E+02 -0.98559606121E+02  0.12154758879E+03  0.00000000000E+00 0. -1.
         22    1    3    3    0    0 -0.19764370581E+02 -0.10318840946E+03 -0.13141978127E+04  0.13183908257E+04  0.00000000000E+00 0.  1.
         22    1    3    3    0    0  0.37580350272E+02  0.20843144299E+02 -0.35248656819E+03  0.35509646597E+03  0.00000000000E+00 0.  1.
</event>
<event>
 7    1  0.6122298E-006  0.1323353E+03  0.7818608E-02  0.1333153E+00
          2   -1    0    0  502    0  0.00000000000E+00  0.00000000000E+00  0.77230820987E+03  0.77230820987E+03  0.00000000000E+00 0. -1.
          1   -1    0    0  501    0 -0.00000000000E+00 -0.00000000000E+00 -0.12977169236E+04  0.12977169236E+04  0.00000000000E+00 0. -1.
         25    2    1    2    0    0 -0.37228354467E+02  0.92983400294E+02  0.28684626491E+02  0.16273035883E+03  0.12500599498E+03 0.  0.
          2    1    1    2  501    0  0.13312188738E+02 -0.13303770962E+03 -0.12262518525E+04  0.12335192955E+04  0.00000000000E+00 0. -1.
          1    1    1    2  502    0  0.23916165729E+02  0.40054309322E+02  0.67215851229E+03  0.67377547916E+03  0.00000000000E+00 0. -1.
         22    1    3    3    0    0 -0.56257311480E+02 -0.37367565148E+01  0.30574957860E+02  0.64137948926E+02  0.00000000000E+00 0. -1.
         22    1    3    3    0    0  0.19028957013E+02  0.96720156809E+02 -0.18903313693E+01  0.98592409905E+02  0.00000000000E+00 0. -1.
</event>
<event>
 7    1  0.6122298E-006  0.1474883E+03  0.7818608E-02  0.1371273E+00
          2   -1    0    0  502    0  0.00000000000E+00  0.00000000000E+00  0.16406550550E+04  0.16406550550E+04  0.00000000000E+00 0. -1.
          1   -1    0    0  501    0 -0.00000000000E+00 -0.00000000000E+00 -0.46293403431E+03  0.46293403431E+03  0.00000000000E+00 0. -1.
         25    2    1    2    0    0  0.38864099216E+02 -0.13278845916E+03 -0.88988066438E+02  0.20660876036E+03  0.12500044319E+03 0.  0.
          2    1    1    2  501    0  0.30191618167E+02  0.21517002072E+01 -0.31094834394E+03  0.31241804721E+03  0.00000000000E+00 0. -1.
          1    1    1    2  502    0 -0.69055717383E+02  0.13063675895E+03  0.15776574311E+04  0.15845622818E+04  0.00000000000E+00 0. -1.
         22    1    3    3    0    0 -0.29978118024E+01 -0.12842132626E+03 -0.10035739140E+03  0.16301113435E+03  0.00000000000E+00 0. -1.
         22    1    3    3    0    0  0.41861911019E+02 -0.43671329005E+01  0.11369324963E+02  0.43597626014E+02  0.00000000000E+00 0. -1.
</event>
<event>
 7    1  0.6236330E-006  0.8991285E+02  0.7818608E-02  0.1340356E+00
          2   -1    0    0  502    0  0.00000000000E+00  0.00000000000E+00  0.81064073558E+03  0.81064073558E+03  0.00000000000E+00 0. -1.
          1   -1    0    0  501    0 -0.00000000000E+00 -0.00000000000E+00 -0.64651773028E+03  0.64651773028E+03  0.00000000000E+00 0. -1.
         25    2    1    2    0    0 -0.14889750100E+03  0.14021437537E+01 -0.16310465191E+03  0.25377361652E+03  0.12500195661E+03 0.  0.
          2    1    1    2  501    0  0.61510170027E+02 -0.19371142466E+02 -0.43308287908E+03  0.43785787914E+03  0.00000000000E+00 0. -1.
          1    1    1    2  502    0  0.87387330973E+02  0.17968998712E+02  0.76031053628E+03  0.76552697020E+03  0.00000000000E+00 0. -1.
         22    1    3    3    0    0 -0.16000174665E+03  0.13285134834E+02 -0.10123966088E+03  0.18980654012E+03  0.00000000000E+00 0. -1.
         22    1    3    3    0    0  0.11104245646E+02 -0.11882991080E+02 -0.61864991026E+02  0.63967076399E+02  0.00000000000E+00 0. -1.
</event>
<event>
 7    1  0.6122298E-006  0.8940676E+02  0.7818608E-02  0.1377171E+00
          2   -1    0    0  502    0  0.00000000000E+00  0.00000000000E+00  0.14649099442E+04  0.14649099442E+04  0.00000000000E+00 0. -1.
          1   -1    0    0  501    0 -0.00000000000E+00 -0.00000000000E+00 -0.42693920387E+03  0.42693920387E+03  0.00000000000E+00 0. -1.
         25    2    1    2    0    0  0.12704739199E+02 -0.97766806547E+02  0.51415004924E+03  0.53823357079E+03  0.12500137893E+03 0.  0.
          2    1    1    2  501    0  0.40188882393E+02  0.25444788719E+02 -0.41138582797E+03  0.41412665091E+03  0.00000000000E+00 0. -1.
          1    1    1    2  502    0 -0.52893621592E+02  0.72322017828E+02  0.93520651911E+03  0.93948892641E+03  0.00000000000E+00 0. -1.
         22    1    3    3    0    0  0.39873885124E+02 -0.11775988639E+03  0.42876869385E+03  0.44643018534E+03  0.00000000000E+00 0. -1.
         22    1    3    3    0    0 -0.27169145925E+02  0.19993079848E+02  0.85381355387E+02  0.91803385448E+02  0.00000000000E+00 0. -1.
</event>
<event>
 7    1  0.6122298E-006  0.8656618E+02  0.7818608E-02  0.1321106E+00
          2   -1    0    0  502    0  0.00000000000E+00  0.00000000000E+00  0.76128673035E+03  0.76128673035E+03  0.00000000000E+00 0. -1.
          1   -1    0    0  501    0 -0.00000000000E+00 -0.00000000000E+00 -0.10481490899E+04  0.10481490899E+04  0.00000000000E+00 0. -1.
         25    2    1    2    0    0  0.26595054941E+02 -0.39354511886E+02 -0.32884490119E+03  0.35499210904E+03  0.12499741554E+03 0.  0.
          2    1    1    2  501    0 -0.70894622917E+02 -0.35589197271E+02 -0.70145504103E+03  0.70592620939E+03  0.00000000000E+00 0. -1.
          1    1    1    2  502    0  0.44299567976E+02  0.74943709158E+02  0.74343758264E+03  0.74851750183E+03  0.00000000000E+00 0. -1.
         22    1    3    3    0    0  0.19142483887E+02 -0.43317403211E+02 -0.33871229252E+03  0.34200708942E+03  0.00000000000E+00 0.  1.
         22    1    3    3    0    0  0.74525710537E+01  0.39628913247E+01  0.98673913294E+01  0.12985019623E+02  0.00000000000E+00 0.  1.
</event>
<event>
 7    1  0.6122298E-006  0.6461623E+02  0.7818608E-02  0.1504130E+00
          2   -1    0    0  502    0  0.00000000000E+00  0.00000000000E+00  0.16141331830E+03  0.16141331830E+03  0.00000000000E+00 0. -1.
          1   -1    0    0  501    0 -0.00000000000E+00 -0.00000000000E+00 -0.93901723601E+03  0.93901723601E+03  0.00000000000E+00 0. -1.
         25    2    1    2    0    0 -0.36436638491E+02 -0.43739804983E+02 -0.22900739031E+03  0.26703920202E+03  0.12499900573E+03 0.  0.
          2    1    1    2  501    0  0.19389403722E+02  0.62649890913E+02 -0.68828466196E+03  0.69140200586E+03  0.00000000000E+00 0. -1.
          1    1    1    2  502    0  0.17047234769E+02 -0.18910085930E+02  0.13968813456E+03  0.14198934643E+03  0.00000000000E+00 0. -1.
         22    1    3    3    0    0 -0.37789122870E+02 -0.17146190364E+02 -0.23590934297E+03  0.23953126675E+03  0.00000000000E+00 0.  1.
         22    1    3    3    0    0  0.13524843787E+01 -0.26593614619E+02  0.69019526540E+01  0.27507935272E+02  0.00000000000E+00 0.  1.
</event>
<event>
 7    1  0.6122298E-006  0.7849325E+02  0.7818608E-02  0.1349006E+00
          2   -1    0    0  502    0  0.00000000000E+00  0.00000000000E+00  0.25026734658E+04  0.25026734658E+04  0.00000000000E+00 0. -1.
          1   -1    0    0  501    0 -0.00000000000E+00 -0.00000000000E+00 -0.11340097549E+03  0.11340097549E+03  0.00000000000E+00 0. -1.
         25    2    1    2    0    0  0.40396445915E+02 -0.48232340832E+02  0.12597440596E+02  0.14050429506E+03  0.12499811949E+03 0.  0.
          2    1    1    2  501    0 -0.81727827175E+02 -0.18497762131E+02 -0.12834072036E+02  0.84772155473E+02  0.00000000000E+00 0. -1.
          1    1    1    2  502    0  0.41331381260E+02  0.66730102963E+02  0.23895091217E+04  0.23907979907E+04  0.00000000000E+00 0. -1.
         22    1    3    3    0    0 -0.30085278098E+02 -0.98918710478E+01 -0.35009620122E+02  0.47208543423E+02  0.00000000000E+00 0.  1.
         22    1    3    3    0    0  0.70481724012E+02 -0.38340469784E+02  0.47607060718E+02  0.93295751635E+02  0.00000000000E+00 0.  1.
</event>
<event>
 7    1  0.6122298E-006  0.3883078E+02  0.7818608E-02  0.1538434E+00
          2   -1    0    0  502    0  0.00000000000E+00  0.00000000000E+00  0.13427156298E+04  0.13427156298E+04  0.00000000000E+00 0. -1.
          1   -1    0    0  501    0 -0.00000000000E+00 -0.00000000000E+00 -0.55616117594E+03  0.55616117594E+03  0.00000000000E+00 0. -1.
         25    2    1    2    0    0 -0.16972192683E+02 -0.52794560196E+02 -0.47859168456E+03  0.49774532182E+03  0.12500033580E+03 0.  0.
          2    1    1    2  501    0  0.29609861970E+02  0.16081245471E+02 -0.63517051402E+02  0.71901086227E+02  0.00000000000E+00 0. -1.
          1    1    1    2  502    0 -0.12637669287E+02  0.36713314725E+02  0.13286631898E+04  0.13292303977E+04  0.00000000000E+00 0. -1.
         22    1    3    3    0    0 -0.28315220637E+01 -0.20433439825E+02 -0.30017159709E+01  0.20845941549E+02  0.00000000000E+00 0.  1.
         22    1    3    3    0    0 -0.14140670619E+02 -0.32361120371E+02 -0.47558996859E+03  0.47689938027E+03  0.00000000000E+00 0.  1.
</event>
<event>
 7    1  0.6122298E-006  0.6541828E+02  0.7818608E-02  0.1401325E+00
          2   -1    0    0  502    0  0.00000000000E+00  0.00000000000E+00  0.31536570721E+04  0.31536570721E+04  0.00000000000E+00 0. -1.
          1   -1    0    0  501    0 -0.00000000000E+00 -0.00000000000E+00 -0.87060152071E+02  0.87060152071E+02  0.00000000000E+00 0. -1.
         25    2    1    2    0    0  0.49588609145E+02  0.59457447793E+02  0.24673603860E+03  0.28722402428E+03  0.12499899651E+03 0.  0.
          2    1    1    2  501    0  0.15468178745E+02 -0.51244566496E+02 -0.55661342640E+02  0.77223411046E+02  0.00000000000E+00 0. -1.
          1    1    1    2  502    0 -0.65056787890E+02 -0.82128812969E+01  0.28755222241E+04  0.28762697888E+04  0.00000000000E+00 0. -1.
         22    1    3    3    0    0  0.63285386298E+02  0.53583445803E+02  0.25639064228E+03  0.26946685739E+03  0.00000000000E+00 0.  1.
         22    1    3    3    0    0 -0.13696777153E+02  0.58740019900E+01 -0.96546036839E+01  0.17757166893E+02  0.00000000000E+00 0.  1.
</event>
<event>
 7    1  0.6122298E-006  0.3852644E+03  0.7818608E-02  0.1235545E+00
          2   -1    0    0  502    0  0.00000000000E+00  0.00000000000E+00  0.25080849798E+04  0.25080849798E+04  0.00000000000E+00 0. -1.
          1   -1    0    0  501    0 -0.00000000000E+00 -0.00000000000E+00 -0.23659662478E+04  0.23659662478E+04  0.00000000000E+00 0. -1.
         25    2    1    2    0    0 -0.36513094554E+03 -0.14399998920E+03 -0.73380893558E+03  0.84152078770E+03  0.12500031166E+03 0.  0.
          2    1    1    2  501    0 -0.57134874950E+01  0.39953120998E+02 -0.15629274662E+04  0.15634484835E+04  0.00000000000E+00 0. -1.
          1    1    1    2  502    0  0.37084443304E+03  0.10404686820E+03  0.24388551337E+04  0.24690819564E+04  0.00000000000E+00 0. -1.
         22    1    3    3    0    0 -0.48110065075E+02 -0.30891126701E+02 -0.38218801434E+02  0.68771482850E+02  0.00000000000E+00 0.  1.
         22    1    3    3    0    0 -0.31702088047E+03 -0.11310886250E+03 -0.69559013414E+03  0.77274930485E+03  0.00000000000E+00 0.  1.
</event>
<event>
 7    1  0.6122298E-006  0.1127505E+03  0.7818608E-02  0.1324880E+00
          2   -1    0    0  502    0  0.00000000000E+00  0.00000000000E+00  0.16624115249E+03  0.16624115249E+03  0.00000000000E+00 0. -1.
          1   -1    0    0  501    0 -0.00000000000E+00 -0.00000000000E+00 -0.89183333177E+03  0.89183333177E+03  0.00000000000E+00 0. -1.
         25    2    1    2    0    0  0.85207533394E+02  0.20340540871E+01 -0.37162597129E+02  0.15578975663E+03  0.12499971408E+03 0.  0.
          2    1    1    2  501    0 -0.10181295726E+03  0.54470905049E+02 -0.78267722863E+03  0.79114891264E+03  0.00000000000E+00 0. -1.
          1    1    1    2  502    0  0.16605423871E+02 -0.56504959136E+02  0.94247646471E+02  0.11113581499E+03  0.00000000000E+00 0. -1.
         22    1    3    3    0    0  0.77489941464E+02 -0.16592224032E+02 -0.77406427049E+02  0.11077792142E+03  0.00000000000E+00 0.  1.
         22    1    3    3    0    0  0.77175919302E+01  0.18626278120E+02  0.40243829919E+02  0.45011835203E+02  0.00000000000E+00 0.  1.
</event>
<event>
 7    1  0.6122298E-006  0.4594694E+02  0.7818608E-02  0.1473361E+00
          2   -1    0    0  502    0  0.00000000000E+00  0.00000000000E+00  0.29126232476E+04  0.29126232476E+04  0.00000000000E+00 0. -1.
          1   -1    0    0  501    0 -0.00000000000E+00 -0.00000000000E+00 -0.29994606438E+03  0.29994606438E+03  0.00000000000E+00 0. -1.
         25    2    1    2    0    0  0.57605479459E+01  0.52158863741E+02  0.47111723073E+02  0.14352153304E+03  0.12500074006E+03 0.  0.
          2    1    1    2  501    0  0.33646942930E+02 -0.31743548706E+02 -0.24943979094E+03  0.25369268605E+03  0.00000000000E+00 0. -1.
          1    1    1    2  502    0 -0.39407490876E+02 -0.20415315035E+02  0.28150052511E+04  0.28153550929E+04  0.00000000000E+00 0. -1.
         22    1    3    3    0    0  0.63764203289E+02  0.33491662902E+02  0.11477876519E+02  0.72933577688E+02  0.00000000000E+00 0.  1.
         22    1    3    3    0    0 -0.58003655343E+02  0.18667200839E+02  0.35633846555E+02  0.70587955351E+02  0.00000000000E+00 0.  1.
</event>
<event>
 7    1  0.6122298E-006  0.1086451E+03  0.7818608E-02  0.1426328E+00
          2   -1    0    0  502    0  0.00000000000E+00  0.00000000000E+00  0.17132885272E+04  0.17132885272E+04  0.00000000000E+00 0. -1.
          1   -1    0    0  501    0 -0.00000000000E+00 -0.00000000000E+00 -0.79359961149E+02  0.79359961149E+02  0.00000000000E+00 0. -1.
         25    2    1    2    0    0  0.64241224843E+02  0.62817645671E+02  0.33981205778E+03  0.37305190189E+03  0.12498998087E+03 0.  0.
          2    1    1    2  501    0  0.26487352947E+02  0.17697924354E+01 -0.57535385797E+02  0.63364285289E+02  0.00000000000E+00 0. -1.
          1    1    1    2  502    0 -0.90728577790E+02 -0.64587438107E+02  0.13516518941E+04  0.13562323012E+04  0.00000000000E+00 0. -1.
         22    1    3    3    0    0 -0.58078751133E+01  0.80233815059E+01 -0.88154841406E+01  0.13259669104E+02  0.00000000000E+00 0.  1.
         22    1    3    3    0    0  0.70049099956E+02  0.54794264165E+02  0.34862754192E+03  0.35979223279E+03  0.00000000000E+00 0.  1.
</event>
<event>
 7    1  0.6122298E-006  0.8071633E+02  0.7818608E-02  0.1339332E+00
          2   -1    0    0  502    0  0.00000000000E+00  0.00000000000E+00  0.35845867922E+03  0.35845867922E+03  0.00000000000E+00 0. -1.
          1   -1    0    0  501    0 -0.00000000000E+00 -0.00000000000E+00 -0.10690319886E+04  0.10690319886E+04  0.00000000000E+00 0. -1.
         25    2    1    2    0    0 -0.57917029770E+02 -0.13943182677E+03  0.13575143548E+01  0.19601662658E+03  0.12500023359E+03 0.  0.
          2    1    1    2  501    0  0.22061128894E+02  0.76446364714E+02 -0.96497779617E+03  0.96825249145E+03  0.00000000000E+00 0. -1.
          1    1    1    2  502    0  0.35855900876E+02  0.62985462059E+02  0.25304697240E+03  0.26322154984E+03  0.00000000000E+00 0. -1.
         22    1    3    3    0    0 -0.70774981316E+02 -0.77774176125E+02 -0.48389507120E+02  0.11575605752E+03  0.00000000000E+00 0. -1.
         22    1    3    3    0    0  0.12857951546E+02 -0.61657650648E+02  0.49747021475E+02  0.80260569067E+02  0.00000000000E+00 0. -1.
</event>
<event>
 7    1  0.6122298E-006  0.1273512E+03  0.7818608E-02  0.1384932E+00
          2   -1    0    0  502    0  0.00000000000E+00  0.00000000000E+00  0.43521358261E+03  0.43521358261E+03  0.00000000000E+00 0. -1.
          1   -1    0    0  501    0 -0.00000000000E+00 -0.00000000000E+00 -0.34279679783E+03  0.34279679783E+03  0.00000000000E+00 0. -1.
         25    2    1    2    0    0 -0.76455274233E+02  0.74938087329E+02  0.18281769499E+03  0.24598509529E+03  0.12500092645E+03 0.  0.
          2    1    1    2  501    0  0.10752776898E+03 -0.70783429212E+02 -0.29666506232E+03  0.32339244603E+03  0.00000000000E+00 0. -1.
          1    1    1    2  502    0 -0.31072494747E+02 -0.41546581166E+01  0.20626415210E+03  0.20863283912E+03  0.00000000000E+00 0. -1.
         22    1    3    3    0    0 -0.51233519703E+02  0.69045382805E+02  0.19807093140E+03  0.21592645112E+03  0.00000000000E+00 0. -1.
         22    1    3    3    0    0 -0.25221754530E+02  0.58927045234E+01 -0.15253236412E+02  0.30058644168E+02  0.00000000000E+00 0. -1.
</event>
<event>
 7    1  0.6122298E-006  0.5248617E+02  0.7818608E-02  0.1554921E+00
          2   -1    0    0  502    0  0.00000000000E+00  0.00000000000E+00  0.53489147222E+03  0.53489147222E+03  0.00000000000E+00 0. -1.
          1   -1    0    0  501    0 -0.00000000000E+00 -0.00000000000E+00 -0.48799563092E+03  0.48799563092E+03  0.00000000000E+00 0. -1.
         25    2    1    2    0    0 -0.36209574377E+02 -0.88678226442E+01  0.18274583483E+03  0.22451171495E+03  0.12497879199E+03 0.  0.
          2    1    1    2  501    0  0.43084946209E+02  0.30200295886E+02 -0.46524902389E+03  0.46821472071E+03  0.00000000000E+00 0. -1.
          1    1    1    2  502    0 -0.68753718315E+01 -0.21332473242E+02  0.32939903035E+03  0.33016066748E+03  0.00000000000E+00 0. -1.
         22    1    3    3    0    0 -0.81011657577E+02  0.10096529809E+02  0.11933566258E+03  0.14458848135E+03  0.00000000000E+00 0. -1.
         22    1    3    3    0    0  0.44802083200E+02 -0.18964352453E+02  0.63410172255E+02  0.79923233595E+02  0.00000000000E+00 0. -1.
</event>
<event>
 7    1  0.6122298E-006  0.5741427E+02  0.7818608E-02  0.1537491E+00
          2   -1    0    0  502    0  0.00000000000E+00  0.00000000000E+00  0.20700569915E+04  0.20700569915E+04  0.00000000000E+00 0. -1.
          1   -1    0    0  501    0 -0.00000000000E+00 -0.00000000000E+00 -0.34418186791E+03  0.34418186791E+03  0.00000000000E+00 0. -1.
         25    2    1    2    0    0 -0.12416318842E+02 -0.76412228515E+02  0.40181553765E+03  0.42786958384E+03  0.12499464324E+03 0.  0.
          2    1    1    2  501    0  0.11703420917E+02  0.19717837438E+02 -0.33027167809E+03  0.33106667685E+03  0.00000000000E+00 0. -1.
          1    1    1    2  502    0  0.71289792540E+00  0.56694391077E+02  0.16543312640E+04  0.16553025987E+04  0.00000000000E+00 0. -1.
         22    1    3    3    0    0 -0.47422882955E+02  0.43548344101E+01  0.22930617183E+03  0.23419909233E+03  0.00000000000E+00 0.  1.
         22    1    3    3    0    0  0.35006564112E+02 -0.80767062925E+02  0.17250936582E+03  0.19367049151E+03  0.00000000000E+00 0.  1.
</event>
<event>
 7    1  0.6122298E-006  0.7490603E+02  0.7818608E-02  0.1494699E+00
          2   -1    0    0  502    0  0.00000000000E+00  0.00000000000E+00  0.21570568113E+03  0.21570568113E+03  0.00000000000E+00 0. -1.
          1   -1    0    0  501    0 -0.00000000000E+00 -0.00000000000E+00 -0.17115827381E+04  0.17115827381E+04  0.00000000000E+00 0. -1.
         25    2    1    2    0    0  0.20051924760E-01 -0.55602568484E+02 -0.89653790792E+03  0.90691615480E+03  0.12500018195E+03 0.  0.
          2    1    1    2  501    0  0.15106231673E+02 -0.17915209493E+02 -0.80298904386E+03  0.80333091409E+03  0.00000000000E+00 0. -1.
          1    1    1    2  502    0 -0.15126283598E+02  0.73517777977E+02  0.20364989477E+03  0.21704135038E+03  0.00000000000E+00 0. -1.
         22    1    3    3    0    0 -0.19062087756E+02 -0.63166054922E+02 -0.87378517829E+03  0.87627270384E+03  0.00000000000E+00 0. -1.
         22    1    3    3    0    0  0.19082139681E+02  0.75634864377E+01 -0.22752729624E+02  0.30643450968E+02  0.00000000000E+00 0. -1.
</event>
<event>
 7    1  0.6122298E-006  0.3963290E+03  0.7818608E-02  0.1304021E+00
          2   -1    0    0  502    0  0.00000000000E+00  0.00000000000E+00  0.48760981398E+03  0.48760981398E+03  0.00000000000E+00 0. -1.
          1   -1    0    0  501    0 -0.00000000000E+00 -0.00000000000E+00 -0.82984129771E+03  0.82984129771E+03  0.00000000000E+00 0. -1.
         25    2    1    2    0    0  0.36112345085E+03 -0.19037130980E+03 -0.50218208925E+03  0.65913822914E+03  0.12499988801E+03 0.  0.
          2    1    1    2  501    0 -0.19222615792E+02 -0.62706919283E+01 -0.15330527924E+03  0.15463291751E+03  0.00000000000E+00 0. -1.
          1    1    1    2  502    0 -0.34190083506E+03  0.19664200173E+03  0.31325588476E+03  0.50367996505E+03  0.00000000000E+00 0. -1.
         22    1    3    3    0    0  0.22342929213E+03 -0.16494246007E+03 -0.26591811908E+03  0.38449851725E+03  0.00000000000E+00 0.  1.
         22    1    3    3    0    0  0.13769415872E+03 -0.25428849729E+02 -0.23626397017E+03  0.27463971189E+03  0.00000000000E+00 0.  1.
</event>
<event>
 7    1  0.6122298E-006  0.8560679E+02  0.7818608E-02  0.1346748E+00
          2   -1    0    0  502    0  0.00000000000E+00  0.00000000000E+00  0.56872005193E+03  0.56872005193E+03  0.00000000000E+00 0. -1.
          1   -1    0    0  501    0 -0.00000000000E+00 -0.00000000000E+00 -0.40766497491E+04  0.40766497491E+04  0.00000000000E+00 0. -1.
         25    2    1    2    0    0 -0.12076951565E+03 -0.17339395532E+02 -0.10519996025E+03  0.20391656674E+03  0.12501601500E+03 0.  0.
          2    1    1    2  501    0  0.79357604558E+02 -0.31591559413E+02 -0.39196464437E+04  0.39205769855E+04  0.00000000000E+00 0. -1.
          1    1    1    2  502    0  0.41411911094E+02  0.48930954945E+02  0.51691670678E+03  0.52087624872E+03  0.00000000000E+00 0. -1.
         22    1    3    3    0    0 -0.12557179461E+03 -0.54735056498E+02 -0.82471551012E+02  0.15989296025E+03  0.00000000000E+00 0.  1.
         22    1    3    3    0    0  0.48022789559E+01  0.37395660965E+02 -0.22728409242E+02  0.44023606496E+02  0.00000000000E+00 0.  1.
</event>
<event>
 7    1  0.6122298E-006  0.1266906E+03  0.7818608E-02  0.1307100E+00
          2   -1    0    0  502    0  0.00000000000E+00  0.00000000000E+00  0.27776106447E+03  0.27776106447E+03  0.00000000000E+00 0. -1.
          1   -1    0    0  501    0 -0.00000000000E+00 -0.00000000000E+00 -0.15042707671E+04  0.15042707671E+04  0.00000000000E+00 0. -1.
         25    2    1    2    0    0 -0.90324460924E+02  0.13498662890E+03 -0.10178773619E+03  0.22885118504E+03  0.12502889040E+03 0.  0.
          2    1    1    2  501    0 -0.87151989864E+01 -0.60878280518E+02 -0.13203199515E+04  0.13217514494E+04  0.00000000000E+00 0. -1.
          1    1    1    2  502    0  0.99039659910E+02 -0.74108348383E+02  0.19559798503E+03  0.23142919713E+03  0.00000000000E+00 0. -1.
         22    1    3    3    0    0  0.25301875618E+02  0.33770059853E+02 -0.52741826587E+02  0.67544815670E+02  0.00000000000E+00 0.  1.
         22    1    3    3    0    0 -0.11562633654E+03  0.10121656905E+03 -0.49045909600E+02  0.16130636937E+03  0.00000000000E+00 0.  1.
</event>
<event>
 7    1  0.6122298E-006  0.8006894E+02  0.7818608E-02  0.1462855E+00
          2   -1    0    0  502    0  0.00000000000E+00  0.00000000000E+00  0.20826716689E+04  0.20826716689E+04  0.00000000000E+00 0. -1.
          1   -1    0    0  501    0 -0.00000000000E+00 -0.00000000000E+00 -0.12454559648E+03  0.12454559648E+03  0.00000000000E+00 0. -1.
         25    2    1    2    0    0  0.90855843737E+02  0.53693163826E+02  0.89824012403E+02  0.18663044922E+03  0.12499932475E+03 0.  0.
          2    1    1    2  501    0 -0.26678095014E+02 -0.65230951993E+01 -0.72822328086E+02  0.77829062646E+02  0.00000000000E+00 0. -1.
          1    1    1    2  502    0 -0.64177748723E+02 -0.47170068627E+02  0.19411243881E+04  0.19427577536E+04  0.00000000000E+00 0. -1.
         22    1    3    3    0    0  0.44003746761E+02 -0.25836587642E+02  0.78509111944E+02  0.93635141097E+02  0.00000000000E+00 0.  1.
         22    1    3    3    0    0  0.46852096976E+02  0.79529751468E+02  0.11314900459E+02  0.92995308118E+02  0.00000000000E+00 0.  1.
</event>
<event>
 7    1  0.6122298E-006  0.6933297E+02  0.7818608E-02  0.1378157E+00
          2   -1    0    0  502    0  0.00000000000E+00  0.00000000000E+00  0.25385852510E+03  0.25385852510E+03  0.00000000000E+00 0. -1.
          1   -1    0    0  501    0 -0.00000000000E+00 -0.00000000000E+00 -0.16455234937E+04  0.16455234937E+04  0.00000000000E+00 0. -1.
         25    2    1    2    0    0 -0.35747827578E+02 -0.51252194502E+02 -0.93878304651E+03  0.94912763566E+03  0.12499986294E+03 0.  0.
          2    1    1    2  501    0 -0.19288825540E+02  0.77196880862E+02 -0.69554386590E+03  0.70008048580E+03  0.00000000000E+00 0. -1.
          1    1    1    2  502    0  0.55036653119E+02 -0.25944686359E+02  0.24266194381E+03  0.25017389734E+03  0.00000000000E+00 0. -1.
         22    1    3    3    0    0  0.43259217245E+02  0.38189628906E+01 -0.28545268825E+03  0.28873721891E+03  0.00000000000E+00 0. -1.
         22    1    3    3    0    0 -0.79007044824E+02 -0.55071157393E+02 -0.65333035827E+03  0.66039041676E+03  0.00000000000E+00 0. -1.
</event>
<event>
 7    1  0.6122298E-006  0.7045514E+02  0.7818608E-02  0.1379884E+00
          2   -1    0    0  502    0  0.00000000000E+00  0.00000000000E+00  0.24302405671E+04  0.24302405671E+04  0.00000000000E+00 0. -1.
          1   -1    0    0  501    0 -0.00000000000E+00 -0.00000000000E+00 -0.93682327304E+02  0.93682327304E+02  0.00000000000E+00 0. -1.
         25    2    1    2    0    0 -0.16426529930E+02 -0.58839673415E+01  0.22154244396E+02  0.12814518224E+03  0.12500370086E+03 0.  0.
          2    1    1    2  501    0 -0.18127895147E+02 -0.56185838521E+02 -0.18441282039E+02  0.61851030032E+02  0.00000000000E+00 0. -1.
          1    1    1    2  502    0  0.34554425078E+02  0.62069805863E+02  0.23328452774E+04  0.23339266821E+04  0.00000000000E+00 0. -1.
         22    1    3    3    0    0  0.34661106961E+01  0.57934728302E+02  0.10573560338E+01  0.58047951459E+02  0.00000000000E+00 0.  1.
         22    1    3    3    0    0 -0.19892640626E+02 -0.63818695644E+02  0.21096888362E+02  0.70097230782E+02  0.00000000000E+00 0.  1.
</event>
<event>
 7    1  0.6122298E-006  0.1403523E+03  0.7818608E-02  0.1260873E+00
          2   -1    0    0  502    0  0.00000000000E+00  0.00000000000E+00  0.36327651032E+03  0.36327651032E+03  0.00000000000E+00 0. -1.
          1   -1    0    0  501    0 -0.00000000000E+00 -0.00000000000E+00 -0.42826450580E+03  0.42826450580E+03  0.00000000000E+00 0. -1.
         25    2    1    2    0    0  0.58239727886E+02  0.38249969470E+02  0.15778399339E+03  0.21301584386E+03  0.12500014039E+03 0.  0.
          2    1    1    2  501    0 -0.98125714321E+02  0.10034993786E+03 -0.35569803825E+03  0.38238705555E+03  0.00000000000E+00 0. -1.
          1    1    1    2  502    0  0.39885986434E+02 -0.13859990733E+03  0.13292604938E+03  0.19613811672E+03  0.00000000000E+00 0. -1.
         22    1    3    3    0    0  0.85620429224E+02  0.61696412715E+02  0.13035483481E+03  0.16771907524E+03  0.00000000000E+00 0. -1.
         22    1    3    3    0    0 -0.27380701338E+02 -0.23446443245E+02  0.27429158576E+02  0.45296768613E+02  0.00000000000E+00 0. -1.
</event>
<event>
 7    1  0.6122298E-006  0.7496265E+02  0.7818608E-02  0.1429667E+00
          2   -1    0    0  502    0  0.00000000000E+00  0.00000000000E+00  0.18482831922E+04  0.18482831922E+04  0.00000000000E+00 0. -1.
          1   -1    0    0  501    0 -0.00000000000E+00 -0.00000000000E+00 -0.15062988821E+03  0.15062988821E+03  0.00000000000E+00 0. -1.
         25    2    1    2    0    0  0.93026509807E+01 -0.11029607201E+03  0.16403136106E+02  0.16776469774E+03  0.12499667243E+03 0.  0.
          2    1    1    2  501    0  0.52686651132E+01  0.37138135659E+02 -0.69411400819E+02  0.78898304900E+02  0.00000000000E+00 0. -1.
          1    1    1    2  502    0 -0.14571316094E+02  0.73157936350E+02  0.17506615687E+04  0.17522500778E+04  0.00000000000E+00 0. -1.
         22    1    3    3    0    0 -0.39851394628E+02 -0.59106565766E+02 -0.35697911491E+02  0.79724906116E+02  0.00000000000E+00 0.  1.
         22    1    3    3    0    0  0.49154045609E+02 -0.51189506244E+02  0.52101047597E+02  0.88039791628E+02  0.00000000000E+00 0.  1.
</event>
<event>
 7    1  0.6122298E-006  0.6126914E+02  0.7818608E-02  0.1500053E+00
          2   -1    0    0  502    0  0.00000000000E+00  0.00000000000E+00  0.91277212469E+03  0.91277212469E+03  0.00000000000E+00 0. -1.
          1   -1    0    0  501    0 -0.00000000000E+00 -0.00000000000E+00 -0.29060884482E+03  0.29060884482E+03  0.00000000000E+00 0. -1.
         25    2    1    2    0    0  0.69780854461E+02  0.31062621800E+02  0.13853875756E+03  0.20162222275E+03  0.12499711693E+03 0.  0.
          2    1    1    2  501    0 -0.91547321909E+01 -0.26049439566E+02 -0.25708092163E+03  0.25855943744E+03  0.00000000000E+00 0. -1.
          1    1    1    2  502    0 -0.60626122271E+02 -0.50131822344E+01  0.74070544394E+03  0.74319930932E+03  0.00000000000E+00 0. -1.
         22    1    3    3    0    0  0.10516801934E+03  0.27295073261E+02  0.11853751487E+03  0.16079948927E+03  0.00000000000E+00 0. -1.
         22    1    3    3    0    0 -0.35387164881E+02  0.37675485385E+01  0.20001242686E+02  0.40822733487E+02  0.00000000000E+00 0. -1.
</event>
<event>
 7    1  0.6122298E-006  0.1793100E+03  0.7818608E-02  0.1180314E+00
          2   -1    0    0  502    0  0.00000000000E+00  0.00000000000E+00  0.42292428328E+03  0.42292428328E+03  0.00000000000E+00 0. -1.
          1   -1    0    0  501    0 -0.00000000000E+00 -0.00000000000E+00 -0.18804200767E+04  0.18804200767E+04  0.00000000000E+00 0. -1.
         25    2    1    2    0    0  0.32877692433E+02 -0.53051246721E+02 -0.33998146304E+03  0.36756951532E+03  0.12499830376E+03 0.  0.
          2    1    1    2  501    0 -0.95907928588E+02 -0.12399901750E+03 -0.15007624371E+04  0.15089274269E+04  0.00000000000E+00 0. -1.
          1    1    1    2  502    0  0.63030236155E+02  0.17705026422E+03  0.38324810672E+03  0.42684741774E+03  0.00000000000E+00 0. -1.
         22    1    3    3    0    0 -0.15429457047E+02 -0.35409164467E+02 -0.20026718637E+02  0.43508005383E+02  0.00000000000E+00 0.  1.
         22    1    3    3    0    0  0.48307149480E+02 -0.17642082254E+02 -0.31995474440E+03  0.32406150994E+03  0.00000000000E+00 0.  1.
</event>
<event>
 7    1  0.6122298E-006  0.2078466E+03  0.7818608E-02  0.1244447E+00
          2   -1    0    0  502    0  0.00000000000E+00  0.00000000000E+00  0.91692898598E+03  0.91692898598E+03  0.00000000000E+00 0. -1.
          1   -1    0    0  501    0 -0.00000000000E+00 -0.00000000000E+00 -0.37850770906E+03  0.37850770906E+03  0.00000000000E+00 0. -1.
         25    2    1    2    0    0 -0.25630337622E+03  0.41644881440E+02  0.14981134478E+03  0.32480082333E+03  0.12500567586E+03 0.  0.
          2    1    1    2  501    0  0.65936724305E+02  0.17981898276E+02 -0.27205614887E+03  0.28050944444E+03  0.00000000000E+00 0. -1.
          1    1    1    2  502    0  0.19036665192E+03 -0.59626779716E+02  0.66066608102E+03  0.69012642728E+03  0.00000000000E+00 0. -1.
         22    1    3    3    0    0 -0.12510345373E+01 -0.18600275815E+02  0.32943830950E+02  0.37852758757E+02  0.00000000000E+00 0.  1.
         22    1    3    3    0    0 -0.25505234169E+03  0.60245157256E+02  0.11686751383E+03  0.28694806457E+03  0.00000000000E+00 0.  1.
</event>
<event>
 7    1  0.6122298E-006  0.5583112E+02  0.7818608E-02  0.1442238E+00
          2   -1    0    0  502    0  0.00000000000E+00  0.00000000000E+00  0.28220852841E+04  0.28220852841E+04  0.00000000000E+00 0. -1.
          1   -1    0    0  501    0 -0.00000000000E+00 -0.00000000000E+00 -0.35450489654E+03  0.35450489654E+03  0.00000000000E+00 0. -1.
         25    2    1    2    0    0 -0.10341957912E+02  0.37838920385E+02  0.31445550864E+03  0.34065622840E+03  0.12500263615E+03 0.  0.
          2    1    1    2  501    0 -0.42427962003E+02 -0.17308810813E+02 -0.33954400567E+03  0.34262203472E+03  0.00000000000E+00 0. -1.
          1    1    1    2  502    0  0.52769919915E+02 -0.20530109572E+02  0.24926688846E+04  0.24933119175E+04  0.00000000000E+00 0. -1.
         22    1    3    3    0    0  0.10813706458E+02  0.49944657021E+02  0.31200137096E+03  0.31615860022E+03  0.00000000000E+00 0.  1.
         22    1    3    3    0    0 -0.21155664370E+02 -0.12105736636E+02  0.24541376745E+01  0.24497628174E+02  0.00000000000E+00 0.  1.
</event>
<event>
 7    1  0.6122298E-006  0.1027902E+03  0.7818608E-02  0.1296581E+00
          2   -1    0    0  502    0  0.00000000000E+00  0.00000000000E+00  0.21056913195E+04  0.21056913195E+04  0.00000000000E+00 0. -1.
          1   -1    0    0  501    0 -0.00000000000E+00 -0.00000000000E+00 -0.12363148285E+03  0.12363148285E+03  0.00000000000E+00 0. -1.
         25    2    1    2    0    0 -0.12459670298E+03 -0.12592354470E+03  0.27414782369E+03  0.34951909069E+03  0.12500195204E+03 0.  0.
          2    1    1    2  501    0  0.73385170433E+02  0.39819485379E+02 -0.63914193385E+02  0.10514750958E+03  0.00000000000E+00 0. -1.
          1    1    1    2  502    0  0.51211532548E+02  0.86104059326E+02  0.17718262064E+04  0.17746562021E+04  0.00000000000E+00 0. -1.
         22    1    3    3    0    0 -0.97458475393E+02 -0.52281151751E+02  0.70207641847E+02  0.13099842071E+03  0.00000000000E+00 0.  1.
         22    1    3    3    0    0 -0.27138227587E+02 -0.73642392954E+02  0.20394018185E+03  0.21852066998E+03  0.00000000000E+00 0.  1.
</event>
<event>
 7    1  0.6122298E-006  0.7098342E+02  0.7818608E-02  0.1414800E+00
          2   -1    0    0  502    0  0.00000000000E+00  0.00000000000E+00  0.50313662723E+03  0.50313662723E+03  0.00000000000E+00 0. -1.
          1   -1    0    0  501    0 -0.00000000000E+00 -0.00000000000E+00 -0.50254974037E+03  0.50254974037E+03  0.00000000000E+00 0. -1.
         25    2    1    2    0    0  0.54259104561E+02  0.65894005024E+02  0.18723495035E+03  0.24076527033E+03  0.12499967377E+03 0.  0.
          2    1    1    2  501    0 -0.10077383008E+02 -0.70237891862E+02 -0.47140948193E+03  0.47671984934E+03  0.00000000000E+00 0. -1.
          1    1    1    2  502    0 -0.44181721553E+02  0.43438868382E+01  0.28476141844E+03  0.28820124792E+03  0.00000000000E+00 0. -1.
         22    1    3    3    0    0  0.47345149681E+02  0.21861619998E+02  0.18909552592E+03  0.19615456036E+03  0.00000000000E+00 0. -1.
         22    1    3    3    0    0  0.69139548802E+01  0.44032385027E+02 -0.18605755695E+01  0.44610709977E+02  0.00000000000E+00 0. -1.
</event>
<event>
 7    1  0.6122298E-006  0.9165950E+02  0.7818608E-02  0.1351628E+00
          2   -1    0    0  502    0  0.00000000000E+00  0.00000000000E+00  0.10168079652E+04  0.10168079652E+04  0.00000000000E+00 0. -1.
          1   -1    0    0  501    0 -0.00000000000E+00 -0.00000000000E+00 -0.11460630647E+04  0.11460630647E+04  0.00000000000E+00 0. -1.
         25    2    1    2    0    0  0.10082821009E+02  0.47037412387E+02  0.29919023511E+02  0.13723429533E+03  0.12499568954E+03 0.  0.
          2    1    1    2  501    0  0.52762286407E+02  0.22668310859E+02 -0.10892875400E+04  0.10908001906E+04  0.00000000000E+00 0. -1.
          1    1    1    2  502    0 -0.62845107417E+02 -0.69705723246E+02  0.93011341700E+03  0.93483654393E+03  0.00000000000E+00 0. -1.
         22    1    3    3    0    0  0.42608447085E+02  0.47930691070E+02 -0.28645312629E+02  0.70238058380E+02  0.00000000000E+00 0.  1.
         22    1    3    3    0    0 -0.32525626076E+02 -0.89327868323E+00  0.58564336139E+02  0.66996236953E+02  0.00000000000E+00 0.  1.
</event>
<event>
 7    1  0.6122298E-006  0.1784421E+03  0.7818608E-02  0.1222134E+00
          2   -1    0    0  502    0  0.00000000000E+00  0.00000000000E+00  0.10743882891E+04  0.10743882891E+04  0.00000000000E+00 0. -1.
          1   -1    0    0  501    0 -0.00000000000E+00 -0.00000000000E+00 -0.53445991842E+03  0.53445991842E+03  0.00000000000E+00 0. -1.
         25    2    1    2    0    0  0.23918718988E+03 -0.49481405413E+01 -0.24153769641E+03  0.36221605174E+03  0.12500005381E+03 0.  0.
          2    1    1    2  501    0 -0.73472508006E+02  0.67992494168E+02 -0.21359959935E+03  0.23589399640E+03  0.00000000000E+00 0. -1.
          1    1    1    2  502    0 -0.16571468187E+03 -0.63044353627E+02  0.99506566646E+03  0.10107381594E+04  0.00000000000E+00 0. -1.
         22    1    3    3    0    0  0.15507960793E+03  0.43257943268E+02 -0.19999560755E+03  0.25674730279E+03  0.00000000000E+00 0.  1.
         22    1    3    3    0    0  0.84107581949E+02 -0.48206083809E+02 -0.41542088865E+02  0.10546874895E+03  0.00000000000E+00 0.  1.
</event>
<event>
 7    1  0.6122298E-006  0.3631709E+02  0.7818608E-02  0.1551863E+00
          2   -1    0    0  502    0  0.00000000000E+00  0.00000000000E+00  0.77088032767E+02  0.77088032767E+02  0.00000000000E+00 0. -1.
          1   -1    0    0  501    0 -0.00000000000E+00 -0.00000000000E+00 -0.53058862220E+03  0.53058862220E+03  0.00000000000E+00 0. -1.
         25    2    1    2    0    0 -0.13766094011E+02  0.24676642249E+02 -0.15924205209E+03  0.20440626616E+03  0.12500179389E+03 0.  0.
          2    1    1    2  501    0  0.37240809752E+02 -0.14383429708E+01 -0.34265513753E+03  0.34467592027E+03  0.00000000000E+00 0. -1.
          1    1    1    2  502    0 -0.23474715741E+02 -0.23238299278E+02  0.48396600189E+02  0.58594468530E+02  0.00000000000E+00 0. -1.
         22    1    3    3    0    0  0.55138153570E+02  0.37765814682E+01 -0.57412352157E+02  0.79691007817E+02  0.00000000000E+00 0. -1.
         22    1    3    3    0    0 -0.68904247580E+02  0.20900060780E+02 -0.10182969994E+03  0.12471525835E+03  0.00000000000E+00 0. -1.
</event>
<event>
 7    1  0.6122298E-006  0.1961255E+03  0.7818608E-02  0.1228925E+00
          2   -1    0    0  502    0  0.00000000000E+00  0.00000000000E+00  0.52826564144E+03  0.52826564144E+03  0.00000000000E+00 0. -1.
          1   -1    0    0  501    0 -0.00000000000E+00 -0.00000000000E+00 -0.67901211753E+03  0.67901211753E+03  0.00000000000E+00 0. -1.
         25    2    1    2    0    0  0.19585290369E+02 -0.13347922938E+03  0.10037979248E+02  0.18419200174E+03  0.12500257678E+03 0.  0.
          2    1    1    2  501    0  0.22243957735E+02  0.20732352148E+03 -0.56907250237E+03  0.60607041601E+03  0.00000000000E+00 0. -1.
          1    1    1    2  502    0 -0.41829248104E+02 -0.73844292093E+02  0.40828804702E+03  0.41701534122E+03  0.00000000000E+00 0. -1.
         22    1    3    3    0    0  0.26034896730E+02 -0.73548670693E+02 -0.55045275945E+02  0.95484057372E+02  0.00000000000E+00 0.  1.
         22    1    3    3    0    0 -0.64496063603E+01 -0.59930558691E+02  0.65083255192E+02  0.88707944366E+02  0.00000000000E+00 0.  1.
</event>
<event>
 7    1  0.6122298E-006  0.2408076E+03  0.7818608E-02  0.1179496E+00
          2   -1    0    0  502    0  0.00000000000E+00  0.00000000000E+00  0.26355950819E+04  0.26355950819E+04  0.00000000000E+00 0. -1.
          1   -1    0    0  501    0 -0.00000000000E+00 -0.00000000000E+00 -0.42277737158E+03  0.42277737158E+03  0.00000000000E+00 0. -1.
         25    2    1    2    0    0  0.18633628953E+03 -0.22832123054E+02  0.15770308581E+03  0.27520390438E+03  0.12499762826E+03 0.  0.
          2    1    1    2  501    0  0.19900297269E+02 -0.11611152931E+03 -0.34790882168E+03  0.36731247905E+03  0.00000000000E+00 0. -1.
          1    1    1    2  502    0 -0.20623658680E+03  0.13894365236E+03  0.24030234462E+04  0.24158560700E+04  0.00000000000E+00 0. -1.
         22    1    3    3    0    0 -0.12788986117E+02 -0.13205262680E+02 -0.36366916734E+01  0.18739334424E+02  0.00000000000E+00 0.  1.
         22    1    3    3    0    0  0.19912527565E+03 -0.96268603736E+01  0.16133977748E+03  0.25646456995E+03  0.00000000000E+00 0.  1.
</event>
<event>
 7    1  0.6122298E-006  0.4627622E+02  0.7818608E-02  0.1497231E+00
          2   -1    0    0  502    0  0.00000000000E+00  0.00000000000E+00  0.12962147576E+04  0.12962147576E+04  0.00000000000E+00 0. -1.
          1   -1    0    0  501    0 -0.00000000000E+00 -0.00000000000E+00 -0.29651244590E+03  0.29651244590E+03  0.00000000000E+00 0. -1.
         25    2    1    2    0    0 -0.59056855466E+02 -0.55156729880E+02  0.30607950588E+03  0.34035270323E+03  0.12500128657E+03 0.  0.
          2    1    1    2  501    0  0.20856546434E+02  0.30892775659E+02 -0.27760334383E+03  0.28009458335E+03  0.00000000000E+00 0. -1.
          1    1    1    2  502    0  0.38200309033E+02  0.24263954221E+02  0.97122614968E+03  0.97227991696E+03  0.00000000000E+00 0. -1.
         22    1    3    3    0    0 -0.27164221870E+02 -0.93894940425E+02  0.18370808365E+03  0.20809328385E+03  0.00000000000E+00 0. -1.
         22    1    3    3    0    0 -0.31892633596E+02  0.38738210545E+02  0.12237142223E+03  0.13225941938E+03  0.00000000000E+00 0. -1.
</event>
<event>
 7    1  0.6122298E-006  0.6984997E+02  0.7818608E-02  0.1401929E+00
          2   -1    0    0  502    0  0.00000000000E+00  0.00000000000E+00  0.37398172689E+03  0.37398172689E+03  0.00000000000E+00 0. -1.
          1   -1    0    0  501    0 -0.00000000000E+00 -0.00000000000E+00 -0.14553193355E+03  0.14553193355E+03  0.00000000000E+00 0. -1.
         25    2    1    2    0    0  0.17816541793E+02  0.94216241491E+02  0.60676193824E+02  0.16882169698E+03  0.12500014221E+03 0.  0.
          2    1    1    2  501    0  0.22200866432E+02 -0.64417242861E+02 -0.75880496847E+02  0.10198190746E+03  0.00000000000E+00 0. -1.
          1    1    1    2  502    0 -0.40017408225E+02 -0.29798998631E+02  0.24365409636E+03  0.24871005600E+03  0.00000000000E+00 0. -1.
         22    1    3    3    0    0  0.28475135038E+02 -0.12326274511E+02  0.53073006886E+02  0.61477755478E+02  0.00000000000E+00 0. -1.
         22    1    3    3    0    0 -0.10658593245E+02  0.10654251600E+03  0.76031869385E+01  0.10734394150E+03  0.00000000000E+00 0. -1.
</event>
<event>
 7    1  0.6122298E-006  0.6144137E+02  0.7818608E-02  0.1484814E+00
          2   -1    0    0  502    0  0.00000000000E+00  0.00000000000E+00  0.81947326154E+03  0.81947326154E+03  0.00000000000E+00 0. -1.
          1   -1    0    0  501    0 -0.00000000000E+00 -0.00000000000E+00 -0.15911803524E+03  0.15911803524E+03  0.00000000000E+00 0. -1.
         25    2    1    2    0    0  0.69334597087E+02  0.52677581206E+02  0.28117148842E+03  0.31978816825E+03  0.12499941094E+03 0.  0.
          2    1    1    2  501    0 -0.16489747116E+02 -0.25785094705E+02 -0.13641487323E+03  0.13980629638E+03  0.00000000000E+00 0. -1.
          1    1    1    2  502    0 -0.52844849971E+02 -0.26892486500E+02  0.51559861111E+03  0.51899683215E+03  0.00000000000E+00 0. -1.
         22    1    3    3    0    0 -0.17698247216E+02 -0.28200455376E+02  0.54457263114E+02  0.63828576232E+02  0.00000000000E+00 0. -1.
         22    1    3    3    0    0  0.87032844304E+02  0.80878036582E+02  0.22671422531E+03  0.25595959202E+03  0.00000000000E+00 0. -1.
</event>
<event>
 7    1  0.6122298E-006  0.7283082E+02  0.7818608E-02  0.1374014E+00
          2   -1    0    0  502    0  0.00000000000E+00  0.00000000000E+00  0.71754507695E+02  0.71754507695E+02  0.00000000000E+00 0. -1.
          1   -1    0    0  501    0 -0.00000000000E+00 -0.00000000000E+00 -0.96700401142E+03  0.96700401142E+03  0.00000000000E+00 0. -1.
         25    2    1    2    0    0  0.14280053126E+02 -0.56292302859E+02 -0.16176585287E+03  0.21252158548E+03  0.12499795943E+03 0.  0.
          2    1    1    2  501    0 -0.59331279778E+02 -0.84191228907E+01 -0.74424781738E+03  0.74665647795E+03  0.00000000000E+00 0. -1.
          1    1    1    2  502    0  0.45051226652E+02  0.64711425750E+02  0.10764166527E+02  0.79580455681E+02  0.00000000000E+00 0. -1.
         22    1    3    3    0    0 -0.12374468760E+02  0.37846289247E+02 -0.51706962094E+02  0.65261619776E+02  0.00000000000E+00 0.  1.
         22    1    3    3    0    0  0.26654521887E+02 -0.94138592106E+02 -0.11005889077E+03  0.14725996570E+03  0.00000000000E+00 0.  1.
</event>
<event>
 7    1  0.6122298E-006  0.1733673E+03  0.7818608E-02  0.1272501E+00
          2   -1    0    0  502    0  0.00000000000E+00  0.00000000000E+00  0.23715112691E+04  0.23715112691E+04  0.00000000000E+00 0. -1.
          1   -1    0    0  501    0 -0.00000000000E+00 -0.00000000000E+00 -0.16499564768E+04  0.16499564768E+04  0.00000000000E+00 0. -1.
         25    2    1    2    0    0  0.23174540160E+03 -0.19816903507E+02 -0.20513753175E+03  0.33436840157E+03  0.12498872032E+03 0.  0.
          2    1    1    2  501    0 -0.61496534866E+02 -0.89794821117E+01 -0.13762703134E+04  0.13776728315E+04  0.00000000000E+00 0. -1.
          1    1    1    2  502    0 -0.17024886674E+03  0.28796385619E+02  0.23029626375E+04  0.23094265128E+04  0.00000000000E+00 0. -1.
         22    1    3    3    0    0  0.23512610900E+03 -0.24581175401E+02 -0.15232108364E+03  0.28122985944E+03  0.00000000000E+00 0.  1.
         22    1    3    3    0    0 -0.33807073959E+01  0.47642718939E+01 -0.52816448109E+02  0.53138542133E+02  0.00000000000E+00 0.  1.
</event>
<event>
 7    1  0.6122298E-006  0.9005048E+02  0.7818608E-02  0.1347028E+00
          2   -1    0    0  502    0  0.00000000000E+00  0.00000000000E+00  0.34883395796E+04  0.34883395796E+04  0.00000000000E+00 0. -1.
          1   -1    0    0  501    0 -0.00000000000E+00 -0.00000000000E+00 -0.27726425811E+03  0.27726425811E+03  0.00000000000E+00 0. -1.
         25    2    1    2    0    0  0.12723726046E+03 -0.54661718736E+02  0.11120872711E+03  0.21718553135E+03  0.12499980038E+03 0.  0.
          2    1    1    2  501    0 -0.66503572248E+02  0.57360332867E+02 -0.21538888567E+03  0.23260547066E+03  0.00000000000E+00 0. -1.
          1    1    1    2  502    0 -0.60733688211E+02 -0.26986141310E+01  0.33152554800E+04  0.33158128357E+04  0.00000000000E+00 0. -1.
         22    1    3    3    0    0  0.13827932628E+02  0.37786364971E+02  0.24195526419E+02  0.46951513257E+02  0.00000000000E+00 0. -1.
         22    1    3    3    0    0  0.11340932783E+03 -0.92448083706E+02  0.87013200694E+02  0.17023401809E+03  0.00000000000E+00 0. -1.
</event>
<event>
 7    1  0.6122298E-006  0.8588332E+02  0.7818608E-02  0.1361694E+00
          2   -1    0    0  502    0  0.00000000000E+00  0.00000000000E+00  0.52201005342E+03  0.52201005342E+03  0.00000000000E+00 0. -1.
          1   -1    0    0  501    0 -0.00000000000E+00 -0.00000000000E+00 -0.87512520332E+02  0.87512520332E+02  0.00000000000E+00 0. -1.
         25    2    1    2    0    0  0.22379823860E+02 -0.73874957077E+02  0.17548648250E+03  0.22886467265E+03  0.12500066818E+03 0.  0.
          2    1    1    2  501    0 -0.73910536511E+02  0.51215384848E+02 -0.23217578313E+02  0.92870011280E+02  0.00000000000E+00 0. -1.
          1    1    1    2  502    0  0.51530712650E+02  0.22659572229E+02  0.28222862890E+03  0.28778788982E+03  0.00000000000E+00 0. -1.
         22    1    3    3    0    0 -0.51261108811E+01  0.25504143588E+02  0.81431882662E+00  0.26026937355E+02  0.00000000000E+00 0.  1.
         22    1    3    3    0    0  0.27505934741E+02 -0.99379100665E+02  0.17467216368E+03  0.20283773529E+03  0.00000000000E+00 0.  1.
</event>
<event>
 7    1  0.6122298E-006  0.6644625E+02  0.7818608E-02  0.1385057E+00
          2   -1    0    0  502    0  0.00000000000E+00  0.00000000000E+00  0.40007870358E+04  0.40007870358E+04  0.00000000000E+00 0. -1.
          1   -1    0    0  501    0 -0.00000000000E+00 -0.00000000000E+00 -0.35655839174E+03  0.35655839174E+03  0.00000000000E+00 0. -1.
         25    2    1    2    0    0 -0.10899389769E+03  0.24185938512E+02 -0.26429702440E+03  0.31294636387E+03  0.12497151756E+03 0.  0.
          2    1    1    2  501    0  0.44546717876E+02 -0.40228855931E+02 -0.54346113591E+02  0.80970803290E+02  0.00000000000E+00 0. -1.
          1    1    1    2  502    0  0.64447179810E+02  0.16042917419E+02  0.39628717820E+04  0.39634282603E+04  0.00000000000E+00 0. -1.
         22    1    3    3    0    0  0.15284858127E+02 -0.85490733856E+01 -0.11337024245E+03  0.11471497468E+03  0.00000000000E+00 0.  1.
         22    1    3    3    0    0 -0.12427875581E+03  0.32735011898E+02 -0.15092678195E+03  0.19823138919E+03  0.00000000000E+00 0.  1.
</event>
<event>
 7    1  0.6122298E-006  0.1524337E+03  0.7818608E-02  0.1304062E+00
          2   -1    0    0  502    0  0.00000000000E+00  0.00000000000E+00  0.24848522816E+04  0.24848522816E+04  0.00000000000E+00 0. -1.
          1   -1    0    0  501    0 -0.00000000000E+00 -0.00000000000E+00 -0.23836700789E+03  0.23836700789E+03  0.00000000000E+00 0. -1.
         25    2    1    2    0    0 -0.12003789478E+03 -0.50882945528E+02  0.29715052658E+03  0.34773846028E+03  0.12500172392E+03 0.  0.
          2    1    1    2  501    0  0.11552209862E+03  0.10324006477E+03 -0.18454282130E+03  0.24095625980E+03  0.00000000000E+00 0. -1.
          1    1    1    2  502    0  0.45157961525E+01 -0.52357119243E+02  0.21338775684E+04  0.21345245694E+04  0.00000000000E+00 0. -1.
         22    1    3    3    0    0 -0.11170809523E+03 -0.63624498773E+02  0.30472696645E+03  0.33073448485E+03  0.00000000000E+00 0. -1.
         22    1    3    3    0    0 -0.83297995422E+01  0.12741553244E+02 -0.75764398699E+01  0.17003975435E+02  0.00000000000E+00 0. -1.
</event>
<event>
 7    1  0.6122298E-006  0.4287653E+02  0.7818608E-02  0.1497266E+00
          2   -1    0    0  502    0  0.00000000000E+00  0.00000000000E+00  0.98410414921E+03  0.98410414921E+03  0.00000000000E+00 0. -1.
          1   -1    0    0  501    0 -0.00000000000E+00 -0.00000000000E+00 -0.13316136913E+03  0.13316136913E+03  0.00000000000E+00 0. -1.
         25    2    1    2    0    0 -0.20740962338E+02  0.31993063458E+02  0.64286381422E+03  0.65601272169E+03  0.12500025507E+03 0.  0.
          2    1    1    2  501    0 -0.18929617945E+02 -0.38618476320E+02 -0.12167637827E+03  0.12905370269E+03  0.00000000000E+00 0. -1.
          1    1    1    2  502    0  0.39670580284E+02  0.66254128624E+01  0.32975534413E+03  0.33219909395E+03  0.00000000000E+00 0. -1.
         22    1    3    3    0    0 -0.33286503326E+02  0.19865134368E+02  0.51834132155E+02  0.64725513698E+02  0.00000000000E+00 0.  1.
         22    1    3    3    0    0  0.12545540988E+02  0.12127929090E+02  0.59102968206E+03  0.59128720800E+03  0.00000000000E+00 0.  1.
</event>
<event>
 7    1  0.6122298E-006  0.1215435E+03  0.7818608E-02  0.1269676E+00
          2   -1    0    0  502    0  0.00000000000E+00  0.00000000000E+00  0.16367458719E+04  0.16367458719E+04  0.00000000000E+00 0. -1.
          1   -1    0    0  501    0 -0.00000000000E+00 -0.00000000000E+00 -0.18077178910E+03  0.18077178910E+03  0.00000000000E+00 0. -1.
         25    2    1    2    0    0  0.28327535419E+02  0.29212075354E+02  0.14555928743E+03  0.19613414871E+03  0.12500121408E+03 0.  0.
          2    1    1    2  501    0  0.46928878351E+02  0.78080088430E+02 -0.13892566965E+03  0.16612995371E+03  0.00000000000E+00 0. -1.
          1    1    1    2  502    0 -0.75256413769E+02 -0.10729216378E+03  0.14493404650E+04  0.14552535586E+04  0.00000000000E+00 0. -1.
         22    1    3    3    0    0  0.69895802489E+02 -0.12641737646E+02  0.64962921869E+02  0.96257041062E+02  0.00000000000E+00 0.  1.
         22    1    3    3    0    0 -0.41568267070E+02  0.41853813000E+02  0.80596365561E+02  0.99877107644E+02  0.00000000000E+00 0.  1.
</event>
<event>
 7    1  0.6122298E-006  0.3730983E+02  0.7818608E-02  0.1547295E+00
          2   -1    0    0  502    0  0.00000000000E+00  0.00000000000E+00  0.43700682108E+03  0.43700682108E+03  0.00000000000E+00 0. -1.
          1   -1    0    0  501    0 -0.00000000000E+00 -0.00000000000E+00 -0.62120740279E+03  0.62120740279E+03  0.00000000000E+00 0. -1.
         25    2    1    2    0    0  0.31578977447E+02  0.27833668711E+01  0.11029298027E+03  0.16969029919E+03  0.12500110877E+03 0.  0.
          2    1    1    2  501    0 -0.12975480468E+02  0.30462035432E+02 -0.58982091176E+03  0.59074952953E+03  0.00000000000E+00 0. -1.
          1    1    1    2  502    0 -0.18603496979E+02 -0.33245402303E+02  0.29532734979E+03  0.29777439515E+03  0.00000000000E+00 0. -1.
         22    1    3    3    0    0  0.37209950009E+02  0.22631592676E+02 -0.12393638546E+02  0.45281029616E+02  0.00000000000E+00 0. -1.
         22    1    3    3    0    0 -0.56309725614E+01 -0.19848225805E+02  0.12268661881E+03  0.12440926957E+03  0.00000000000E+00 0. -1.
</event>
<event>
 7    1  0.6122298E-006  0.1100527E+03  0.7818608E-02  0.1303758E+00
          2   -1    0    0  502    0  0.00000000000E+00  0.00000000000E+00  0.15489709468E+04  0.15489709468E+04  0.00000000000E+00 0. -1.
          1   -1    0    0  501    0 -0.00000000000E+00 -0.00000000000E+00 -0.11743208177E+03  0.11743208177E+03  0.00000000000E+00 0. -1.
         25    2    1    2    0    0 -0.10203724842E+02  0.37621139063E+02  0.10914409504E+04  0.10992676061E+04  0.12500582225E+03 0.  0.
          2    1    1    2  501    0  0.23732127546E+02 -0.10934820630E+03 -0.82031263292E+02  0.13874210700E+03  0.00000000000E+00 0. -1.
          1    1    1    2  502    0 -0.13528402704E+02  0.71727067233E+02  0.42212917792E+03  0.42839331543E+03  0.00000000000E+00 0. -1.
         22    1    3    3    0    0 -0.33820013965E+00 -0.24934750455E+02  0.82601206761E+03  0.82638840263E+03  0.00000000000E+00 0.  1.
         22    1    3    3    0    0 -0.98655247025E+01  0.62555889518E+02  0.26542888276E+03  0.27287920349E+03  0.00000000000E+00 0.  1.
</event>
<event>
 7    1  0.6122298E-006  0.3756339E+02  0.7818608E-02  0.1573878E+00
          2   -1    0    0  502    0  0.00000000000E+00  0.00000000000E+00  0.89869118900E+03  0.89869118900E+03  0.00000000000E+00 0. -1.
          1   -1    0    0  501    0 -0.00000000000E+00 -0.00000000000E+00 -0.62191770086E+02  0.62191770086E+02  0.00000000000E+00 0. -1.
         25    2    1    2    0    0 -0.53264579319E+02 -0.24812233806E+02  0.25660308047E+03  0.29141640142E+03  0.12500246299E+03 0.  0.
          2    1    1    2  501    0  0.37005953611E+02  0.22739585791E+01 -0.36744782209E+02  0.52199525954E+02  0.00000000000E+00 0. -1.
          1    1    1    2  502    0  0.16258625708E+02  0.22538275227E+02  0.61664112065E+03  0.61726703171E+03  0.00000000000E+00 0. -1.
         22    1    3    3    0    0 -0.92082369820E+02 -0.27675639008E+02  0.15257267267E+03  0.18034279656E+03  0.00000000000E+00 0.  1.
         22    1    3    3    0    0  0.38817790502E+02  0.28634052021E+01  0.10403040780E+03  0.11107360485E+03  0.00000000000E+00 0.  1.
</event>
<event>
 7    1  0.6122298E-006  0.1750058E+03  0.7818608E-02  0.1272281E+00
          2   -1    0    0  502    0  0.00000000000E+00  0.00000000000E+00  0.19174936173E+04  0.19174936173E+04  0.00000000000E+00 0. -1.
          1   -1    0    0  501    0 -0.00000000000E+00 -0.00000000000E+00 -0.32736857289E+03  0.32736857289E+03  0.00000000000E+00 0. -1.
         25    2    1    2    0    0  0.27024585516E+02 -0.22416528169E+03 -0.37854716839E+02  0.26084046597E+03  0.12499746944E+03 0.  0.
          2    1    1    2  501    0  0.22118155470E+02  0.57596539696E+02 -0.16835883478E+03  0.17930775620E+03  0.00000000000E+00 0. -1.
          1    1    1    2  502    0 -0.49142740986E+02  0.16656874199E+03  0.17963385960E+04  0.18047139680E+04  0.00000000000E+00 0. -1.
         22    1    3    3    0    0 -0.33411121229E+02 -0.34210032609E+02  0.22104431541E+02  0.52680501579E+02  0.00000000000E+00 0.  1.
         22    1    3    3    0    0  0.60435706745E+02 -0.18995524908E+03 -0.59959148379E+02  0.20815996439E+03  0.00000000000E+00 0.  1.
</event>
<event>
 7    1  0.6122298E-006  0.1757976E+03  0.7818608E-02  0.1251025E+00
          2   -1    0    0  502    0  0.00000000000E+00  0.00000000000E+00  0.64485199284E+03  0.64485199284E+03  0.00000000000E+00 0. -1.
          1   -1    0    0  501    0 -0.00000000000E+00 -0.00000000000E+00 -0.88067594266E+03  0.88067594266E+03  0.00000000000E+00 0. -1.
         25    2    1    2    0    0 -0.15465985952E+03 -0.15860006668E+02  0.30174287615E+03  0.36172671106E+03  0.12500495282E+03 0.  0.
          2    1    1    2  501    0  0.15128628538E+03  0.91431209450E+02 -0.83674223786E+03  0.85521037109E+03  0.00000000000E+00 0. -1.
          1    1    1    2  502    0  0.33735741394E+01 -0.75571202782E+02  0.29917541189E+03  0.30859085335E+03  0.00000000000E+00 0. -1.
         22    1    3    3    0    0 -0.14296680667E+03  0.35090887058E+02  0.22131149848E+03  0.26580003296E+03  0.00000000000E+00 0.  1.
         22    1    3    3    0    0 -0.11693052844E+02 -0.50950893726E+02  0.80431377673E+02  0.95926678097E+02  0.00000000000E+00 0.  1.
</event>
<event>
 7    1  0.6122298E-006  0.3886968E+02  0.7818608E-02  0.1617734E+00
          2   -1    0    0  502    0  0.00000000000E+00  0.00000000000E+00  0.99184795621E+03  0.99184795621E+03  0.00000000000E+00 0. -1.
          1   -1    0    0  501    0 -0.00000000000E+00 -0.00000000000E+00 -0.12382086846E+03  0.12382086846E+03  0.00000000000E+00 0. -1.
         25    2    1    2    0    0 -0.59538090406E+00  0.53255903314E+02  0.13074472761E+03  0.18856168539E+03  0.12499911873E+03 0.  0.
          2    1    1    2  501    0 -0.11730831245E+02 -0.36753548278E+02 -0.90858483868E+02  0.98710180851E+02  0.00000000000E+00 0. -1.
          1    1    1    2  502    0  0.12326212149E+02 -0.16502355036E+02  0.82814084401E+03  0.82839695843E+03  0.00000000000E+00 0. -1.
         22    1    3    3    0    0 -0.55640126170E+02  0.53996834339E+02  0.55593902464E+02  0.95405260599E+02  0.00000000000E+00 0. -1.
         22    1    3    3    0    0  0.55044745266E+02 -0.74093102471E+00  0.75150825142E+02  0.93156424791E+02  0.00000000000E+00 0. -1.
</event>
<event>
 7    1  0.6122298E-006  0.9082144E+02  0.7818608E-02  0.1355191E+00
          2   -1    0    0  502    0  0.00000000000E+00  0.00000000000E+00  0.38637365442E+03  0.38637365442E+03  0.00000000000E+00 0. -1.
          1   -1    0    0  501    0 -0.00000000000E+00 -0.00000000000E+00 -0.18091028006E+03  0.18091028006E+03  0.00000000000E+00 0. -1.
         25    2    1    2    0    0 -0.65367290789E+02 -0.13716048113E+02  0.18848423343E+03  0.23582182133E+03  0.12499844992E+03 0.  0.
          2    1    1    2  501    0  0.61855345877E+02  0.69835305110E+02 -0.13801319744E+03  0.16658540248E+03  0.00000000000E+00 0. -1.
          1    1    1    2  502    0  0.35119449121E+01 -0.56119256996E+02  0.15499233838E+03  0.16487671066E+03  0.00000000000E+00 0. -1.
         22    1    3    3    0    0 -0.55587569207E+02 -0.19917915311E+02  0.20629382332E+03  0.21457829047E+03  0.00000000000E+00 0.  1.
         22    1    3    3    0    0 -0.97797215825E+01  0.62018671978E+01 -0.17809589897E+02  0.21243530857E+02  0.00000000000E+00 0.  1.
</event>
<event>
 7    1  0.6122298E-006  0.1182050E+03  0.7818608E-02  0.1338055E+00
          2   -1    0    0  502    0  0.00000000000E+00  0.00000000000E+00  0.36989295521E+04  0.36989295521E+04  0.00000000000E+00 0. -1.
          1   -1    0    0  501    0 -0.00000000000E+00 -0.00000000000E+00 -0.61917430272E+03  0.61917430272E+03  0.00000000000E+00 0. -1.
         25    2    1    2    0    0  0.13284759056E+03 -0.29497116094E+02  0.14290998288E+04  0.14409965558E+04  0.12500476305E+03 0.  0.
          2    1    1    2  501    0 -0.18587723768E+02  0.46461765455E+02 -0.61072842279E+03  0.61277516720E+03  0.00000000000E+00 0. -1.
          1    1    1    2  502    0 -0.11425986679E+03 -0.16964649361E+02  0.22613838433E+04  0.22643321319E+04  0.00000000000E+00 0. -1.
         22    1    3    3    0    0  0.92122937144E+02  0.31387315654E+02  0.10752074993E+04  0.10796031520E+04  0.00000000000E+00 0. -1.
         22    1    3    3    0    0  0.40724653416E+02 -0.60884431748E+02  0.35389232950E+03  0.36139340380E+03  0.00000000000E+00 0. -1.
</event>
<event>
 7    1  0.6122298E-006  0.6700473E+02  0.7818608E-02  0.1415187E+00
          2   -1    0    0  502    0  0.00000000000E+00  0.00000000000E+00  0.42662891059E+02  0.42662891059E+02  0.00000000000E+00 0. -1.
          1   -1    0    0  501    0 -0.00000000000E+00 -0.00000000000E+00 -0.66632903907E+03  0.66632903907E+03  0.00000000000E+00 0. -1.
         25    2    1    2    0    0  0.30944001915E+02  0.36799149321E+02 -0.34067231308E+03  0.36605300793E+03  0.12500188428E+03 0.  0.
          2    1    1    2  501    0 -0.71661801323E+01 -0.77213095144E+02 -0.28563565220E+03  0.29597456311E+03  0.00000000000E+00 0. -1.
          1    1    1    2  502    0 -0.23777821783E+02  0.40413945823E+02  0.26418172680E+01  0.46964359085E+02  0.00000000000E+00 0. -1.
         22    1    3    3    0    0  0.57900157767E+02  0.63617217210E+02 -0.29130001877E+03  0.30373554210E+03  0.00000000000E+00 0.  1.
         22    1    3    3    0    0 -0.26956155852E+02 -0.26818067889E+02 -0.49372294304E+02  0.62317465838E+02  0.00000000000E+00 0.  1.
</event>
<event>
 7    1  0.6122298E-006  0.5569013E+02  0.7818608E-02  0.1562237E+00
          2   -1    0    0  502    0  0.00000000000E+00  0.00000000000E+00  0.77813677849E+03  0.77813677849E+03  0.00000000000E+00 0. -1.
          1   -1    0    0  501    0 -0.00000000000E+00 -0.00000000000E+00 -0.20624888757E+03  0.20624888757E+03  0.00000000000E+00 0. -1.
         25    2    1    2    0    0  0.16750127973E+02  0.32756638335E+02  0.83545624434E+02  0.15478631023E+03  0.12500146531E+03 0.  0.
          2    1    1    2  501    0  0.14200018766E+02  0.14316949153E+02 -0.16882336051E+03  0.17002335905E+03  0.00000000000E+00 0. -1.
          1    1    1    2  502    0 -0.30950146738E+02 -0.47073587487E+02  0.65716562700E+03  0.65957599679E+03  0.00000000000E+00 0. -1.
         22    1    3    3    0    0  0.11552924634E+02  0.74263126578E+02  0.84314374454E+02  0.11294864221E+03  0.00000000000E+00 0. -1.
         22    1    3    3    0    0  0.51972033390E+01 -0.41506488243E+02 -0.76875001966E+00  0.41837668021E+02  0.00000000000E+00 0. -1.
</event>
<event>
 7    1  0.6122298E-006  0.2151841E+03  0.7818608E-02  0.1250092E+00
          2   -1    0    0  502    0  0.00000000000E+00  0.00000000000E+00  0.62225583654E+03  0.62225583654E+03  0.00000000000E+00 0. -1.
          1   -1    0    0  501    0 -0.00000000000E+00 -0.00000000000E+00 -0.21280608340E+04  0.21280608340E+04  0.00000000000E+00 0. -1.
         25    2    1    2    0    0 -0.11790591762E+03 -0.14419676043E+03 -0.51484508350E+03  0.56159139457E+03  0.12499969328E+03 0.  0.
          2    1    1    2  501    0  0.17993661208E+03  0.13761775684E+03 -0.15801183829E+04  0.15962737658E+04  0.00000000000E+00 0. -1.
          1    1    1    2  502    0 -0.62030694456E+02  0.65790035889E+01  0.58915846896E+03  0.59245151016E+03  0.00000000000E+00 0. -1.
         22    1    3    3    0    0 -0.73942298001E+02 -0.27743581669E+02 -0.32587797185E+03  0.33531123199E+03  0.00000000000E+00 0.  1.
         22    1    3    3    0    0 -0.43963619624E+02 -0.11645317876E+03 -0.18896711165E+03  0.22628016258E+03  0.00000000000E+00 0.  1.
</event>
<event>
 7    1  0.6122298E-006  0.6679264E+02  0.7818608E-02  0.1528211E+00
          2   -1    0    0  502    0  0.00000000000E+00  0.00000000000E+00  0.21086598079E+03  0.21086598079E+03  0.00000000000E+00 0. -1.
          1   -1    0    0  501    0 -0.00000000000E+00 -0.00000000000E+00 -0.41803104814E+03  0.41803104814E+03  0.00000000000E+00 0. -1.
         25    2    1    2    0    0 -0.22384652431E+02 -0.82958059021E+02  0.49804244126E+02  0.15965169861E+03  0.12500035966E+03 0.  0.
          2    1    1    2  501    0  0.11088016688E+02  0.65315389135E+02 -0.35901244550E+03  0.36507393799E+03  0.00000000000E+00 0. -1.
          1    1    1    2  502    0  0.11296635742E+02  0.17642669886E+02  0.10204313402E+03  0.10417139233E+03  0.00000000000E+00 0. -1.
         22    1    3    3    0    0 -0.23939903967E+02 -0.86320435318E+02 -0.18314984557E+02  0.91431806362E+02  0.00000000000E+00 0. -1.
         22    1    3    3    0    0  0.15552515363E+01  0.33623762967E+01  0.68119228682E+02  0.68219892245E+02  0.00000000000E+00 0. -1.
</event>
<event>
 7    1  0.6122298E-006  0.1605876E+03  0.7818608E-02  0.1306318E+00
          2   -1    0    0  502    0  0.00000000000E+00  0.00000000000E+00  0.16402896148E+03  0.16402896148E+03  0.00000000000E+00 0. -1.
          1   -1    0    0  501    0 -0.00000000000E+00 -0.00000000000E+00 -0.16045883540E+04  0.16045883540E+04  0.00000000000E+00 0. -1.
         25    2    1    2    0    0  0.81440427056E+02 -0.92654180326E+02 -0.76355355016E+03  0.78349010866E+03  0.12500154440E+03 0.  0.
          2    1    1    2  501    0  0.48572661378E+02 -0.53358323642E+01 -0.78708487574E+03  0.78860026386E+03  0.00000000000E+00 0. -1.
          1    1    1    2  502    0 -0.13001308843E+03  0.97990012691E+02  0.11007903334E+03  0.19652694302E+03  0.00000000000E+00 0. -1.
         22    1    3    3    0    0 -0.10500001918E+02 -0.15630168731E+02 -0.40440803711E+03  0.40484615929E+03  0.00000000000E+00 0.  1.
         22    1    3    3    0    0  0.91940428974E+02 -0.77024011596E+02 -0.35914551306E+03  0.37864394936E+03  0.00000000000E+00 0.  1.
</event>
<event>
 7    1  0.6122298E-006  0.1365438E+03  0.7818608E-02  0.1337139E+00
          2   -1    0    0  502    0  0.00000000000E+00  0.00000000000E+00  0.14270560260E+04  0.14270560260E+04  0.00000000000E+00 0. -1.
          1   -1    0    0  501    0 -0.00000000000E+00 -0.00000000000E+00 -0.14638925320E+04  0.14638925320E+04  0.00000000000E+00 0. -1.
         25    2    1    2    0    0 -0.14920917339E+03 -0.29609816700E+02  0.13997148209E+03  0.24157251935E+03  0.12500059055E+03 0.  0.
          2    1    1    2  501    0  0.13585225833E+03 -0.11964632952E+02 -0.14094140068E+04  0.14159967624E+04  0.00000000000E+00 0. -1.
          1    1    1    2  502    0  0.13356915053E+02  0.41574449652E+02  0.12326060186E+04  0.12333792763E+04  0.00000000000E+00 0. -1.
         22    1    3    3    0    0 -0.11532114800E+02  0.97277318022E+01 -0.21176358705E+02  0.26001088550E+02  0.00000000000E+00 0. -1.
         22    1    3    3    0    0 -0.13767705859E+03 -0.39337548503E+02  0.16114784080E+03  0.21557143080E+03  0.00000000000E+00 0. -1.
</event>
<event>
 7    1  0.6122298E-006  0.5177442E+02  0.7818608E-02  0.1455992E+00
          2   -1    0    0  502    0  0.00000000000E+00  0.00000000000E+00  0.53829946927E+03  0.53829946927E+03  0.00000000000E+00 0. -1.
          1   -1    0    0  501    0 -0.00000000000E+00 -0.00000000000E+00 -0.12493284387E+04  0.12493284387E+04  0.00000000000E+00 0. -1.
         25    2    1    2    0    0  0.73008493699E+01  0.90887374266E+02  0.30133122992E+03  0.33873231824E+03  0.12500102438E+03 0.  0.
          2    1    1    2  501    0 -0.39611005014E+01 -0.44469535788E+02 -0.12277368993E+04  0.12285483808E+04  0.00000000000E+00 0. -1.
          1    1    1    2  502    0 -0.33397488685E+01 -0.46417838478E+02  0.21537669992E+03  0.22034720901E+03  0.00000000000E+00 0. -1.
         22    1    3    3    0    0 -0.41381987417E+02  0.79668733920E+02  0.11540925411E+03  0.14621515647E+03  0.00000000000E+00 0. -1.
         22    1    3    3    0    0  0.48682836787E+02  0.11218640346E+02  0.18592197581E+03  0.19251716177E+03  0.00000000000E+00 0. -1.
</event>
<event>
 7    1  0.6122298E-006  0.5665383E+02  0.7818608E-02  0.1528785E+00
          2   -1    0    0  502    0  0.00000000000E+00  0.00000000000E+00  0.13957719548E+04  0.13957719548E+04  0.00000000000E+00 0. -1.
          1   -1    0    0  501    0 -0.00000000000E+00 -0.00000000000E+00 -0.11502678677E+04  0.11502678677E+04  0.00000000000E+00 0. -1.
         25    2    1    2    0    0 -0.24344777917E+02  0.34116284277E+02  0.40574823930E+03  0.42663156786E+03  0.12500508765E+03 0.  0.
          2    1    1    2  501    0  0.48486292035E+02 -0.29363582130E+02 -0.11389667481E+04  0.11403764264E+04  0.00000000000E+00 0. -1.
          1    1    1    2  502    0 -0.24141514119E+02 -0.47527021470E+01  0.97872259599E+03  0.97903182828E+03  0.00000000000E+00 0. -1.
         22    1    3    3    0    0  0.23864757336E+02  0.48784848143E+02  0.78075212565E+02  0.95106397619E+02  0.00000000000E+00 0.  1.
         22    1    3    3    0    0 -0.48209535253E+02 -0.14668563866E+02  0.32767302674E+03  0.33152517024E+03  0.00000000000E+00 0.  1.
</event>
<event>
 7    1  0.6122298E-006  0.7616598E+02  0.7818608E-02  0.1487214E+00
          2   -1    0    0  502    0  0.00000000000E+00  0.00000000000E+00  0.26890600720E+04  0.26890600720E+04  0.00000000000E+00 0. -1.
          1   -1    0    0  501    0 -0.00000000000E+00 -0.00000000000E+00 -0.17350942173E+04  0.17350942173E+04  0.00000000000E+00 0. -1.
         25    2    1    2    0    0  0.47797268313E+02  0.43302291636E+02 -0.72927953677E+02  0.15843928949E+03  0.12499941883E+03 0.  0.
          2    1    1    2  501    0  0.21438893657E+02 -0.11393256431E+02 -0.16187704993E+04  0.16189525508E+04  0.00000000000E+00 0. -1.
          1    1    1    2  502    0 -0.69236161970E+02 -0.31909035205E+02  0.26456643076E+04  0.26467624490E+04  0.00000000000E+00 0. -1.
         22    1    3    3    0    0  0.53579140127E+02 -0.29468954504E+02 -0.97995777438E+01  0.61928791852E+02  0.00000000000E+00 0. -1.
         22    1    3    3    0    0 -0.57818718134E+01  0.72771246140E+02 -0.63128375933E+02  0.96510497638E+02  0.00000000000E+00 0. -1.
</event>
<event>
 7    1  0.6122298E-006  0.9742479E+02  0.7818608E-02  0.1342465E+00
          2   -1    0    0  502    0  0.00000000000E+00  0.00000000000E+00  0.42192247329E+04  0.42192247329E+04  0.00000000000E+00 0. -1.
          1   -1    0    0  501    0 -0.00000000000E+00 -0.00000000000E+00 -0.30882888673E+02  0.30882888673E+02  0.00000000000E+00 0. -1.
         25    2    1    2    0    0  0.10226147665E+03 -0.41753175887E+02  0.18542571391E+04  0.18617459145E+04  0.12501030036E+03 0.  0.
          2    1    1    2  501    0 -0.96176573863E+02 -0.16370304900E+02  0.62147431200E+02  0.11567291579E+03  0.00000000000E+00 0. -1.
          1    1    1    2  502    0 -0.60849027908E+01  0.58123480787E+02  0.22719372740E+04  0.22726887913E+04  0.00000000000E+00 0. -1.
         22    1    3    3    0    0  0.62892472845E+02 -0.48120538876E+02  0.44946551829E+03  0.45638832317E+03  0.00000000000E+00 0. -1.
         22    1    3    3    0    0  0.39369003809E+02  0.63673629886E+01  0.14047916208E+04  0.14053575914E+04  0.00000000000E+00 0. -1.
</event>
<event>
 7    1  0.6122298E-006  0.9642380E+02  0.7818608E-02  0.1351791E+00
          2   -1    0    0  502    0  0.00000000000E+00  0.00000000000E+00  0.38134539702E+03  0.38134539702E+03  0.00000000000E+00 0. -1.
          1   -1    0    0  501    0 -0.00000000000E+00 -0.00000000000E+00 -0.19727161768E+04  0.19727161768E+04  0.00000000000E+00 0. -1.
         25    2    1    2    0    0 -0.56220639474E+02  0.90732495235E+00 -0.10758947056E+04  0.10845903609E+04  0.12500099942E+03 0.  0.
          2    1    1    2  501    0 -0.27850990909E+02  0.46860898954E+02 -0.88542137818E+03  0.88709787424E+03  0.00000000000E+00 0. -1.
          1    1    1    2  502    0  0.84071630382E+02 -0.47768223906E+02  0.36994530395E+03  0.38237333873E+03  0.00000000000E+00 0. -1.
         22    1    3    3    0    0 -0.51243520667E+02 -0.45653957330E+02 -0.32149833030E+03  0.32874208525E+03  0.00000000000E+00 0. -1.
         22    1    3    3    0    0 -0.49771188068E+01  0.46561282282E+02 -0.75439637527E+03  0.75584827561E+03  0.00000000000E+00 0. -1.
</event>
<event>
 7    1  0.6122298E-006  0.1404610E+03  0.7818608E-02  0.1382774E+00
          2   -1    0    0  502    0  0.00000000000E+00  0.00000000000E+00  0.16281873561E+04  0.16281873561E+04  0.00000000000E+00 0. -1.
          1   -1    0    0  501    0 -0.00000000000E+00 -0.00000000000E+00 -0.28828932783E+03  0.28828932783E+03  0.00000000000E+00 0. -1.
         25    2    1    2    0    0 -0.11520117841E+03 -0.53696866889E+02  0.39162655373E+03  0.43029141385E+03  0.12499871292E+03 0.  0.
          2    1    1    2  501    0 -0.25146387462E+01 -0.28815382828E+02 -0.26391965143E+03  0.26549996630E+03  0.00000000000E+00 0. -1.
          1    1    1    2  502    0  0.11771581716E+03  0.82512249716E+02  0.12121911259E+04  0.12206853037E+04  0.00000000000E+00 0. -1.
         22    1    3    3    0    0 -0.87437955331E+02  0.18166997420E+02  0.13121054083E+03  0.15871875079E+03  0.00000000000E+00 0. -1.
         22    1    3    3    0    0 -0.27763223080E+02 -0.71863864309E+02  0.26041601290E+03  0.27157266307E+03  0.00000000000E+00 0. -1.
</event>
<event>
 7    1  0.6122298E-006  0.1356804E+03  0.7818608E-02  0.1244660E+00
          2   -1    0    0  502    0  0.00000000000E+00  0.00000000000E+00  0.11902124774E+03  0.11902124774E+03  0.00000000000E+00 0. -1.
          1   -1    0    0  501    0 -0.00000000000E+00 -0.00000000000E+00 -0.15495257662E+04  0.15495257662E+04  0.00000000000E+00 0. -1.
         25    2    1    2    0    0  0.11193054194E+03  0.99985508799E+02 -0.45471577022E+03  0.49489082739E+03  0.12499980464E+03 0.  0.
          2    1    1    2  501    0 -0.13967635390E+03  0.73388919291E+00 -0.10411143240E+04  0.10504423154E+04  0.00000000000E+00 0. -1.
          1    1    1    2  502    0  0.27745811957E+02 -0.10071939799E+03  0.65325575689E+02  0.12321387118E+03  0.00000000000E+00 0. -1.
         22    1    3    3    0    0  0.67946633558E+02  0.52533483118E+02 -0.40302969809E+03  0.41207942123E+03  0.00000000000E+00 0.  1.
         22    1    3    3    0    0  0.43983908383E+02  0.47452025681E+02 -0.51686072129E+02  0.82811406159E+02  0.00000000000E+00 0.  1.
</event>
<event>
 7    1  0.6122298E-006  0.8664090E+02  0.7818608E-02  0.1386401E+00
          2   -1    0    0  502    0  0.00000000000E+00  0.00000000000E+00  0.46240979921E+03  0.46240979921E+03  0.00000000000E+00 0. -1.
          1   -1    0    0  501    0 -0.00000000000E+00 -0.00000000000E+00 -0.10788066745E+04  0.10788066745E+04  0.00000000000E+00 0. -1.
         25    2    1    2    0    0  0.12255669456E+03  0.37441974126E+02 -0.59122295311E+02  0.18852514898E+03  0.12499696471E+03 0.  0.
          2    1    1    2  501    0 -0.84556807294E+02 -0.12353090268E+02 -0.95175898304E+03  0.95558757542E+03  0.00000000000E+00 0. -1.
          1    1    1    2  502    0 -0.37999887270E+02 -0.25088883858E+02  0.39448440301E+03  0.39710374935E+03  0.00000000000E+00 0. -1.
         22    1    3    3    0    0  0.79491539117E+02 -0.39879227303E+02 -0.17152784299E+02  0.90573039976E+02  0.00000000000E+00 0.  1.
         22    1    3    3    0    0  0.43065155448E+02  0.77321201429E+02 -0.41969511013E+02  0.97952109006E+02  0.00000000000E+00 0.  1.
</event>
<event>
 7    1  0.6122298E-006  0.3117490E+03  0.7818608E-02  0.1190559E+00
          2   -1    0    0  502    0  0.00000000000E+00  0.00000000000E+00  0.55571262988E+03  0.55571262988E+03  0.00000000000E+00 0. -1.
          1   -1    0    0  501    0 -0.00000000000E+00 -0.00000000000E+00 -0.14810344060E+04  0.14810344060E+04  0.00000000000E+00 0. -1.
         25    2    1    2    0    0 -0.90181647540E+02 -0.27537883874E+03 -0.91776087203E+03  0.97050222731E+03  0.12499328226E+03 0.  0.
          2    1    1    2  501    0 -0.79536425147E+02  0.12051980106E+02 -0.48695966449E+03  0.49355952831E+03  0.00000000000E+00 0. -1.
          1    1    1    2  502    0  0.16971807269E+03  0.26332685863E+03  0.47939876044E+03  0.57268528022E+03  0.00000000000E+00 0. -1.
         22    1    3    3    0    0 -0.88373238984E+02 -0.24129593156E+03 -0.89045658434E+03  0.92679365802E+03  0.00000000000E+00 0. -1.
         22    1    3    3    0    0 -0.18084085562E+01 -0.34082907175E+02 -0.27304287692E+02  0.43708569291E+02  0.00000000000E+00 0. -1.
</event>
<event>
 7    1  0.6122298E-006  0.7927193E+02  0.7818608E-02  0.1335800E+00
          2   -1    0    0  502    0  0.00000000000E+00  0.00000000000E+00  0.33392994555E+03  0.33392994555E+03  0.00000000000E+00 0. -1.
          1   -1    0    0  501    0 -0.00000000000E+00 -0.00000000000E+00 -0.19319767148E+04  0.19319767148E+04  0.00000000000E+00 0. -1.
         25    2    1    2    0    0 -0.42435498532E+02 -0.90971240963E+01  0.10994295094E+03  0.17203435704E+03  0.12499935335E+03 0.  0.
          2    1    1    2  501    0  0.11827318676E+02  0.78768670484E+02 -0.18925570325E+04  0.18942324330E+04  0.00000000000E+00 0. -1.
          1    1    1    2  502    0  0.30608179856E+02 -0.69671546388E+02  0.18456731231E+03  0.19963987032E+03  0.00000000000E+00 0. -1.
         22    1    3    3    0    0 -0.31849791212E+02 -0.51950014304E+02  0.86572164420E+01  0.61548034761E+02  0.00000000000E+00 0. -1.
         22    1    3    3    0    0 -0.10585707320E+02  0.42852890208E+02  0.10128573449E+03  0.11048632228E+03  0.00000000000E+00 0. -1.
</event>
<event>
 7    1  0.6122298E-006  0.3823546E+02  0.7818608E-02  0.1562108E+00
          2   -1    0    0  502    0  0.00000000000E+00  0.00000000000E+00  0.26279118928E+03  0.26279118928E+03  0.00000000000E+00 0. -1.
          1   -1    0    0  501    0 -0.00000000000E+00 -0.00000000000E+00 -0.32124763031E+03  0.32124763031E+03  0.00000000000E+00 0. -1.
         25    2    1    2    0    0 -0.27106315539E+01  0.31615099706E+02  0.18300111940E+03  0.22387714350E+03  0.12499881451E+03 0.  0.
          2    1    1    2  501    0 -0.29304520552E+02 -0.22909936713E+01 -0.29203252612E+03  0.29350809169E+03  0.00000000000E+00 0. -1.
          1    1    1    2  502    0  0.32015152106E+02 -0.29324106034E+02  0.50574965693E+02  0.66653584404E+02  0.00000000000E+00 0. -1.
         22    1    3    3    0    0 -0.11204534801E+02 -0.10298434074E+02  0.18039125099E+03  0.18103204904E+03  0.00000000000E+00 0. -1.
         22    1    3    3    0    0  0.84939032466E+01  0.41913533779E+02  0.26098684037E+01  0.42845094460E+02  0.00000000000E+00 0. -1.
</event>
<event>
 7    1  0.6122298E-006  0.5687632E+02  0.7818608E-02  0.1502667E+00
          2   -1    0    0  502    0  0.00000000000E+00  0.00000000000E+00  0.16726619439E+04  0.16726619439E+04  0.00000000000E+00 0. -1.
          1   -1    0    0  501    0 -0.00000000000E+00 -0.00000000000E+00 -0.17197165292E+03  0.17197165292E+03  0.00000000000E+00 0. -1.
         25    2    1    2    0    0  0.36636918372E+02  0.60518696910E+02  0.60484781800E+00  0.14363107617E+03  0.12499897494E+03 0.  0.
          2    1    1    2  501    0 -0.78804566426E+01 -0.55360788509E+02 -0.92532560513E+02  0.10811657253E+03  0.00000000000E+00 0. -1.
          1    1    1    2  502    0 -0.28756461729E+02 -0.51579084011E+01  0.15926180036E+04  0.15928859481E+04  0.00000000000E+00 0. -1.
         22    1    3    3    0    0  0.13889823230E+02  0.66518476005E+02  0.53012451410E+02  0.86185583736E+02  0.00000000000E+00 0. -1.
         22    1    3    3    0    0  0.22747095141E+02 -0.59997790958E+01 -0.52407603592E+02  0.57445492432E+02  0.00000000000E+00 0. -1.
</event>
<event>
 7    1  0.6122298E-006  0.1275229E+03  0.7818608E-02  0.1390770E+00
          2   -1    0    0  502    0  0.00000000000E+00  0.00000000000E+00  0.65163162320E+03  0.65163162320E+03  0.00000000000E+00 0. -1.
          1   -1    0    0  501    0 -0.00000000000E+00 -0.00000000000E+00 -0.46300831696E+04  0.46300831696E+04  0.00000000000E+00 0. -1.
         25    2    1    2    0    0 -0.15347073840E+03 -0.22826534491E+01 -0.17157937421E+03  0.26195657515E+03  0.12499315004E+03 0.  0.
          2    1    1    2  501    0  0.12656280001E+03 -0.10680587456E+02 -0.44120329737E+04  0.44138608019E+04  0.00000000000E+00 0. -1.
          1    1    1    2  502    0  0.26907938389E+02  0.12963240905E+02  0.60516080151E+03  0.60589741578E+03  0.00000000000E+00 0. -1.
         22    1    3    3    0    0 -0.37216660460E+02 -0.46636546092E+02 -0.14202544837E+02  0.61333184550E+02  0.00000000000E+00 0.  1.
         22    1    3    3    0    0 -0.11625407794E+03  0.44353892643E+02 -0.15737682938E+03  0.20062339060E+03  0.00000000000E+00 0.  1.
</event>
<event>
 7    1  0.6122298E-006  0.1822705E+03  0.7818608E-02  0.1341039E+00
          2   -1    0    0  502    0  0.00000000000E+00  0.00000000000E+00  0.61226877998E+03  0.61226877998E+03  0.00000000000E+00 0. -1.
          1   -1    0    0  501    0 -0.00000000000E+00 -0.00000000000E+00 -0.49959407310E+03  0.49959407310E+03  0.00000000000E+00 0. -1.
         25    2    1    2    0    0 -0.15113942898E+03 -0.52874683047E+02  0.22200380799E+03  0.30091141397E+03  0.12499251658E+03 0.  0.
          2    1    1    2  501    0  0.16495044787E+03  0.81323617444E+02 -0.44098200711E+03  0.47779421470E+03  0.00000000000E+00 0. -1.
          1    1    1    2  502    0 -0.13811018895E+02 -0.28448934398E+02  0.33165290600E+03  0.33315722440E+03  0.00000000000E+00 0. -1.
         22    1    3    3    0    0 -0.30781374698E+02  0.24784527872E+02  0.11647736005E+03  0.12299894818E+03  0.00000000000E+00 0.  1.
         22    1    3    3    0    0 -0.12035805428E+03 -0.77659210918E+02  0.10552644794E+03  0.17791246579E+03  0.00000000000E+00 0.  1.
</event>
<event>
 7    1  0.6122298E-006  0.1520685E+03  0.7818608E-02  0.1336372E+00
          2   -1    0    0  502    0  0.00000000000E+00  0.00000000000E+00  0.27547237232E+04  0.27547237232E+04  0.00000000000E+00 0. -1.
          1   -1    0    0  501    0 -0.00000000000E+00 -0.00000000000E+00 -0.14492978094E+03  0.14492978094E+03  0.00000000000E+00 0. -1.
         25    2    1    2    0    0 -0.88507156389E+02 -0.12586556074E+03  0.31103624968E+03  0.36885041417E+03  0.12502569058E+03 0.  0.
          2    1    1    2  501    0 -0.28028168637E+02  0.27793192398E+02 -0.11018929173E+03  0.11704580212E+03  0.00000000000E+00 0. -1.
          1    1    1    2  502    0  0.11653532503E+03  0.98072368346E+02  0.24089469843E+04  0.24137572878E+04  0.00000000000E+00 0. -1.
         22    1    3    3    0    0 -0.66981632390E+02 -0.60196903318E+02  0.59363456290E+02  0.10786207021E+03  0.00000000000E+00 0. -1.
         22    1    3    3    0    0 -0.21525523999E+02 -0.65668657426E+02  0.25167279339E+03  0.26098834396E+03  0.00000000000E+00 0. -1.
</event>
<event>
 7    1  0.6122298E-006  0.1735698E+03  0.7818608E-02  0.1307720E+00
          2   -1    0    0  502    0  0.00000000000E+00  0.00000000000E+00  0.14749878554E+04  0.14749878554E+04  0.00000000000E+00 0. -1.
          1   -1    0    0  501    0 -0.00000000000E+00 -0.00000000000E+00 -0.23501698700E+03  0.23501698700E+03  0.00000000000E+00 0. -1.
         25    2    1    2    0    0 -0.41526120311E+02 -0.19401587381E+03  0.71221817085E+02  0.24507954126E+03  0.12499942544E+03 0.  0.
          2    1    1    2  501    0  0.62157801298E+01  0.16671139028E+03 -0.10058666000E+03  0.19480503008E+03  0.00000000000E+00 0. -1.
          1    1    1    2  502    0  0.35310340181E+02  0.27304483523E+02  0.12693357113E+04  0.12701202710E+04  0.00000000000E+00 0. -1.
         22    1    3    3    0    0 -0.54771648762E+02 -0.10207971876E+03  0.94295107511E+02  0.14937124821E+03  0.00000000000E+00 0. -1.
         22    1    3    3    0    0  0.13245528451E+02 -0.91936155043E+02 -0.23073290427E+02  0.95708293053E+02  0.00000000000E+00 0. -1.
</event>
<event>
 7    1  0.6122298E-006  0.1451894E+03  0.7818608E-02  0.1369740E+00
          2   -1    0    0  502    0  0.00000000000E+00  0.00000000000E+00  0.15885308138E+04  0.15885308138E+04  0.00000000000E+00 0. -1.
          1   -1    0    0  501    0 -0.00000000000E+00 -0.00000000000E+00 -0.38038666815E+02  0.38038666815E+02  0.00000000000E+00 0. -1.
         25    2    1    2    0    0  0.35951579896E+02 -0.14475545190E+03  0.10910862521E+04  0.11083051488E+04  0.12499774536E+03 0.  0.
          2    1    1    2  501    0 -0.63547756452E+02  0.13032878982E+03  0.15491475654E+03  0.21218504329E+03  0.00000000000E+00 0. -1.
          1    1    1    2  502    0  0.27596176556E+02  0.14426662085E+02  0.30449113834E+03  0.30607928853E+03  0.00000000000E+00 0. -1.
         22    1    3    3    0    0  0.57343766022E+01  0.22888225729E+02  0.16560181625E+03  0.16727437191E+03  0.00000000000E+00 0.  1.
         22    1    3    3    0    0  0.30217203294E+02 -0.16764367763E+03  0.92548443582E+03  0.94103077684E+03  0.00000000000E+00 0.  1.
</event>
<event>
 7    1  0.6122298E-006  0.1308939E+03  0.7818608E-02  0.1318466E+00
          2   -1    0    0  502    0  0.00000000000E+00  0.00000000000E+00  0.18557718813E+03  0.18557718813E+03  0.00000000000E+00 0. -1.
          1   -1    0    0  501    0 -0.00000000000E+00 -0.00000000000E+00 -0.72472058434E+03  0.72472058434E+03  0.00000000000E+00 0. -1.
         25    2    1    2    0    0  0.12612519425E+03  0.33711847809E+02 -0.89552861181E+02  0.20171408689E+03  0.12499921838E+03 0.  0.
          2    1    1    2  501    0  0.54743738205E+01 -0.53435221122E+02 -0.54322400410E+03  0.54587325475E+03  0.00000000000E+00 0. -1.
          1    1    1    2  502    0 -0.13159956807E+03  0.19723373313E+02  0.93633469075E+02  0.16271043083E+03  0.00000000000E+00 0. -1.
         22    1    3    3    0    0 -0.34188463720E+01  0.46427495787E+02 -0.57578750208E+01  0.46907931102E+02  0.00000000000E+00 0.  1.
         22    1    3    3    0    0  0.12954404062E+03 -0.12715647978E+02 -0.83794986160E+02  0.15480615579E+03  0.00000000000E+00 0.  1.
</event>
<event>
 7    1  0.6122298E-006  0.5775296E+02  0.7818608E-02  0.1469005E+00
          2   -1    0    0  502    0  0.00000000000E+00  0.00000000000E+00  0.12397946612E+04  0.12397946612E+04  0.00000000000E+00 0. -1.
          1   -1    0    0  501    0 -0.00000000000E+00 -0.00000000000E+00 -0.17031506750E+03  0.17031506750E+03  0.00000000000E+00 0. -1.
         25    2    1    2    0    0  0.16465500253E+02  0.14405664833E+02  0.50070230538E+01  0.12699989463E+03  0.12500106831E+03 0.  0.
          2    1    1    2  501    0  0.23930298124E+02  0.27462876561E+02 -0.10554123681E+03  0.11165044301E+03  0.00000000000E+00 0. -1.
          1    1    1    2  502    0 -0.40395798377E+02 -0.41868541394E+02  0.11700138074E+04  0.11714593910E+04  0.00000000000E+00 0. -1.
         22    1    3    3    0    0 -0.11379840698E+01 -0.51504752528E+02 -0.18656872379E+02  0.54791545221E+02  0.00000000000E+00 0.  1.
         22    1    3    3    0    0  0.17603484323E+02  0.65910417361E+02  0.23663895432E+02  0.72208349407E+02  0.00000000000E+00 0.  1.
</event>
<event>
 7    1  0.6122298E-006  0.5963328E+02  0.7818608E-02  0.1427861E+00
          2   -1    0    0  502    0  0.00000000000E+00  0.00000000000E+00  0.49129068665E+03  0.49129068665E+03  0.00000000000E+00 0. -1.
          1   -1    0    0  501    0 -0.00000000000E+00 -0.00000000000E+00 -0.13496740181E+04  0.13496740181E+04  0.00000000000E+00 0. -1.
         25    2    1    2    0    0  0.60063773970E+01 -0.49829480466E+02  0.82106353279E+02  0.15775016542E+03  0.12499843098E+03 0.  0.
          2    1    1    2  501    0  0.41335427097E+02  0.43201058931E+02 -0.13096288235E+04  0.13109929841E+04  0.00000000000E+00 0. -1.
          1    1    1    2  502    0 -0.47341804494E+02  0.66284215353E+01  0.36913913876E+03  0.37222155524E+03  0.00000000000E+00 0. -1.
         22    1    3    3    0    0 -0.51321359715E+02 -0.25698995407E+02  0.34873922501E+01  0.57502019379E+02  0.00000000000E+00 0.  1.
         22    1    3    3    0    0  0.57327737112E+02 -0.24130485059E+02  0.78618961029E+02  0.10024814604E+03  0.00000000000E+00 0.  1.
</event>
<event>
 7    1  0.6122298E-006  0.6914757E+02  0.7818608E-02  0.1506715E+00
          2   -1    0    0  502    0  0.00000000000E+00  0.00000000000E+00  0.39971381980E+04  0.39971381980E+04  0.00000000000E+00 0. -1.
          1   -1    0    0  501    0 -0.00000000000E+00 -0.00000000000E+00 -0.21617293794E+02  0.21617293794E+02  0.00000000000E+00 0. -1.
         25    2    1    2    0    0 -0.51066408604E+02 -0.21212790184E+02  0.54615198973E+03  0.56299823464E+03  0.12500902276E+03 0.  0.
          2    1    1    2  501    0 -0.28149459738E+01 -0.23205484254E+02 -0.21991167577E+01  0.23478810337E+02  0.00000000000E+00 0. -1.
          1    1    1    2  502    0  0.53881354578E+02  0.44418274438E+02  0.34315680313E+04  0.34322784468E+04  0.00000000000E+00 0. -1.
         22    1    3    3    0    0  0.41129434922E+02  0.33778285723E+01  0.16738538249E+03  0.17239752439E+03  0.00000000000E+00 0.  1.
         22    1    3    3    0    0 -0.92195843526E+02 -0.24590618756E+02  0.37876660724E+03  0.39060071026E+03  0.00000000000E+00 0.  1.
</event>
<event>
 7    1  0.6122298E-006  0.1695871E+03  0.7818608E-02  0.1214277E+00
          2   -1    0    0  502    0  0.00000000000E+00  0.00000000000E+00  0.15708237757E+04  0.15708237757E+04  0.00000000000E+00 0. -1.
          1   -1    0    0  501    0 -0.00000000000E+00 -0.00000000000E+00 -0.46969968663E+03  0.46969968663E+03  0.00000000000E+00 0. -1.
         25    2    1    2    0    0  0.18531111494E+03  0.12870079743E+03  0.77975098741E+03  0.82130408995E+03  0.12499880490E+03 0.  0.
          2    1    1    2  501    0 -0.11407991479E+03  0.87892980313E+01 -0.43364519268E+03  0.44848593272E+03  0.00000000000E+00 0. -1.
          1    1    1    2  502    0 -0.71231200155E+02 -0.13749009546E+03  0.75501829434E+03  0.77073343967E+03  0.00000000000E+00 0. -1.
         22    1    3    3    0    0 -0.16300755335E+02  0.34271170007E+01  0.98204881250E+02  0.99607522090E+02  0.00000000000E+00 0.  1.
         22    1    3    3    0    0  0.20161187027E+03  0.12527368042E+03  0.68154610616E+03  0.72169656786E+03  0.00000000000E+00 0.  1.
</event>
<event>
 7    1  0.6122298E-006  0.1126686E+03  0.7818608E-02  0.1275469E+00
          2   -1    0    0  502    0  0.00000000000E+00  0.00000000000E+00  0.10310115090E+04  0.10310115090E+04  0.00000000000E+00 0. -1.
          1   -1    0    0  501    0 -0.00000000000E+00 -0.00000000000E+00 -0.54598091248E+03  0.54598091248E+03  0.00000000000E+00 0. -1.
         25    2    1    2    0    0  0.97310866528E+02  0.17547769807E+03  0.10542656691E+03  0.25884719341E+03  0.12500112504E+03 0.  0.
          2    1    1    2  501    0 -0.64801440605E+02 -0.88406318355E+02 -0.46027112463E+03  0.47314312000E+03  0.00000000000E+00 0. -1.
          1    1    1    2  502    0 -0.32509425923E+02 -0.87071379713E+02  0.83987515423E+03  0.84500210806E+03  0.00000000000E+00 0. -1.
         22    1    3    3    0    0  0.10616796186E+01  0.10494286777E+03  0.90518518298E+02  0.13859197240E+03  0.00000000000E+00 0.  1.
         22    1    3    3    0    0  0.96249186909E+02  0.70534830302E+02  0.14908048609E+02  0.12025522101E+03  0.00000000000E+00 0.  1.
</event>
<event>
 7    1  0.6122298E-006  0.7175972E+02  0.7818608E-02  0.1414484E+00
          2   -1    0    0  502    0  0.00000000000E+00  0.00000000000E+00  0.22166247599E+04  0.22166247599E+04  0.00000000000E+00 0. -1.
          1   -1    0    0  501    0 -0.00000000000E+00 -0.00000000000E+00 -0.52385405868E+02  0.52385405868E+02  0.00000000000E+00 0. -1.
         25    2    1    2    0    0 -0.15922587026E+02 -0.97339362907E+02  0.66109954741E+03  0.68000483947E+03  0.12500195909E+03 0.  0.
          2    1    1    2  501    0  0.32838874575E+02  0.29318350299E+02 -0.30633153105E+02  0.53631589728E+02  0.00000000000E+00 0. -1.
          1    1    1    2  502    0 -0.16916287549E+02  0.68021012608E+02  0.15337729597E+04  0.15353737365E+04  0.00000000000E+00 0. -1.
         22    1    3    3    0    0  0.51064405469E+02 -0.21148868002E+02  0.29371633209E+03  0.29887143031E+03  0.00000000000E+00 0.  1.
         22    1    3    3    0    0 -0.66986992495E+02 -0.76190494905E+02  0.36738321532E+03  0.38113340916E+03  0.00000000000E+00 0.  1.
</event>
<event>
 7    1  0.6122298E-006  0.1231795E+03  0.7818608E-02  0.1394535E+00
          2   -1    0    0  502    0  0.00000000000E+00  0.00000000000E+00  0.30944539763E+03  0.30944539763E+03  0.00000000000E+00 0. -1.
          1   -1    0    0  501    0 -0.00000000000E+00 -0.00000000000E+00 -0.44826372846E+03  0.44826372846E+03  0.00000000000E+00 0. -1.
         25    2    1    2    0    0 -0.11084189492E+03  0.43668494162E+02 -0.16175904210E+03  0.23660913760E+03  0.12500013297E+03 0.  0.
          2    1    1    2  501    0  0.10290673792E+03 -0.72602982177E+02 -0.23222474656E+03  0.26417668831E+03  0.00000000000E+00 0. -1.
          1    1    1    2  502    0  0.79351569950E+01  0.28934488015E+02  0.25516545783E+03  0.25692330019E+03  0.00000000000E+00 0. -1.
         22    1    3    3    0    0  0.29364825070E+00  0.17619749927E+02 -0.10977756774E+03  0.11118298519E+03  0.00000000000E+00 0.  1.
         22    1    3    3    0    0 -0.11113554317E+03  0.26048744235E+02 -0.51981474359E+02  0.12542615241E+03  0.00000000000E+00 0.  1.
</event>
<event>
 7    1  0.6122298E-006  0.7273948E+02  0.7818608E-02  0.1500324E+00
          2   -1    0    0  502    0  0.00000000000E+00  0.00000000000E+00  0.33473503576E+03  0.33473503576E+03  0.00000000000E+00 0. -1.
          1   -1    0    0  501    0 -0.00000000000E+00 -0.00000000000E+00 -0.53817045673E+03  0.53817045673E+03  0.00000000000E+00 0. -1.
         25    2    1    2    0    0 -0.54266326039E+02  0.56354627924E+02 -0.13576276656E+03  0.20043718368E+03  0.12499143005E+03 0.  0.
          2    1    1    2  501    0  0.63449390271E+02 -0.35034232863E+02 -0.36606654525E+03  0.37317279932E+03  0.00000000000E+00 0. -1.
          1    1    1    2  502    0 -0.91830642315E+01 -0.21320395061E+02  0.29839389084E+03  0.29929550950E+03  0.00000000000E+00 0. -1.
         22    1    3    3    0    0  0.55880761719E+01 -0.35317292892E+02 -0.49450999910E+02  0.61024086757E+02  0.00000000000E+00 0.  1.
         22    1    3    3    0    0 -0.59854402211E+02  0.91671920815E+02 -0.86311766653E+02  0.13941309692E+03  0.00000000000E+00 0.  1.
</event>
<event>
 7    1  0.6122298E-006  0.1816586E+03  0.7818608E-02  0.1194013E+00
          2   -1    0    0  502    0  0.00000000000E+00  0.00000000000E+00  0.22359530134E+04  0.22359530134E+04  0.00000000000E+00 0. -1.
          1   -1    0    0  501    0 -0.00000000000E+00 -0.00000000000E+00 -0.17337896310E+03  0.17337896310E+03  0.00000000000E+00 0. -1.
         25    2    1    2    0    0 -0.64572799853E+02 -0.40306203072E+02  0.67299421513E+02  0.16108656067E+03  0.12500172562E+03 0.  0.
          2    1    1    2  501    0 -0.24145217042E+02 -0.13069164899E+03 -0.85852486778E+02  0.15822119993E+03  0.00000000000E+00 0. -1.
          1    1    1    2  502    0  0.88718016895E+02  0.17099785206E+03  0.20811271155E+04  0.20900242159E+04  0.00000000000E+00 0. -1.
         22    1    3    3    0    0 -0.64838287044E+02  0.21767432258E+02  0.71405706034E+02  0.98876687991E+02  0.00000000000E+00 0. -1.
         22    1    3    3    0    0  0.26548719139E+00 -0.62073635331E+02 -0.41062845209E+01  0.62209872682E+02  0.00000000000E+00 0. -1.
</event>
<event>
 7    1  0.6122298E-006  0.5144856E+02  0.7818608E-02  0.1456886E+00
          2   -1    0    0  502    0  0.00000000000E+00  0.00000000000E+00  0.31445890011E+04  0.31445890011E+04  0.00000000000E+00 0. -1.
          1   -1    0    0  501    0 -0.00000000000E+00 -0.00000000000E+00 -0.11165354478E+04  0.11165354478E+04  0.00000000000E+00 0. -1.
         25    2    1    2    0    0 -0.54381549995E+02 -0.21647576142E+02  0.14496274593E+04  0.14561835617E+04  0.12499929588E+03 0.  0.
          2    1    1    2  501    0  0.67792222801E+01  0.44118287269E+02 -0.11124002114E+04  0.11132953837E+04  0.00000000000E+00 0. -1.
          1    1    1    2  502    0  0.47602327714E+02 -0.22470711127E+02  0.16908263054E+04  0.16916455035E+04  0.00000000000E+00 0. -1.
         22    1    3    3    0    0  0.12890190798E+02 -0.44958184165E+02  0.98722124737E+03  0.98832848112E+03  0.00000000000E+00 0.  1.
         22    1    3    3    0    0 -0.67271740793E+02  0.23310608023E+02  0.46240621195E+03  0.46785508056E+03  0.00000000000E+00 0.  1.
</event>
<event>
 7    1  0.6122298E-006  0.9265246E+02  0.7818608E-02  0.1363691E+00
          2   -1    0    0  502    0  0.00000000000E+00  0.00000000000E+00  0.13852815718E+04  0.13852815718E+04  0.00000000000E+00 0. -1.
          1   -1    0    0  501    0 -0.00000000000E+00 -0.00000000000E+00 -0.13472835973E+04  0.13472835973E+04  0.00000000000E+00 0. -1.
         25    2    1    2    0    0  0.65568881430E+02  0.12493263786E+03  0.13822564669E+03  0.23374923733E+03  0.12499973735E+03 0.  0.
          2    1    1    2  501    0 -0.31248816267E+02 -0.86782974566E+02 -0.12973347272E+04  0.13006095369E+04  0.00000000000E+00 0. -1.
          1    1    1    2  502    0 -0.34320065162E+02 -0.38149663291E+02  0.11971070550E+04  0.11982063949E+04  0.00000000000E+00 0. -1.
         22    1    3    3    0    0 -0.29338017407E+02  0.76309124611E+02  0.56068751348E+02  0.99133781538E+02  0.00000000000E+00 0. -1.
         22    1    3    3    0    0  0.94906898836E+02  0.48623513247E+02  0.82156895342E+02  0.13461545580E+03  0.00000000000E+00 0. -1.
</event>
<event>
 7    1  0.6122298E-006  0.6440812E+02  0.7818608E-02  0.1533976E+00
          2   -1    0    0  502    0  0.00000000000E+00  0.00000000000E+00  0.68471628575E+01  0.68471628575E+01  0.00000000000E+00 0. -1.
          1   -1    0    0  501    0 -0.00000000000E+00 -0.00000000000E+00 -0.25212644547E+04  0.25212644547E+04  0.00000000000E+00 0. -1.
         25    2    1    2    0    0 -0.57129935350E+02 -0.72529220438E+01 -0.86920696689E+03  0.88003522407E+03  0.12499923970E+03 0.  0.
          2    1    1    2  501    0 -0.16439615713E+02  0.12930293946E+02 -0.54048052995E+03  0.54088506795E+03  0.00000000000E+00 0. -1.
          1    1    1    2  502    0  0.73569551063E+02 -0.56773719023E+01 -0.11047297950E+04  0.11071913255E+04  0.00000000000E+00 0. -1.
         22    1    3    3    0    0  0.12509105090E+02 -0.34413157452E+02 -0.88748038378E+02  0.96004986495E+02  0.00000000000E+00 0. -1.
         22    1    3    3    0    0 -0.69639040440E+02  0.27160235408E+02 -0.78045892851E+03  0.78403023758E+03  0.00000000000E+00 0. -1.
</event>
<event>
 7    1  0.6122298E-006  0.4404388E+02  0.7818608E-02  0.1489178E+00
          2   -1    0    0  502    0  0.00000000000E+00  0.00000000000E+00  0.16687775885E+03  0.16687775885E+03  0.00000000000E+00 0. -1.
          1   -1    0    0  501    0 -0.00000000000E+00 -0.00000000000E+00 -0.50645151225E+03  0.50645151225E+03  0.00000000000E+00 0. -1.
         25    2    1    2    0    0  0.47087682593E+02 -0.50580942034E+02 -0.13976997136E+03  0.19984712933E+03  0.12501019422E+03 0.  0.
          2    1    1    2  501    0 -0.42361242023E+02  0.94383976252E+01 -0.33206490327E+03  0.33488902364E+03  0.00000000000E+00 0. -1.
          1    1    1    2  502    0 -0.47264405700E+01  0.41142544408E+02  0.13226112124E+03  0.13859311812E+03  0.00000000000E+00 0. -1.
         22    1    3    3    0    0  0.62928531745E+02 -0.62160090769E+02 -0.38114138160E+02  0.96314923660E+02  0.00000000000E+00 0. -1.
         22    1    3    3    0    0 -0.15840849151E+02  0.11579148736E+02 -0.10165583320E+03  0.10353220567E+03  0.00000000000E+00 0. -1.
</event>
<event>
 7    1  0.6122298E-006  0.8166384E+02  0.7818608E-02  0.1443681E+00
          2   -1    0    0  502    0  0.00000000000E+00  0.00000000000E+00  0.68437963423E+03  0.68437963423E+03  0.00000000000E+00 0. -1.
          1   -1    0    0  501    0 -0.00000000000E+00 -0.00000000000E+00 -0.13531606366E+03  0.13531606366E+03  0.00000000000E+00 0. -1.
         25    2    1    2    0    0 -0.56496722925E+02  0.33841692296E+01  0.59890935815E+03  0.61442717657E+03  0.12500001492E+03 0.  0.
          2    1    1    2  501    0  0.80704359508E+02  0.15969507558E+02 -0.11014070369E+03  0.13747433733E+03  0.00000000000E+00 0. -1.
          1    1    1    2  502    0 -0.24207636583E+02 -0.19353676787E+02  0.60294916108E+02  0.67794183988E+02  0.00000000000E+00 0. -1.
         22    1    3    3    0    0  0.69739724584E+01  0.40117575731E+02  0.74381916835E+02  0.84798146951E+02  0.00000000000E+00 0. -1.
         22    1    3    3    0    0 -0.63470695383E+02 -0.36733406501E+02  0.52452744131E+03  0.52962902962E+03  0.00000000000E+00 0. -1.
</event>
<event>
 7    1  0.6122298E-006  0.6205766E+02  0.7818608E-02  0.1536552E+00
          2   -1    0    0  502    0  0.00000000000E+00  0.00000000000E+00  0.82326805846E+03  0.82326805846E+03  0.00000000000E+00 0. -1.
          1   -1    0    0  501    0 -0.00000000000E+00 -0.00000000000E+00 -0.10476573484E+04  0.10476573484E+04  0.00000000000E+00 0. -1.
         25    2    1    2    0    0  0.81549537682E+02 -0.10417541531E+02 -0.36809342643E+02  0.15407318293E+03  0.12499906290E+03 0.  0.
          2    1    1    2  501    0 -0.61660849847E+02  0.26702589371E+01 -0.95106669484E+03  0.95306717954E+03  0.00000000000E+00 0. -1.
          1    1    1    2  502    0 -0.19888687835E+02  0.77472825941E+01  0.76348674757E+03  0.76378504437E+03  0.00000000000E+00 0. -1.
         22    1    3    3    0    0 -0.13174575456E+02  0.15629154597E+02  0.29252737246E+02  0.35687008115E+02  0.00000000000E+00 0. -1.
         22    1    3    3    0    0  0.94724113138E+02 -0.26046696128E+02 -0.66062079889E+02  0.11838617482E+03  0.00000000000E+00 0. -1.
</event>
<event>
 7    1  0.6122298E-006  0.4941716E+02  0.7818608E-02  0.1522301E+00
          2   -1    0    0  502    0  0.00000000000E+00  0.00000000000E+00  0.32599514985E+04  0.32599514985E+04  0.00000000000E+00 0. -1.
          1   -1    0    0  501    0 -0.00000000000E+00 -0.00000000000E+00 -0.63986042183E+01  0.63986042183E+01  0.00000000000E+00 0. -1.
         25    2    1    2    0    0  0.30497362965E+02 -0.19196973679E+02  0.19492303668E+04  0.19535667893E+04  0.12500225707E+03 0.  0.
          2    1    1    2  501    0 -0.55593951674E+01 -0.28919020332E+02  0.55877718062E+02  0.63162773747E+02  0.00000000000E+00 0. -1.
          1    1    1    2  502    0 -0.24937967798E+02  0.48115994011E+02  0.12484448094E+04  0.12496205397E+04  0.00000000000E+00 0. -1.
         22    1    3    3    0    0 -0.12597376552E+02  0.29627557243E+02  0.16296202484E+03  0.16611173222E+03  0.00000000000E+00 0. -1.
         22    1    3    3    0    0  0.43094739517E+02 -0.48824530923E+02  0.17862683420E+04  0.17874550570E+04  0.00000000000E+00 0. -1.
</event>
<event>
 7    1  0.6122298E-006  0.6669662E+02  0.7818608E-02  0.1460433E+00
          2   -1    0    0  502    0  0.00000000000E+00  0.00000000000E+00  0.22317271502E+04  0.22317271502E+04  0.00000000000E+00 0. -1.
          1   -1    0    0  501    0 -0.00000000000E+00 -0.00000000000E+00 -0.14580209745E+03  0.14580209745E+03  0.00000000000E+00 0. -1.
         25    2    1    2    0    0 -0.24359298062E+02 -0.23207201025E+02  0.58677792531E+03  0.60088667720E+03  0.12499806250E+03 0.  0.
          2    1    1    2  501    0  0.46816717169E+02  0.48138145595E+02 -0.13044027531E+03  0.14670975254E+03  0.00000000000E+00 0. -1.
          1    1    1    2  502    0 -0.22457419107E+02 -0.24930944570E+02  0.16295874028E+04  0.16299328179E+04  0.00000000000E+00 0. -1.
         22    1    3    3    0    0 -0.47306625324E+02  0.29529718015E+02  0.14454499373E+03  0.15492958484E+03  0.00000000000E+00 0.  1.
         22    1    3    3    0    0  0.22947327262E+02 -0.52736919040E+02  0.44223293157E+03  0.44595709236E+03  0.00000000000E+00 0.  1.
</event>
<event>
 7    1  0.6122298E-006  0.1371500E+03  0.7818608E-02  0.1286393E+00
          2   -1    0    0  502    0  0.00000000000E+00  0.00000000000E+00  0.19610907914E+04  0.19610907914E+04  0.00000000000E+00 0. -1.
          1   -1    0    0  501    0 -0.00000000000E+00 -0.00000000000E+00 -0.37940269819E+04  0.37940269819E+04  0.00000000000E+00 0. -1.
         25    2    1    2    0    0  0.69168835215E+02 -0.10009756649E+03  0.87442368786E+01  0.17465945959E+03  0.12500245823E+03 0.  0.
          2    1    1    2  501    0  0.55510701007E+02  0.40686531006E+02 -0.37081986921E+04  0.37088373343E+04  0.00000000000E+00 0. -1.
          1    1    1    2  502    0 -0.12467953622E+03  0.59411035484E+02  0.18665182648E+04  0.18716209794E+04  0.00000000000E+00 0. -1.
         22    1    3    3    0    0 -0.30563023303E+02 -0.53947902051E+02 -0.11101743892E+02  0.62989866221E+02  0.00000000000E+00 0.  1.
         22    1    3    3    0    0  0.99731858517E+02 -0.46149664439E+02  0.19845980770E+02  0.11166959337E+03  0.00000000000E+00 0.  1.
</event>
<event>
 7    1  0.6122298E-006  0.3305100E+02  0.7818608E-02  0.1608047E+00
          2   -1    0    0  502    0  0.00000000000E+00  0.00000000000E+00  0.92506095523E+02  0.92506095523E+02  0.00000000000E+00 0. -1.
          1   -1    0    0  501    0 -0.00000000000E+00 -0.00000000000E+00 -0.30392178420E+03  0.30392178420E+03  0.00000000000E+00 0. -1.
         25    2    1    2    0    0 -0.14833960215E+02  0.26174584188E+02 -0.12320995778E+03  0.17807795021E+03  0.12500362963E+03 0.  0.
          2    1    1    2  501    0  0.25024368528E+02  0.56447300286E+01 -0.14781020838E+03  0.15001979769E+03  0.00000000000E+00 0. -1.
          1    1    1    2  502    0 -0.10190408313E+02 -0.31819314217E+02  0.59604477485E+02  0.68330131824E+02  0.00000000000E+00 0. -1.
         22    1    3    3    0    0  0.10016913416E+02  0.73998405598E+02 -0.72316094539E+02  0.10395056573E+03  0.00000000000E+00 0. -1.
         22    1    3    3    0    0 -0.24850873631E+02 -0.47823821410E+02 -0.50893863238E+02  0.74127384479E+02  0.00000000000E+00 0. -1.
</event>
<event>
 7    1  0.6122298E-006  0.1002003E+03  0.7818608E-02  0.1300673E+00
          2   -1    0    0  502    0  0.00000000000E+00  0.00000000000E+00  0.59893548005E+02  0.59893548005E+02  0.00000000000E+00 0. -1.
          1   -1    0    0  501    0 -0.00000000000E+00 -0.00000000000E+00 -0.16363956970E+04  0.16363956970E+04  0.00000000000E+00 0. -1.
         25    2    1    2    0    0  0.18164197820E+02  0.15351264294E+03 -0.20862946709E+03  0.28817932285E+03  0.12499999183E+03 0.  0.
          2    1    1    2  501    0 -0.56614992404E+02 -0.80551352417E+02 -0.12929285033E+04  0.12966718522E+04  0.00000000000E+00 0. -1.
          1    1    1    2  502    0  0.38450794584E+02 -0.72961290519E+02 -0.74944178589E+02  0.11143806990E+03  0.00000000000E+00 0. -1.
         22    1    3    3    0    0 -0.25673463376E+02  0.14045548543E+03 -0.11269533834E+03  0.18189862395E+03  0.00000000000E+00 0.  1.
         22    1    3    3    0    0  0.43837661196E+02  0.13057157505E+02 -0.95934128745E+02  0.10628069890E+03  0.00000000000E+00 0.  1.
</event>
<event>
 7    1  0.6122298E-006  0.1301005E+03  0.7818608E-02  0.1366046E+00
          2   -1    0    0  502    0  0.00000000000E+00  0.00000000000E+00  0.15014324805E+04  0.15014324805E+04  0.00000000000E+00 0. -1.
          1   -1    0    0  501    0 -0.00000000000E+00 -0.00000000000E+00 -0.23491147566E+03  0.23491147566E+03  0.00000000000E+00 0. -1.
         25    2    1    2    0    0 -0.10879089415E+03 -0.11869719045E+03  0.81048965988E+02  0.21935867106E+03  0.12499924003E+03 0.  0.
          2    1    1    2  501    0  0.85846115314E+02  0.91172832904E+02 -0.14182804925E+03  0.18920157644E+03  0.00000000000E+00 0. -1.
          1    1    1    2  502    0  0.22944778838E+02  0.27524357545E+02  0.13273000881E+04  0.13277837087E+04  0.00000000000E+00 0. -1.
         22    1    3    3    0    0 -0.44441373523E+02 -0.85064693088E+02  0.10561397660E+03  0.14270721686E+03  0.00000000000E+00 0.  1.
         22    1    3    3    0    0 -0.64349520629E+02 -0.33632497361E+02 -0.24565010612E+02  0.76651454196E+02  0.00000000000E+00 0.  1.
</event>
<event>
 7    1  0.6122298E-006  0.8368569E+02  0.7818608E-02  0.1498483E+00
          2   -1    0    0  502    0  0.00000000000E+00  0.00000000000E+00  0.34006511718E+03  0.34006511718E+03  0.00000000000E+00 0. -1.
          1   -1    0    0  501    0 -0.00000000000E+00 -0.00000000000E+00 -0.11904523603E+04  0.11904523603E+04  0.00000000000E+00 0. -1.
         25    2    1    2    0    0  0.78005486709E+02  0.29695419598E+02 -0.38096486816E+03  0.40953186039E+03  0.12496175418E+03 0.  0.
          2    1    1    2  501    0 -0.93247310953E+01  0.18183128249E+02 -0.78969072752E+03  0.78995507587E+03  0.00000000000E+00 0. -1.
          1    1    1    2  502    0 -0.68680755614E+02 -0.47878547847E+02  0.32026835258E+03  0.33103054119E+03  0.00000000000E+00 0. -1.
         22    1    3    3    0    0 -0.23270882040E+02 -0.24422479115E+02 -0.11479598619E+03  0.11964994728E+03  0.00000000000E+00 0. -1.
         22    1    3    3    0    0  0.10127636875E+03  0.54117898713E+02 -0.26616888196E+03  0.28988191312E+03  0.00000000000E+00 0. -1.
</event>
<event>
 7    1  0.6122298E-006  0.5493592E+02  0.7818608E-02  0.1486938E+00
          2   -1    0    0  502    0  0.00000000000E+00  0.00000000000E+00  0.18005963766E+04  0.18005963766E+04  0.00000000000E+00 0. -1.
          1   -1    0    0  501    0 -0.00000000000E+00 -0.00000000000E+00 -0.13928582225E+03  0.13928582225E+03  0.00000000000E+00 0. -1.
         25    2    1    2    0    0  0.31634888135E+02 -0.24541190442E+02  0.29141631423E+03  0.31961200303E+03  0.12500131241E+03 0.  0.
          2    1    1    2  501    0  0.24130825385E+02  0.23561270079E+02 -0.12238607866E+03  0.12694795167E+03  0.00000000000E+00 0. -1.
          1    1    1    2  502    0 -0.55765713520E+02  0.97992036268E+00  0.14922803188E+04  0.14933222442E+04  0.00000000000E+00 0. -1.
         22    1    3    3    0    0  0.35871706253E+02 -0.64684771536E+02  0.10231809114E+03  0.12625328017E+03  0.00000000000E+00 0.  1.
         22    1    3    3    0    0 -0.42368181180E+01  0.40143581094E+02  0.18909822309E+03  0.19335872286E+03  0.00000000000E+00 0.  1.
</event>
<event>
 7    1  0.6122298E-006  0.9253201E+02  0.7818608E-02  0.1445843E+00
          2   -1    0    0  502    0  0.00000000000E+00  0.00000000000E+00  0.12956234242E+04  0.12956234242E+04  0.00000000000E+00 0. -1.
          1   -1    0    0  501    0 -0.00000000000E+00 -0.00000000000E+00 -0.11106776943E+03  0.11106776943E+03  0.00000000000E+00 0. -1.
         25    2    1    2    0    0  0.94487723288E+01 -0.98334446685E+02  0.66832205343E+03  0.68705036989E+03  0.12499960381E+03 0.  0.
          2    1    1    2  501    0  0.16443044275E+02  0.90974926351E+02 -0.80328138358E+02  0.12247212230E+03  0.00000000000E+00 0. -1.
          1    1    1    2  502    0 -0.25891816603E+02  0.73595203346E+01  0.59656173972E+03  0.59716870146E+03  0.00000000000E+00 0. -1.
         22    1    3    3    0    0 -0.55979638388E+02 -0.28875752867E+02  0.30247153814E+03  0.30896045120E+03  0.00000000000E+00 0. -1.
         22    1    3    3    0    0  0.65428410717E+02 -0.69458693818E+02  0.36585051529E+03  0.37808991869E+03  0.00000000000E+00 0. -1.
</event>
<event>
 7    1  0.6122298E-006  0.1038752E+03  0.7818608E-02  0.1402642E+00
          2   -1    0    0  502    0  0.00000000000E+00  0.00000000000E+00  0.62123680718E+03  0.62123680718E+03  0.00000000000E+00 0. -1.
          1   -1    0    0  501    0 -0.00000000000E+00 -0.00000000000E+00 -0.32880289511E+03  0.32880289511E+03  0.00000000000E+00 0. -1.
         25    2    1    2    0    0  0.11635205767E+03  0.18258943348E+02  0.12639092954E+03  0.21323905234E+03  0.12500014414E+03 0.  0.
          2    1    1    2  501    0 -0.14522146999E+02 -0.30035660945E+02 -0.27855117854E+03  0.28054196254E+03  0.00000000000E+00 0. -1.
          1    1    1    2  502    0 -0.10182991067E+03  0.11776717597E+02  0.44459416106E+03  0.45625868741E+03  0.00000000000E+00 0. -1.
         22    1    3    3    0    0  0.74345872059E+02  0.66023362237E+02  0.42929452970E+02  0.10830203593E+03  0.00000000000E+00 0. -1.
         22    1    3    3    0    0  0.42006185610E+02 -0.47764418890E+02  0.83461476575E+02  0.10493701641E+03  0.00000000000E+00 0. -1.
</event>
<event>
 7    1  0.6122298E-006  0.7657011E+02  0.7818608E-02  0.1363248E+00
          2   -1    0    0  502    0  0.00000000000E+00  0.00000000000E+00  0.38003181979E+03  0.38003181979E+03  0.00000000000E+00 0. -1.
          1   -1    0    0  501    0 -0.00000000000E+00 -0.00000000000E+00 -0.44378153020E+03  0.44378153020E+03  0.00000000000E+00 0. -1.
         25    2    1    2    0    0 -0.10516249977E+03  0.38019106773E+02 -0.45318667967E+02  0.17373438165E+03  0.12500099945E+03 0.  0.
          2    1    1    2  501    0  0.58447607628E+02  0.21635524029E+02 -0.32672223998E+03  0.33261335036E+03  0.00000000000E+00 0. -1.
          1    1    1    2  502    0  0.46714892141E+02 -0.59654630802E+02  0.30829119754E+03  0.31746561799E+03  0.00000000000E+00 0. -1.
         22    1    3    3    0    0 -0.60946277432E+02 -0.36300014178E+02 -0.50538436392E+02  0.87099215353E+02  0.00000000000E+00 0. -1.
         22    1    3    3    0    0 -0.44216222337E+02  0.74319120951E+02  0.52197684257E+01  0.86635166296E+02  0.00000000000E+00 0. -1.
</event>
<event>
 7    1  0.6122298E-006  0.4441814E+02  0.7818608E-02  0.1504392E+00
          2   -1    0    0  502    0  0.00000000000E+00  0.00000000000E+00  0.13251365124E+03  0.13251365124E+03  0.00000000000E+00 0. -1.
          1   -1    0    0  501    0 -0.00000000000E+00 -0.00000000000E+00 -0.14415955609E+04  0.14415955609E+04  0.00000000000E+00 0. -1.
         25    2    1    2    0    0  0.59231125071E+02  0.32327458537E+02 -0.64665419280E+03  0.66207289166E+03  0.12500191218E+03 0.  0.
          2    1    1    2  501    0 -0.36520998394E+02  0.57493558999E+01 -0.78284460149E+03  0.78371711000E+03  0.00000000000E+00 0. -1.
          1    1    1    2  502    0 -0.22710126677E+02 -0.38076814437E+02  0.12041688468E+03  0.12831921043E+03  0.00000000000E+00 0. -1.
         22    1    3    3    0    0 -0.14996567989E+02 -0.29919834787E+02 -0.30868790814E+03  0.31049688919E+03  0.00000000000E+00 0. -1.
         22    1    3    3    0    0  0.74227693060E+02  0.62247293325E+02 -0.33796628466E+03  0.35157600247E+03  0.00000000000E+00 0. -1.
</event>
<event>
 7    1  0.6122298E-006  0.5160169E+02  0.7818608E-02  0.1462016E+00
          2   -1    0    0  502    0  0.00000000000E+00  0.00000000000E+00  0.66336110212E+03  0.66336110212E+03  0.00000000000E+00 0. -1.
          1   -1    0    0  501    0 -0.00000000000E+00 -0.00000000000E+00 -0.54464443276E+03  0.54464443276E+03  0.00000000000E+00 0. -1.
         25    2    1    2    0    0  0.12652106894E+02  0.16231484268E+02  0.88881686259E+02  0.15473575546E+03  0.12497865008E+03 0.  0.
          2    1    1    2  501    0  0.13421796285E+02 -0.50266446090E+02 -0.50954208480E+03  0.51219136697E+03  0.00000000000E+00 0. -1.
          1    1    1    2  502    0 -0.26073903179E+02  0.34034961823E+02  0.53937706789E+03  0.54107841245E+03  0.00000000000E+00 0. -1.
         22    1    3    3    0    0  0.10266667914E+02 -0.11522225879E+02  0.11530970959E+03  0.11633784975E+03  0.00000000000E+00 0.  1.
         22    1    3    3    0    0  0.23854389801E+01  0.27753710146E+02 -0.26428023327E+02  0.38397905711E+02  0.00000000000E+00 0.  1.
</event>
<event>
 7    1  0.6122298E-006  0.2174492E+03  0.7818608E-02  0.1228019E+00
          2   -1    0    0  502    0  0.00000000000E+00  0.00000000000E+00  0.14547867890E+04  0.14547867890E+04  0.00000000000E+00 0. -1.
          1   -1    0    0  501    0 -0.00000000000E+00 -0.00000000000E+00 -0.10834066819E+04  0.10834066819E+04  0.00000000000E+00 0. -1.
         25    2    1    2    0    0  0.96607208134E+02 -0.12899544935E+03 -0.15233203878E+03  0.25456572071E+03  0.12500350998E+03 0.  0.
          2    1    1    2  501    0 -0.16180030448E+03  0.17046817730E+03 -0.86316968042E+03  0.89459523540E+03  0.00000000000E+00 0. -1.
          1    1    1    2  502    0  0.65193096342E+02 -0.41472727955E+02  0.13868818263E+04  0.13890325147E+04  0.00000000000E+00 0. -1.
         22    1    3    3    0    0 -0.14151978746E+02 -0.68233485489E+02 -0.89621936703E+02  0.11352611410E+03  0.00000000000E+00 0.  1.
         22    1    3    3    0    0  0.11075918688E+03 -0.60761963861E+02 -0.62710102081E+02  0.14103960661E+03  0.00000000000E+00 0.  1.
</event>
<event>
 7    1  0.6122298E-006  0.9098609E+02  0.7818608E-02  0.1343848E+00
          2   -1    0    0  502    0  0.00000000000E+00  0.00000000000E+00  0.21193953731E+04  0.21193953731E+04  0.00000000000E+00 0. -1.
          1   -1    0    0  501    0 -0.00000000000E+00 -0.00000000000E+00 -0.34517041607E+02  0.34517041607E+02  0.00000000000E+00 0. -1.
         25    2    1    2    0    0  0.57192399039E+02  0.60907355625E+02  0.17278513581E+04  0.17343816235E+04  0.12501449413E+03 0.  0.
          2    1    1    2  501    0 -0.18087770657E+02  0.59130424428E+02  0.29493227052E+02  0.68508575976E+02  0.00000000000E+00 0. -1.
          1    1    1    2  502    0 -0.39104628382E+02 -0.12003778005E+03  0.32753374637E+03  0.35102221527E+03  0.00000000000E+00 0. -1.
         22    1    3    3    0    0  0.88372449052E+02  0.23790542711E+02  0.13973995773E+04  0.14003932513E+04  0.00000000000E+00 0.  1.
         22    1    3    3    0    0 -0.31180050012E+02  0.37116812914E+02  0.33045178082E+03  0.33398837220E+03  0.00000000000E+00 0.  1.
</event>
<event>
 7    1  0.6122298E-006  0.1407738E+03  0.7818608E-02  0.1406869E+00
          2   -1    0    0  502    0  0.00000000000E+00  0.00000000000E+00  0.57695486417E+03  0.57695486417E+03  0.00000000000E+00 0. -1.
          1   -1    0    0  501    0 -0.00000000000E+00 -0.00000000000E+00 -0.21107512266E+04  0.21107512266E+04  0.00000000000E+00 0. -1.
         25    2    1    2    0    0  0.11988359619E+03 -0.41533613809E+01 -0.77184174389E+03  0.79104595989E+03  0.12499882397E+03 0.  0.
          2    1    1    2  501    0  0.20945857773E+02  0.11328022626E+02 -0.13204364386E+04  0.13206511430E+04  0.00000000000E+00 0. -1.
          1    1    1    2  502    0 -0.14082945396E+03 -0.71746612455E+01  0.55848182004E+03  0.57600898794E+03  0.00000000000E+00 0. -1.
         22    1    3    3    0    0  0.39533013738E+02  0.26024413647E+02 -0.73311249065E+02  0.87262068050E+02  0.00000000000E+00 0.  1.
         22    1    3    3    0    0  0.80350582452E+02 -0.30177775028E+02 -0.69853049483E+03  0.70378389184E+03  0.00000000000E+00 0.  1.
</event>
<event>
 7    1  0.6122298E-006  0.1104976E+03  0.7818608E-02  0.1334884E+00
          2   -1    0    0  502    0  0.00000000000E+00  0.00000000000E+00  0.14013709174E+04  0.14013709174E+04  0.00000000000E+00 0. -1.
          1   -1    0    0  501    0 -0.00000000000E+00 -0.00000000000E+00 -0.57922693645E+03  0.57922693645E+03  0.00000000000E+00 0. -1.
         25    2    1    2    0    0  0.10775034772E+03 -0.12389697317E+03  0.13128123226E+02  0.20677895701E+03  0.12499836817E+03 0.  0.
          2    1    1    2  501    0 -0.34635742838E+02  0.42765066782E+02 -0.47851253804E+03  0.48166662193E+03  0.00000000000E+00 0. -1.
          1    1    1    2  502    0 -0.73114604884E+02  0.81131906391E+02  0.12875283958E+04  0.12921522749E+04  0.00000000000E+00 0. -1.
         22    1    3    3    0    0  0.99326827839E+02 -0.60780562332E+02  0.56803705419E+02  0.12956371574E+03  0.00000000000E+00 0. -1.
         22    1    3    3    0    0  0.84235198820E+01 -0.63116410841E+02 -0.43675582192E+02  0.77215241270E+02  0.00000000000E+00 0. -1.
</event>
<event>
 7    1  0.6122298E-006  0.6697000E+02  0.7818608E-02  0.1394795E+00
          2   -1    0    0  502    0  0.00000000000E+00  0.00000000000E+00  0.28108833595E+03  0.28108833595E+03  0.00000000000E+00 0. -1.
          1   -1    0    0  501    0 -0.00000000000E+00 -0.00000000000E+00 -0.11564598228E+03  0.11564598228E+03  0.00000000000E+00 0. -1.
         25    2    1    2    0    0  0.27769803657E+01 -0.35177801945E+02  0.10771395726E+03  0.16873618146E+03  0.12499765188E+03 0.  0.
          2    1    1    2  501    0 -0.39930022320E+02 -0.37925989174E+02 -0.61970215490E+02  0.82904131050E+02  0.00000000000E+00 0. -1.
          1    1    1    2  502    0  0.37153041954E+02  0.73103791119E+02  0.11969861190E+03  0.14509400571E+03  0.00000000000E+00 0. -1.
         22    1    3    3    0    0  0.21414486440E+02 -0.10389444357E+02  0.12896345050E+03  0.13114149743E+03  0.00000000000E+00 0. -1.
         22    1    3    3    0    0 -0.18637506074E+02 -0.24788357588E+02 -0.21249493240E+02  0.37594684033E+02  0.00000000000E+00 0. -1.
</event>
<event>
 7    1  0.6122298E-006  0.9140095E+02  0.7818608E-02  0.1400311E+00
          2   -1    0    0  502    0  0.00000000000E+00  0.00000000000E+00  0.11946383691E+04  0.11946383691E+04  0.00000000000E+00 0. -1.
          1   -1    0    0  501    0 -0.00000000000E+00 -0.00000000000E+00 -0.72324759767E+03  0.72324759767E+03  0.00000000000E+00 0. -1.
         25    2    1    2    0    0  0.79280136374E+02  0.26572458169E+02  0.32593366961E+03  0.35895666142E+03  0.12500276891E+03 0.  0.
          2    1    1    2  501    0 -0.66417441854E+02 -0.62987816008E+02 -0.70333128946E+03  0.70926274700E+03  0.00000000000E+00 0. -1.
          1    1    1    2  502    0 -0.12862694520E+02  0.36415357839E+02  0.84878839129E+03  0.84966655836E+03  0.00000000000E+00 0. -1.
         22    1    3    3    0    0  0.10124485962E+03  0.43392130023E+02  0.18480877853E+03  0.21514572543E+03  0.00000000000E+00 0. -1.
         22    1    3    3    0    0 -0.21964723250E+02 -0.16819671854E+02  0.14112489108E+03  0.14381093599E+03  0.00000000000E+00 0. -1.
</event>
<event>
 7    1  0.6122298E-006  0.6198406E+02  0.7818608E-02  0.1431051E+00
          2   -1    0    0  502    0  0.00000000000E+00  0.00000000000E+00  0.15015332110E+03  0.15015332110E+03  0.00000000000E+00 0. -1.
          1   -1    0    0  501    0 -0.00000000000E+00 -0.00000000000E+00 -0.94624012073E+03  0.94624012073E+03  0.00000000000E+00 0. -1.
         25    2    1    2    0    0  0.62426684195E+02  0.53855810855E+01 -0.30808815658E+02  0.14317853343E+03  0.12499925571E+03 0.  0.
          2    1    1    2  501    0 -0.11360365334E+02 -0.43429784915E+02 -0.84779546136E+03  0.84898312611E+03  0.00000000000E+00 0. -1.
          1    1    1    2  502    0 -0.51066318861E+02  0.38044203830E+02  0.82517477384E+02  0.10423178230E+03  0.00000000000E+00 0. -1.
         22    1    3    3    0    0  0.10095099484E+03  0.19807287766E+01 -0.25506659753E+02  0.10414228890E+03  0.00000000000E+00 0. -1.
         22    1    3    3    0    0 -0.38524310642E+02  0.34048523088E+01 -0.53021559041E+01  0.39036244529E+02  0.00000000000E+00 0. -1.
</event>
<event>
 7    1  0.6122298E-006  0.5452018E+02  0.7818608E-02  0.1532962E+00
          2   -1    0    0  502    0  0.00000000000E+00  0.00000000000E+00  0.17017289509E+04  0.17017289509E+04  0.00000000000E+00 0. -1.
          1   -1    0    0  501    0 -0.00000000000E+00 -0.00000000000E+00 -0.15506946147E+03  0.15506946147E+03  0.00000000000E+00 0. -1.
         25    2    1    2    0    0 -0.41206532832E+02  0.62839885440E+02  0.11954652435E+03  0.18858294375E+03  0.12500130255E+03 0.  0.
          2    1    1    2  501    0  0.19940209107E+02 -0.49938551804E+02 -0.11444957508E+03  0.12645226820E+03  0.00000000000E+00 0. -1.
          1    1    1    2  502    0  0.21266323726E+02 -0.12901333635E+02  0.15415625402E+04  0.15417632004E+04  0.00000000000E+00 0. -1.
         22    1    3    3    0    0 -0.22650668342E+02  0.58502735754E+02  0.14429823789E+03  0.15734549350E+03  0.00000000000E+00 0. -1.
         22    1    3    3    0    0 -0.18555864490E+02  0.43371496861E+01 -0.24751713546E+02  0.31237450246E+02  0.00000000000E+00 0. -1.
</event>
<event>
 7    1  0.6122298E-006  0.1772344E+03  0.7818608E-02  0.1192515E+00
          2   -1    0    0  502    0  0.00000000000E+00  0.00000000000E+00  0.24582251063E+04  0.24582251063E+04  0.00000000000E+00 0. -1.
          1   -1    0    0  501    0 -0.00000000000E+00 -0.00000000000E+00 -0.32417786289E+03  0.32417786289E+03  0.00000000000E+00 0. -1.
         25    2    1    2    0    0  0.21745804940E+03  0.17005603113E+03  0.15712017689E+03  0.34134832672E+03  0.12499949276E+03 0.  0.
          2    1    1    2  501    0 -0.80992915039E+02 -0.14650551041E+03 -0.19938433721E+03  0.26034175768E+03  0.00000000000E+00 0. -1.
          1    1    1    2  502    0 -0.13646513436E+03 -0.23550520719E+02  0.21763114037E+04  0.21807128848E+04  0.00000000000E+00 0. -1.
         22    1    3    3    0    0  0.16273875346E+03  0.12390388760E+03  0.46776807227E+02  0.20981931497E+03  0.00000000000E+00 0.  1.
         22    1    3    3    0    0  0.54719295943E+02  0.46152143531E+02  0.11034336967E+03  0.13152901174E+03  0.00000000000E+00 0.  1.
</event>
<event>
 7    1  0.6122298E-006  0.5433691E+02  0.7818608E-02  0.1437148E+00
          2   -1    0    0  502    0  0.00000000000E+00  0.00000000000E+00  0.34677578503E+03  0.34677578503E+03  0.00000000000E+00 0. -1.
          1   -1    0    0  501    0 -0.00000000000E+00 -0.00000000000E+00 -0.67562756232E+02  0.67562756232E+02  0.00000000000E+00 0. -1.
         25    2    1    2    0    0 -0.63942775628E+02  0.22621619431E+02  0.84655390967E+02  0.16550928540E+03  0.12500548834E+03 0.  0.
          2    1    1    2  501    0  0.40757423543E+02  0.27035515034E+02  0.23543854731E+01  0.48965597903E+02  0.00000000000E+00 0. -1.
          1    1    1    2  502    0  0.23185352085E+02 -0.49657134465E+02  0.19220325236E+03  0.19986365796E+03  0.00000000000E+00 0. -1.
         22    1    3    3    0    0  0.82562659632E+01 -0.39555392481E+01 -0.27792260964E+02  0.29261271126E+02  0.00000000000E+00 0.  1.
         22    1    3    3    0    0 -0.72199041591E+02  0.26577158679E+02  0.11244765193E+03  0.13624801428E+03  0.00000000000E+00 0.  1.
</event>
<event>
 7    1  0.6122298E-006  0.1677901E+03  0.7818608E-02  0.1310821E+00
          2   -1    0    0  502    0  0.00000000000E+00  0.00000000000E+00  0.76958848766E+02  0.76958848766E+02  0.00000000000E+00 0. -1.
          1   -1    0    0  501    0 -0.00000000000E+00 -0.00000000000E+00 -0.10741411360E+04  0.10741411360E+04  0.00000000000E+00 0. -1.
         25    2    1    2    0    0  0.13757764213E+03  0.36538770090E+02 -0.51998468559E+03  0.55341971567E+03  0.12500647628E+03 0.  0.
          2    1    1    2  501    0  0.18842743404E+02  0.40744475638E+02 -0.40723982932E+03  0.40970652894E+03  0.00000000000E+00 0. -1.
          1    1    1    2  502    0 -0.15642038553E+03 -0.77283245728E+02 -0.69957772334E+02  0.18797374016E+03  0.00000000000E+00 0. -1.
         22    1    3    3    0    0  0.15810940657E+03  0.47779088042E+02 -0.47119461440E+03  0.49930530774E+03  0.00000000000E+00 0.  1.
         22    1    3    3    0    0 -0.20531764441E+02 -0.11240317952E+02 -0.48790071188E+02  0.54114407927E+02  0.00000000000E+00 0.  1.
</event>
<event>
 7    1  0.6122298E-006  0.8074488E+02  0.7818608E-02  0.1349723E+00
          2   -1    0    0  502    0  0.00000000000E+00  0.00000000000E+00  0.94658442079E+03  0.94658442079E+03  0.00000000000E+00 0. -1.
          1   -1    0    0  501    0 -0.00000000000E+00 -0.00000000000E+00 -0.14514030777E+03  0.14514030777E+03  0.00000000000E+00 0. -1.
         25    2    1    2    0    0  0.33665853758E+02  0.16674204975E+01  0.55640206509E+03  0.57127504002E+03  0.12504296584E+03 0.  0.
          2    1    1    2  501    0 -0.54722244152E+02  0.61152952934E+02 -0.12224492951E+03  0.14723461023E+03  0.00000000000E+00 0. -1.
          1    1    1    2  502    0  0.21056390395E+02 -0.62820373432E+02  0.36728697743E+03  0.37321507832E+03  0.00000000000E+00 0. -1.
         22    1    3    3    0    0 -0.24026986239E+02  0.46565002929E+02  0.30466308450E+03  0.30913620076E+03  0.00000000000E+00 0.  1.
         22    1    3    3    0    0  0.57692839997E+02 -0.44897582432E+02  0.25173898060E+03  0.26213883926E+03  0.00000000000E+00 0.  1.
</event>
<event>
 7    1  0.6122298E-006  0.1510167E+03  0.7818608E-02  0.1201556E+00
          2   -1    0    0  502    0  0.00000000000E+00  0.00000000000E+00  0.17715793208E+04  0.17715793208E+04  0.00000000000E+00 0. -1.
          1   -1    0    0  501    0 -0.00000000000E+00 -0.00000000000E+00 -0.81058692364E+03  0.81058692364E+03  0.00000000000E+00 0. -1.
         25    2    1    2    0    0  0.59895425623E+02 -0.68818908612E+02  0.36332031763E+02  0.15896307561E+03  0.12500295469E+03 0.  0.
          2    1    1    2  501    0  0.64771806861E+02  0.14718443633E+03 -0.73735062760E+03  0.75468178280E+03  0.00000000000E+00 0. -1.
          1    1    1    2  502    0 -0.12466723248E+03 -0.78365527716E+02  0.16620109930E+04  0.16685213860E+04  0.00000000000E+00 0. -1.
         22    1    3    3    0    0  0.87638208390E+01 -0.58702597894E+02 -0.36292792341E+02  0.69569866545E+02  0.00000000000E+00 0. -1.
         22    1    3    3    0    0  0.51131604784E+02 -0.10116310718E+02  0.72624824104E+02  0.89393209062E+02  0.00000000000E+00 0. -1.
</event>
<event>
 7    1  0.6122298E-006  0.7463419E+02  0.7818608E-02  0.1469629E+00
          2   -1    0    0  502    0  0.00000000000E+00  0.00000000000E+00  0.29527390645E+03  0.29527390645E+03  0.00000000000E+00 0. -1.
          1   -1    0    0  501    0 -0.00000000000E+00 -0.00000000000E+00 -0.10969260143E+04  0.10969260143E+04  0.00000000000E+00 0. -1.
         25    2    1    2    0    0  0.16671727213E+02  0.62717446473E+02 -0.17924334679E+03  0.22795499993E+03  0.12499552010E+03 0.  0.
          2    1    1    2  501    0 -0.25477941175E+02  0.11760544072E+02 -0.88791069498E+03  0.88835400497E+03  0.00000000000E+00 0. -1.
          1    1    1    2  502    0  0.88062139617E+01 -0.74477990545E+02  0.26550193397E+03  0.27589091580E+03  0.00000000000E+00 0. -1.
         22    1    3    3    0    0 -0.21929957556E+02  0.30216663835E+02 -0.17314658513E+03  0.17712625371E+03  0.00000000000E+00 0.  1.
         22    1    3    3    0    0  0.38601684769E+02  0.32500782638E+02 -0.60967616564E+01  0.50828746215E+02  0.00000000000E+00 0.  1.
</event>
<event>
 7    1  0.6122298E-006  0.5817117E+02  0.7818608E-02  0.1472715E+00
          2   -1    0    0  502    0  0.00000000000E+00  0.00000000000E+00  0.25003158771E+04  0.25003158771E+04  0.00000000000E+00 0. -1.
          1   -1    0    0  501    0 -0.00000000000E+00 -0.00000000000E+00 -0.77545435594E+02  0.77545435594E+02  0.00000000000E+00 0. -1.
         25    2    1    2    0    0  0.14768853429E+02  0.89172830198E+02  0.66826925551E+03  0.68584794494E+03  0.12503476730E+03 0.  0.
          2    1    1    2  501    0 -0.13338289923E+02 -0.32593327018E+02 -0.63777157454E+02  0.72854380494E+02  0.00000000000E+00 0. -1.
          1    1    1    2  502    0 -0.14305635055E+01 -0.56579503180E+02  0.18182783434E+04  0.18191589872E+04  0.00000000000E+00 0. -1.
         22    1    3    3    0    0  0.26805714212E+02 -0.11100751585E+02  0.36610273992E+03  0.36725058091E+03  0.00000000000E+00 0.  1.
         22    1    3    3    0    0 -0.12036860783E+02  0.10027358178E+03  0.30216651559E+03  0.31859736403E+03  0.00000000000E+00 0.  1.
</event>
<event>
 7    1  0.6122298E-006  0.7439418E+02  0.7818608E-02  0.1380197E+00
          2   -1    0    0  502    0  0.00000000000E+00  0.00000000000E+00  0.38777871130E+03  0.38777871130E+03  0.00000000000E+00 0. -1.
          1   -1    0    0  501    0 -0.00000000000E+00 -0.00000000000E+00 -0.10641489857E+04  0.10641489857E+04  0.00000000000E+00 0. -1.
         25    2    1    2    0    0  0.36770506343E+02  0.29802971700E+02 -0.88613810697E+02  0.16037261615E+03  0.12500672504E+03 0.  0.
          2    1    1    2  501    0 -0.55177075402E+01 -0.75992407488E+02 -0.93588824367E+03  0.93898460889E+03  0.00000000000E+00 0. -1.
          1    1    1    2  502    0 -0.31252798802E+02  0.46189435788E+02  0.34813178001E+03  0.35257047191E+03  0.00000000000E+00 0. -1.
         22    1    3    3    0    0  0.59459420487E+02  0.62747234919E+02 -0.34489681684E+02  0.93070813456E+02  0.00000000000E+00 0.  1.
         22    1    3    3    0    0 -0.22688914145E+02 -0.32944263219E+02 -0.54124129012E+02  0.67301802691E+02  0.00000000000E+00 0.  1.
</event>
<event>
 7    1  0.6122298E-006  0.9111296E+02  0.7818608E-02  0.1351809E+00
          2   -1    0    0  502    0  0.00000000000E+00  0.00000000000E+00  0.14276102299E+03  0.14276102299E+03  0.00000000000E+00 0. -1.
          1   -1    0    0  501    0 -0.00000000000E+00 -0.00000000000E+00 -0.29337219778E+03  0.29337219778E+03  0.00000000000E+00 0. -1.
         25    2    1    2    0    0  0.24752705425E+01 -0.98492694875E+02 -0.59437454647E+02  0.16989442774E+03  0.12499747059E+03 0.  0.
          2    1    1    2  501    0 -0.55009354586E+02  0.74674827604E+02 -0.15473721883E+03  0.18040500509E+03  0.00000000000E+00 0. -1.
          1    1    1    2  502    0  0.52534084044E+02  0.23817867272E+02  0.63563498685E+02  0.85833787944E+02  0.00000000000E+00 0. -1.
         22    1    3    3    0    0 -0.78964563816E+01  0.29509764186E+02 -0.14721043329E+02  0.33910018024E+02  0.00000000000E+00 0.  1.
         22    1    3    3    0    0  0.10371726924E+02 -0.12800245906E+03 -0.44716411318E+02  0.13598440972E+03  0.00000000000E+00 0.  1.
</event>
<event>
 7    1  0.6122298E-006  0.7470051E+02  0.7818608E-02  0.1382007E+00
          2   -1    0    0  502    0  0.00000000000E+00  0.00000000000E+00  0.46137970616E+04  0.46137970616E+04  0.00000000000E+00 0. -1.
          1   -1    0    0  501    0 -0.00000000000E+00 -0.00000000000E+00 -0.57220440417E+03  0.57220440417E+03  0.00000000000E+00 0. -1.
         25    2    1    2    0    0 -0.12329589275E+03 -0.38971389368E+02 -0.86838801627E+02  0.19971488281E+03  0.12499764233E+03 0.  0.
          2    1    1    2  501    0  0.52330573899E+02  0.16020970216E+02 -0.42687532062E+03  0.43036925983E+03  0.00000000000E+00 0. -1.
          1    1    1    2  502    0  0.70965318851E+02  0.22950419152E+02  0.45553067797E+04  0.45559173232E+04  0.00000000000E+00 0. -1.
         22    1    3    3    0    0 -0.95871800058E+02 -0.49689804030E+02  0.38376336199E-01  0.10798370314E+03  0.00000000000E+00 0.  1.
         22    1    3    3    0    0 -0.27424092692E+02  0.10718414662E+02 -0.86877177963E+02  0.91731179670E+02  0.00000000000E+00 0.  1.
</event>
<event>
 7    1  0.6122298E-006  0.8231593E+02  0.7818608E-02  0.1338469E+00
          2   -1    0    0  502    0  0.00000000000E+00  0.00000000000E+00  0.18839198525E+03  0.18839198525E+03  0.00000000000E+00 0. -1.
          1   -1    0    0  501    0 -0.00000000000E+00 -0.00000000000E+00 -0.92119821414E+03  0.92119821414E+03  0.00000000000E+00 0. -1.
         25    2    1    2    0    0 -0.13239137597E+03 -0.18069421653E+02  0.31657679820E+02  0.18569031137E+03  0.12499881045E+03 0.  0.
          2    1    1    2  501    0  0.61991856920E+02  0.35831263623E+02 -0.82577306360E+03  0.82887153549E+03  0.00000000000E+00 0. -1.
          1    1    1    2  502    0  0.70399519049E+02 -0.17761841970E+02  0.61309154886E+02  0.95028352534E+02  0.00000000000E+00 0. -1.
         22    1    3    3    0    0 -0.71588961483E+02  0.42283112428E+02 -0.20180579159E+02  0.85557564119E+02  0.00000000000E+00 0. -1.
         22    1    3    3    0    0 -0.60802414487E+02 -0.60352534081E+02  0.51838258979E+02  0.10013274725E+03  0.00000000000E+00 0. -1.
</event>
<event>
 7    1  0.6122298E-006  0.1077680E+03  0.7818608E-02  0.1287256E+00
          2   -1    0    0  502    0  0.00000000000E+00  0.00000000000E+00  0.15632381545E+04  0.15632381545E+04  0.00000000000E+00 0. -1.
          1   -1    0    0  501    0 -0.00000000000E+00 -0.00000000000E+00 -0.15656351090E+03  0.15656351090E+03  0.00000000000E+00 0. -1.
         25    2    1    2    0    0  0.17785035561E+02 -0.17498392899E+03  0.55381611871E+03  0.59436881155E+03  0.12500523151E+03 0.  0.
          2    1    1    2  501    0 -0.39623450612E+02  0.77318813115E+02 -0.11960713844E+03  0.14783126958E+03  0.00000000000E+00 0. -1.
          1    1    1    2  502    0  0.21838415051E+02  0.97665115870E+02  0.97246566338E+03  0.97760158433E+03  0.00000000000E+00 0. -1.
         22    1    3    3    0    0  0.17913123704E+01 -0.17078675092E+03  0.34563391470E+03  0.38553096643E+03  0.00000000000E+00 0.  1.
         22    1    3    3    0    0  0.15993723191E+02 -0.41971780658E+01  0.20818220401E+03  0.20883784511E+03  0.00000000000E+00 0.  1.
</event>
<event>
 7    1  0.6122298E-006  0.1463345E+03  0.7818608E-02  0.1274803E+00
          2   -1    0    0  502    0  0.00000000000E+00  0.00000000000E+00  0.61387895322E+03  0.61387895322E+03  0.00000000000E+00 0. -1.
          1   -1    0    0  501    0 -0.00000000000E+00 -0.00000000000E+00 -0.21088403741E+03  0.21088403741E+03  0.00000000000E+00 0. -1.
         25    2    1    2    0    0 -0.15395602273E+03 -0.89355725781E+02  0.11896481566E+02  0.21783889077E+03  0.12500141358E+03 0.  0.
          2    1    1    2  501    0  0.67170758969E+02 -0.25976044014E+02 -0.83847217041E+02  0.11053063615E+03  0.00000000000E+00 0. -1.
          1    1    1    2  502    0  0.86785263757E+02  0.11533176979E+03  0.47494565129E+03  0.49639346371E+03  0.00000000000E+00 0. -1.
         22    1    3    3    0    0 -0.52053364258E+02 -0.38233562388E+01 -0.48938897085E+02  0.71548490071E+02  0.00000000000E+00 0.  1.
         22    1    3    3    0    0 -0.10190265847E+03 -0.85532369542E+02  0.60835378651E+02  0.14629040070E+03  0.00000000000E+00 0.  1.
</event>
<event>
 7    1  0.6122298E-006  0.3761304E+02  0.7818608E-02  0.1544737E+00
          2   -1    0    0  502    0  0.00000000000E+00  0.00000000000E+00  0.22116716403E+03  0.22116716403E+03  0.00000000000E+00 0. -1.
          1   -1    0    0  501    0 -0.00000000000E+00 -0.00000000000E+00 -0.24983457934E+03  0.24983457934E+03  0.00000000000E+00 0. -1.
         25    2    1    2    0    0  0.33647290086E+01 -0.36438884670E+00  0.99577256766E+02  0.15985095111E+03  0.12500096929E+03 0.  0.
          2    1    1    2  501    0 -0.42786339500E+01 -0.37368887328E+02 -0.21409273480E+03  0.21737166224E+03  0.00000000000E+00 0. -1.
          1    1    1    2  502    0  0.91390494131E+00  0.37733276175E+02  0.85848062729E+02  0.93779130021E+02  0.00000000000E+00 0. -1.
         22    1    3    3    0    0  0.31577995645E+02  0.21198131559E+02 -0.14248693657E+02  0.40614724688E+02  0.00000000000E+00 0.  1.
         22    1    3    3    0    0 -0.28213266637E+02 -0.21562520405E+02  0.11382595042E+03  0.11923622642E+03  0.00000000000E+00 0.  1.
</event>
<event>
 7    1  0.6122298E-006  0.1932402E+03  0.7818608E-02  0.1366188E+00
          2   -1    0    0  502    0  0.00000000000E+00  0.00000000000E+00  0.15382980894E+03  0.15382980894E+03  0.00000000000E+00 0. -1.
          1   -1    0    0  501    0 -0.00000000000E+00 -0.00000000000E+00 -0.77219771641E+03  0.77219771641E+03  0.00000000000E+00 0. -1.
         25    2    1    2    0    0 -0.48467362861E+02  0.19915635172E+03 -0.27971477504E+03  0.36861584347E+03  0.12499978795E+03 0.  0.
          2    1    1    2  501    0  0.21624288938E+02 -0.10632404385E+02 -0.36445100288E+03  0.36524675412E+03  0.00000000000E+00 0. -1.
          1    1    1    2  502    0  0.26843073923E+02 -0.18852394734E+03  0.25797870453E+02  0.19216492775E+03  0.00000000000E+00 0. -1.
         22    1    3    3    0    0 -0.91028367876E+02  0.12999577482E+03 -0.19157580772E+03  0.24876968331E+03  0.00000000000E+00 0. -1.
         22    1    3    3    0    0  0.42561005015E+02  0.69160576903E+02 -0.88138967322E+02  0.11984616016E+03  0.00000000000E+00 0. -1.
</event>
<event>
 7    1  0.6122298E-006  0.5491446E+02  0.7818608E-02  0.1421474E+00
          2   -1    0    0  502    0  0.00000000000E+00  0.00000000000E+00  0.21542691413E+02  0.21542691413E+02  0.00000000000E+00 0. -1.
          1   -1    0    0  501    0 -0.00000000000E+00 -0.00000000000E+00 -0.19288855584E+04  0.19288855584E+04  0.00000000000E+00 0. -1.
         25    2    1    2    0    0 -0.63536170279E+01 -0.21236440858E+02 -0.11939852274E+04  0.12007163408E+04  0.12501061185E+03 0.  0.
          2    1    1    2  501    0 -0.57571528642E+01  0.74798804528E+02 -0.68271920438E+03  0.68682859434E+03  0.00000000000E+00 0. -1.
          1    1    1    2  502    0  0.12110769892E+02 -0.53562363670E+02 -0.30638435258E+02  0.62883314674E+02  0.00000000000E+00 0. -1.
         22    1    3    3    0    0 -0.24001033726E+02 -0.51396917141E+02 -0.10801501765E+04  0.10816386164E+04  0.00000000000E+00 0. -1.
         22    1    3    3    0    0  0.17647416699E+02  0.30160476283E+02 -0.11383505087E+03  0.11907772442E+03  0.00000000000E+00 0. -1.
</event>
<event>
 7    1  0.6122298E-006  0.1152177E+03  0.7818608E-02  0.1366239E+00
          2   -1    0    0  502    0  0.00000000000E+00  0.00000000000E+00  0.69476929520E+03  0.69476929520E+03  0.00000000000E+00 0. -1.
          1   -1    0    0  501    0 -0.00000000000E+00 -0.00000000000E+00 -0.20541413472E+03  0.20541413472E+03  0.00000000000E+00 0. -1.
         25    2    1    2    0    0  0.83503829140E+02  0.79474907779E+02  0.31638351914E+03  0.35918024673E+03  0.12499107171E+03 0.  0.
          2    1    1    2  501    0 -0.10604874462E+03 -0.45953707331E+02 -0.16454369557E+03  0.20107885818E+03  0.00000000000E+00 0. -1.
          1    1    1    2  502    0  0.22544915478E+02 -0.33521200448E+02  0.33751533691E+03  0.33992432502E+03  0.00000000000E+00 0. -1.
         22    1    3    3    0    0  0.11143834825E+03  0.48598727048E+02  0.18512525374E+03  0.22147618677E+03  0.00000000000E+00 0. -1.
         22    1    3    3    0    0 -0.27934519107E+02  0.30876180730E+02  0.13125826540E+03  0.13770405996E+03  0.00000000000E+00 0. -1.
</event>
<event>
 7    1  0.6122298E-006  0.5883424E+02  0.7818608E-02  0.1449476E+00
          2   -1    0    0  502    0  0.00000000000E+00  0.00000000000E+00  0.11227434831E+03  0.11227434831E+03  0.00000000000E+00 0. -1.
          1   -1    0    0  501    0 -0.00000000000E+00 -0.00000000000E+00 -0.28903275389E+03  0.28903275389E+03  0.00000000000E+00 0. -1.
         25    2    1    2    0    0 -0.42823294339E+02 -0.33210493597E+02 -0.10739776044E+03  0.17348328906E+03  0.12500160484E+03 0.  0.
          2    1    1    2  501    0  0.31881899738E+02 -0.26115873836E+02 -0.13353263714E+03  0.13974784284E+03  0.00000000000E+00 0. -1.
          1    1    1    2  502    0  0.10941394601E+02  0.59326367433E+02  0.64171991997E+02  0.88075970307E+02  0.00000000000E+00 0. -1.
         22    1    3    3    0    0 -0.15444957844E+02  0.37173096493E+02 -0.86054888849E+02  0.95004366849E+02  0.00000000000E+00 0.  1.
         22    1    3    3    0    0 -0.27378336495E+02 -0.70383590090E+02 -0.21342871590E+02  0.78478922208E+02  0.00000000000E+00 0.  1.
</event>
<event>
 7    1  0.6122298E-006  0.8186798E+02  0.7818608E-02  0.1429865E+00
          2   -1    0    0  502    0  0.00000000000E+00  0.00000000000E+00  0.37602085470E+02  0.37602085470E+02  0.00000000000E+00 0. -1.
          1   -1    0    0  501    0 -0.00000000000E+00 -0.00000000000E+00 -0.12380120144E+04  0.12380120144E+04  0.00000000000E+00 0. -1.
         25    2    1    2    0    0  0.55428925553E+02  0.64060874160E+01 -0.27983752345E+03  0.31152392474E+03  0.12499884965E+03 0.  0.
          2    1    1    2  501    0 -0.79553555932E+02 -0.30780602921E+02 -0.92551826739E+03  0.92944084107E+03  0.00000000000E+00 0. -1.
          1    1    1    2  502    0  0.24124630379E+02  0.24374515505E+02  0.49458619525E+01  0.34649334012E+02  0.00000000000E+00 0. -1.
         22    1    3    3    0    0 -0.19498228449E+01 -0.29268723644E+02 -0.21789971980E+03  0.21986529486E+03  0.00000000000E+00 0.  1.
         22    1    3    3    0    0  0.57378748398E+02  0.35674811060E+02 -0.61937803647E+02  0.91658629885E+02  0.00000000000E+00 0.  1.
</event>
<event>
 7    1  0.6122298E-006  0.1443472E+03  0.7818608E-02  0.1312689E+00
          2   -1    0    0  502    0  0.00000000000E+00  0.00000000000E+00  0.63581543445E+03  0.63581543445E+03  0.00000000000E+00 0. -1.
          1   -1    0    0  501    0 -0.00000000000E+00 -0.00000000000E+00 -0.51701156271E+03  0.51701156271E+03  0.00000000000E+00 0. -1.
         25    2    1    2    0    0 -0.16050635101E+03 -0.10371711489E+03  0.14271653984E+02  0.22879794059E+03  0.12500115550E+03 0.  0.
          2    1    1    2  501    0  0.39930500123E+02  0.32217069139E+02 -0.39852065053E+03  0.40180977250E+03  0.00000000000E+00 0. -1.
          1    1    1    2  502    0  0.12057585089E+03  0.71500045749E+02  0.50305286828E+03  0.52221928406E+03  0.00000000000E+00 0. -1.
         22    1    3    3    0    0 -0.17554639737E+03 -0.72869565195E+02  0.27438555835E+02  0.19204006224E+03  0.00000000000E+00 0. -1.
         22    1    3    3    0    0  0.15040046357E+02 -0.30847549693E+02 -0.13166901850E+02  0.36757878351E+02  0.00000000000E+00 0. -1.
</event>
<event>
 7    1  0.6122298E-006  0.8032808E+02  0.7818608E-02  0.1364369E+00
          2   -1    0    0  502    0  0.00000000000E+00  0.00000000000E+00  0.34387918419E+04  0.34387918419E+04  0.00000000000E+00 0. -1.
          1   -1    0    0  501    0 -0.00000000000E+00 -0.00000000000E+00 -0.15471915811E+03  0.15471915811E+03  0.00000000000E+00 0. -1.
         25    2    1    2    0    0  0.11227995665E+03 -0.25960155185E+02  0.44766633835E+03  0.47886496378E+03  0.12500313884E+03 0.  0.
          2    1    1    2  501    0 -0.59875066095E+02  0.52746922094E+02 -0.12736157284E+03  0.15029381746E+03  0.00000000000E+00 0. -1.
          1    1    1    2  502    0 -0.52404890557E+02 -0.26786766909E+02  0.29637679183E+04  0.29643522188E+04  0.00000000000E+00 0. -1.
         22    1    3    3    0    0  0.86847500112E+02 -0.72425931740E+02  0.34921214719E+03  0.36706556310E+03  0.00000000000E+00 0.  1.
         22    1    3    3    0    0  0.25432456540E+02  0.46465776555E+02  0.98454191162E+02  0.11179940069E+03  0.00000000000E+00 0.  1.
</event>
<event>
 7    1  0.7854645E-006  0.4571181E+02  0.7818608E-02  0.1512406E+00
          2   -1    0    0  502    0  0.00000000000E+00  0.00000000000E+00  0.11964059673E+04  0.11964059673E+04  0.00000000000E+00 0. -1.
          1   -1    0    0  501    0 -0.00000000000E+00 -0.00000000000E+00 -0.81062826059E+03  0.81062826059E+03  0.00000000000E+00 0. -1.
         25    2    1    2    0    0 -0.31294528466E+02 -0.18657704504E+02 -0.39002656648E+03  0.41118565478E+03  0.12500185074E+03 0.  0.
          2    1    1    2  501    0  0.12069016926E+02  0.46725859178E+02 -0.40835696963E+03  0.41119871319E+03  0.00000000000E+00 0. -1.
          1    1    1    2  502    0  0.19225511540E+02 -0.28068154673E+02  0.11841612428E+04  0.11846498599E+04  0.00000000000E+00 0. -1.
         22    1    3    3    0    0 -0.60364960731E+02  0.23404956338E+02 -0.11990896784E+03  0.13627135075E+03  0.00000000000E+00 0.  1.
         22    1    3    3    0    0  0.29070432265E+02 -0.42062660843E+02 -0.27011759864E+03  0.27491430403E+03  0.00000000000E+00 0.  1.
</event>
<event>
 7    1  0.6122298E-006  0.1258873E+03  0.7818608E-02  0.1393425E+00
          2   -1    0    0  502    0  0.00000000000E+00  0.00000000000E+00  0.42932810834E+03  0.42932810834E+03  0.00000000000E+00 0. -1.
          1   -1    0    0  501    0 -0.00000000000E+00 -0.00000000000E+00 -0.11547214260E+03  0.11547214260E+03  0.00000000000E+00 0. -1.
         25    2    1    2    0    0  0.10186397828E+03  0.14899704524E+02  0.66109603628E+02  0.17491097788E+03  0.12500039690E+03 0.  0.
          2    1    1    2  501    0  0.29509155640E+02 -0.25491930108E+01 -0.42068338472E+02  0.51449331904E+02  0.00000000000E+00 0. -1.
          1    1    1    2  502    0 -0.13137313392E+03 -0.12350511514E+02  0.28981470059E+03  0.31843994116E+03  0.00000000000E+00 0. -1.
         22    1    3    3    0    0  0.20980705679E+02 -0.28990673546E+02 -0.26365480070E+02  0.44449833552E+02  0.00000000000E+00 0. -1.
         22    1    3    3    0    0  0.80883272604E+02  0.43890378071E+02  0.92475083698E+02  0.13046114433E+03  0.00000000000E+00 0. -1.
</event>
<event>
 7    1  0.6122298E-006  0.2340859E+03  0.7818608E-02  0.1297406E+00
          2   -1    0    0  502    0  0.00000000000E+00  0.00000000000E+00  0.46930974674E+03  0.46930974674E+03  0.00000000000E+00 0. -1.
          1   -1    0    0  501    0 -0.00000000000E+00 -0.00000000000E+00 -0.22174944008E+04  0.22174944008E+04  0.00000000000E+00 0. -1.
         25    2    1    2    0    0  0.23007174197E+03  0.17845455837E+02 -0.25069614334E+03  0.36294239732E+03  0.12500864268E+03 0.  0.
          2    1    1    2  501    0  0.39327069134E+01 -0.36170377251E+02 -0.18771498730E+04  0.18775024389E+04  0.00000000000E+00 0. -1.
          1    1    1    2  502    0 -0.23400444888E+03  0.18324921414E+02  0.37966136225E+03  0.44635931134E+03  0.00000000000E+00 0. -1.
         22    1    3    3    0    0  0.19287777940E+03  0.58732445506E+02 -0.16294557502E+03  0.25923463958E+03  0.00000000000E+00 0. -1.
         22    1    3    3    0    0  0.37193962567E+02 -0.40886989669E+02 -0.87750568321E+02  0.10370775774E+03  0.00000000000E+00 0. -1.
</event>
<event>
 7    1  0.6122298E-006  0.5480838E+02  0.7818608E-02  0.1502424E+00
          2   -1    0    0  502    0  0.00000000000E+00  0.00000000000E+00  0.15844637105E+03  0.15844637105E+03  0.00000000000E+00 0. -1.
          1   -1    0    0  501    0 -0.00000000000E+00 -0.00000000000E+00 -0.85987705453E+03  0.85987705453E+03  0.00000000000E+00 0. -1.
         25    2    1    2    0    0 -0.93057135475E+01  0.71167346269E+02  0.43675887107E+01  0.14420528335E+03  0.12499880174E+03 0.  0.
          2    1    1    2  501    0 -0.14752534760E+02 -0.52635741403E+02 -0.78623848022E+03  0.78813647697E+03  0.00000000000E+00 0. -1.
          1    1    1    2  502    0  0.24058248308E+02 -0.18531604866E+02  0.80440208038E+02  0.85981665254E+02  0.00000000000E+00 0. -1.
         22    1    3    3    0    0  0.25023456884E+02 -0.25499892034E+02 -0.16771871142E+02  0.39467879976E+02  0.00000000000E+00 0.  1.
         22    1    3    3    0    0 -0.34329170431E+02  0.96667238303E+02  0.21139459853E+02  0.10473740338E+03  0.00000000000E+00 0.  1.
</event>
<event>
 7    1  0.6122298E-006  0.1330627E+03  0.7818608E-02  0.1322806E+00
          2   -1    0    0  502    0  0.00000000000E+00  0.00000000000E+00  0.60640583892E+02  0.60640583892E+02  0.00000000000E+00 0. -1.
          1   -1    0    0  501    0 -0.00000000000E+00 -0.00000000000E+00 -0.38705249118E+04  0.38705249118E+04  0.00000000000E+00 0. -1.
         25    2    1    2    0    0  0.14943465465E+03  0.98551087727E+01 -0.24954099423E+04  0.25030228553E+04  0.12499918011E+03 0.  0.
          2    1    1    2  501    0 -0.11453923750E+03 -0.46816960473E+02 -0.13565343199E+04  0.13621660787E+04  0.00000000000E+00 0. -1.
          1    1    1    2  502    0 -0.34895417150E+02  0.36961851700E+02  0.42059934314E+02  0.65976561699E+02  0.00000000000E+00 0. -1.
         22    1    3    3    0    0  0.33787609736E+02 -0.46355524197E+02 -0.11656353813E+04  0.11670459628E+04  0.00000000000E+00 0. -1.
         22    1    3    3    0    0  0.11564704492E+03  0.56210632969E+02 -0.13297745610E+04  0.13359768925E+04  0.00000000000E+00 0. -1.
</event>
<event>
 7    1  0.6122298E-006  0.1013065E+03  0.7818608E-02  0.1354400E+00
          2   -1    0    0  502    0  0.00000000000E+00  0.00000000000E+00  0.11416566742E+04  0.11416566742E+04  0.00000000000E+00 0. -1.
          1   -1    0    0  501    0 -0.00000000000E+00 -0.00000000000E+00 -0.89384997665E+02  0.89384997665E+02  0.00000000000E+00 0. -1.
         25    2    1    2    0    0 -0.48458483377E+02  0.11499424261E+02  0.99120490392E+03  0.10002967578E+04  0.12500392250E+03 0.  0.
          2    1    1    2  501    0  0.28945844381E+02  0.97083184953E+02 -0.62633088435E+01  0.10149992978E+03  0.00000000000E+00 0. -1.
          1    1    1    2  502    0  0.19512638996E+02 -0.10858260921E+03  0.67330081440E+02  0.12924498432E+03  0.00000000000E+00 0. -1.
         22    1    3    3    0    0 -0.12675648986E+02  0.49299621432E+02  0.81440075255E+03  0.81599001863E+03  0.00000000000E+00 0. -1.
         22    1    3    3    0    0 -0.35782834390E+02 -0.37800197170E+02  0.17680415137E+03  0.18430673912E+03  0.00000000000E+00 0. -1.
</event>
<event>
 7    1  0.6122298E-006  0.8894156E+02  0.7818608E-02  0.1420656E+00
          2   -1    0    0  502    0  0.00000000000E+00  0.00000000000E+00  0.87250036300E+02  0.87250036300E+02  0.00000000000E+00 0. -1.
          1   -1    0    0  501    0 -0.00000000000E+00 -0.00000000000E+00 -0.14988606592E+04  0.14988606592E+04  0.00000000000E+00 0. -1.
         25    2    1    2    0    0  0.47876562350E+02 -0.34582653727E+02 -0.59747447602E+03  0.61326083128E+03  0.12499989011E+03 0.  0.
          2    1    1    2  501    0  0.14587101253E+02 -0.30563122069E+02 -0.86739372376E+03  0.86805458352E+03  0.00000000000E+00 0. -1.
          1    1    1    2  502    0 -0.62463663603E+02  0.65145775796E+02  0.53257576837E+02  0.10479528074E+03  0.00000000000E+00 0. -1.
         22    1    3    3    0    0  0.32708630215E+02  0.18645117586E+02 -0.47990936808E+02  0.60996925464E+02  0.00000000000E+00 0.  1.
         22    1    3    3    0    0  0.15167932135E+02 -0.53227771314E+02 -0.54948353921E+03  0.55226390582E+03  0.00000000000E+00 0.  1.
</event>
<event>
 7    1  0.6122298E-006  0.3847381E+02  0.7818608E-02  0.1561155E+00
          2   -1    0    0  502    0  0.00000000000E+00  0.00000000000E+00  0.23428516715E+03  0.23428516715E+03  0.00000000000E+00 0. -1.
          1   -1    0    0  501    0 -0.00000000000E+00 -0.00000000000E+00 -0.49530308569E+03  0.49530308569E+03  0.00000000000E+00 0. -1.
         25    2    1    2    0    0  0.28263524168E+02  0.59598283046E+02 -0.61820447722E+02  0.15426440686E+03  0.12499982930E+03 0.  0.
          2    1    1    2  501    0 -0.60597606270E+01 -0.28756908014E+02 -0.38477474713E+03  0.38589543466E+03  0.00000000000E+00 0. -1.
          1    1    1    2  502    0 -0.22203763541E+02 -0.30841375032E+02  0.18557727632E+03  0.18942841132E+03  0.00000000000E+00 0. -1.
         22    1    3    3    0    0  0.47542641408E+02 -0.16766494157E+02 -0.55910555717E+02  0.75282191247E+02  0.00000000000E+00 0. -1.
         22    1    3    3    0    0 -0.19279117240E+02  0.76364777203E+02 -0.59098920048E+01  0.78982215608E+02  0.00000000000E+00 0. -1.
</event>
<event>
 7    1  0.6122298E-006  0.9861109E+02  0.7818608E-02  0.1433462E+00
          2   -1    0    0  502    0  0.00000000000E+00  0.00000000000E+00  0.24608458531E+03  0.24608458531E+03  0.00000000000E+00 0. -1.
          1   -1    0    0  501    0 -0.00000000000E+00 -0.00000000000E+00 -0.40129889674E+03  0.40129889674E+03  0.00000000000E+00 0. -1.
         25    2    1    2    0    0  0.97611103140E+02  0.69865678165E+02  0.61039120452E+02  0.18374013600E+03  0.12500209162E+03 0.  0.
          2    1    1    2  501    0 -0.24170056106E+02 -0.13547108526E+02 -0.32195820482E+03  0.32314826537E+03  0.00000000000E+00 0. -1.
          1    1    1    2  502    0 -0.73441047034E+02 -0.56318569639E+02  0.10570477293E+03  0.14049508068E+03  0.00000000000E+00 0. -1.
         22    1    3    3    0    0  0.80101243752E+02  0.70149178894E+02  0.96813424469E+02  0.14390954002E+03  0.00000000000E+00 0.  1.
         22    1    3    3    0    0  0.17509859388E+02 -0.28350072879E+00 -0.35774304017E+02  0.39830595983E+02  0.00000000000E+00 0.  1.
</event>
<event>
 7    1  0.6122298E-006  0.6054336E+02  0.7818608E-02  0.1485432E+00
          2   -1    0    0  502    0  0.00000000000E+00  0.00000000000E+00  0.21088784590E+04  0.21088784590E+04  0.00000000000E+00 0. -1.
          1   -1    0    0  501    0 -0.00000000000E+00 -0.00000000000E+00 -0.10397867510E+03  0.10397867510E+03  0.00000000000E+00 0. -1.
         25    2    1    2    0    0  0.56362921103E+02 -0.10822867165E+02  0.46759693562E+03  0.48740788387E+03  0.12500255088E+03 0.  0.
          2    1    1    2  501    0  0.13997405712E+01  0.30894921122E+02 -0.90941867691E+02  0.96056643309E+02  0.00000000000E+00 0. -1.
          1    1    1    2  502    0 -0.57762661674E+02 -0.20072053957E+02  0.16282447160E+04  0.16293926070E+04  0.00000000000E+00 0. -1.
         22    1    3    3    0    0  0.95730927378E+02  0.30699198179E+01  0.32952168542E+03  0.34315940323E+03  0.00000000000E+00 0. -1.
         22    1    3    3    0    0 -0.39368006274E+02 -0.13892786983E+02  0.13807525020E+03  0.14424848063E+03  0.00000000000E+00 0. -1.
</event>
<event>
 7    1  0.6122298E-006  0.8267345E+02  0.7818608E-02  0.1408385E+00
          2   -1    0    0  502    0  0.00000000000E+00  0.00000000000E+00  0.12187917710E+04  0.12187917710E+04  0.00000000000E+00 0. -1.
          1   -1    0    0  501    0 -0.00000000000E+00 -0.00000000000E+00 -0.63912917108E+03  0.63912917108E+03  0.00000000000E+00 0. -1.
         25    2    1    2    0    0  0.23750673929E+02  0.46484059027E+02 -0.16931822656E+03  0.21682837213E+03  0.12498407442E+03 0.  0.
          2    1    1    2  501    0 -0.58397490428E+02 -0.66612018748E+02 -0.44131719597E+03  0.45012031213E+03  0.00000000000E+00 0. -1.
          1    1    1    2  502    0  0.34646816499E+02  0.20127959721E+02  0.11902980225E+04  0.11909722579E+04  0.00000000000E+00 0. -1.
         22    1    3    3    0    0 -0.30630682461E+02  0.64340882503E+01  0.32957517103E+01  0.31472181033E+02  0.00000000000E+00 0. -1.
         22    1    3    3    0    0  0.54381356389E+02  0.40049970777E+02 -0.17261397827E+03  0.18535619109E+03  0.00000000000E+00 0. -1.
</event>
<event>
 7    1  0.6122298E-006  0.5897752E+02  0.7818608E-02  0.1413625E+00
          2   -1    0    0  502    0  0.00000000000E+00  0.00000000000E+00  0.13287170889E+04  0.13287170889E+04  0.00000000000E+00 0. -1.
          1   -1    0    0  501    0 -0.00000000000E+00 -0.00000000000E+00 -0.87940449831E+02  0.87940449831E+02  0.00000000000E+00 0. -1.
         25    2    1    2    0    0  0.33090533506E+02 -0.15570277230E+02  0.20239131736E+03  0.24067538380E+03  0.12499991233E+03 0.  0.
          2    1    1    2  501    0 -0.45883550415E+01  0.61342942821E+02 -0.54249041107E+02  0.82018096155E+02  0.00000000000E+00 0. -1.
          1    1    1    2  502    0 -0.28502178464E+02 -0.45772665590E+02  0.10926343628E+04  0.10939640587E+04  0.00000000000E+00 0. -1.
         22    1    3    3    0    0  0.39316350874E+02  0.42607289889E+02  0.15464936764E+03  0.16515926710E+03  0.00000000000E+00 0.  1.
         22    1    3    3    0    0 -0.62258173685E+01 -0.58177567120E+02  0.47741949720E+02  0.75516116696E+02  0.00000000000E+00 0.  1.
</event>
<event>
 7    1  0.6122298E-006  0.4806532E+02  0.7818608E-02  0.1469723E+00
          2   -1    0    0  502    0  0.00000000000E+00  0.00000000000E+00  0.90296819827E+03  0.90296819827E+03  0.00000000000E+00 0. -1.
          1   -1    0    0  501    0 -0.00000000000E+00 -0.00000000000E+00 -0.13046555939E+04  0.13046555939E+04  0.00000000000E+00 0. -1.
         25    2    1    2    0    0  0.47398486520E+02  0.61391666856E+02 -0.12876630907E+02  0.14766742914E+03  0.12499723486E+03 0.  0.
          2    1    1    2  501    0 -0.41270704688E+02 -0.13882657376E+02 -0.12233093430E+04  0.12240840445E+04  0.00000000000E+00 0. -1.
          1    1    1    2  502    0 -0.61277818316E+01 -0.47509009479E+02  0.83449857831E+03  0.83587231854E+03  0.00000000000E+00 0. -1.
         22    1    3    3    0    0  0.12466536452E+02 -0.11259677499E+02 -0.54438165561E+02  0.56971121967E+02  0.00000000000E+00 0. -1.
         22    1    3    3    0    0  0.34931950068E+02  0.72651344355E+02  0.41561534654E+02  0.90696307173E+02  0.00000000000E+00 0. -1.
</event>
<event>
 7    1  0.6122298E-006  0.2281357E+03  0.7818608E-02  0.1191536E+00
          2   -1    0    0  502    0  0.00000000000E+00  0.00000000000E+00  0.14853115058E+04  0.14853115058E+04  0.00000000000E+00 0. -1.
          1   -1    0    0  501    0 -0.00000000000E+00 -0.00000000000E+00 -0.16260072591E+04  0.16260072591E+04  0.00000000000E+00 0. -1.
         25    2    1    2    0    0  0.10980026887E+03  0.21561941048E+03 -0.25373215286E+03  0.37222704600E+03  0.12500055664E+03 0.  0.
          2    1    1    2  501    0 -0.18443957648E+03 -0.13652810050E+03 -0.13008976766E+04  0.13209816973E+04  0.00000000000E+00 0. -1.
          1    1    1    2  502    0  0.74639307607E+02 -0.79091309980E+02  0.14139340762E+04  0.14181100216E+04  0.00000000000E+00 0. -1.
         22    1    3    3    0    0  0.11284769255E+02  0.11154802727E+03 -0.17740345175E+03  0.20986255764E+03  0.00000000000E+00 0.  1.
         22    1    3    3    0    0  0.98515499618E+02  0.10407138321E+03 -0.76328701102E+02  0.16236448836E+03  0.00000000000E+00 0.  1.
</event>
<event>
 7    1  0.6122298E-006  0.7463560E+02  0.7818608E-02  0.1426473E+00
          2   -1    0    0  502    0  0.00000000000E+00  0.00000000000E+00  0.78123075776E+03  0.78123075776E+03  0.00000000000E+00 0. -1.
          1   -1    0    0  501    0 -0.00000000000E+00 -0.00000000000E+00 -0.58331982205E+03  0.58331982205E+03  0.00000000000E+00 0. -1.
         25    2    1    2    0    0 -0.56276970007E+02 -0.48572875793E+02 -0.52512387377E+02  0.15462813392E+03  0.12500354937E+03 0.  0.
          2    1    1    2  501    0 -0.17219019583E+02  0.34546785108E+02 -0.47705115759E+03  0.47861026102E+03  0.00000000000E+00 0. -1.
          1    1    1    2  502    0  0.73495989590E+02  0.14026090685E+02  0.72747448068E+03  0.73131218487E+03  0.00000000000E+00 0. -1.
         22    1    3    3    0    0 -0.62547538142E+02 -0.84606832715E+02 -0.53504585077E+02  0.11803919389E+03  0.00000000000E+00 0. -1.
         22    1    3    3    0    0  0.62705681352E+01  0.36033956923E+02  0.99219769987E+00  0.36588940030E+02  0.00000000000E+00 0. -1.
</event>
<event>
 7    1  0.6122298E-006  0.4622234E+02  0.7818608E-02  0.1484189E+00
          2   -1    0    0  502    0  0.00000000000E+00  0.00000000000E+00  0.18754747502E+04  0.18754747502E+04  0.00000000000E+00 0. -1.
          1   -1    0    0  501    0 -0.00000000000E+00 -0.00000000000E+00 -0.40774742520E+03  0.40774742520E+03  0.00000000000E+00 0. -1.
         25    2    1    2    0    0 -0.19389240281E+02  0.80959318931E+02  0.96175396499E+02  0.17833956678E+03  0.12499976090E+03 0.  0.
          2    1    1    2  501    0  0.21058494989E+02 -0.35019152505E+02 -0.36522174620E+03  0.36750064646E+03  0.00000000000E+00 0. -1.
          1    1    1    2  502    0 -0.16692547085E+01 -0.45940166425E+02  0.17367736747E+04  0.17373819622E+04  0.00000000000E+00 0. -1.
         22    1    3    3    0    0 -0.70077793940E+02  0.67631649376E+02  0.56387728401E+02  0.11253671896E+03  0.00000000000E+00 0.  1.
         22    1    3    3    0    0  0.50688553659E+02  0.13327669555E+02  0.39787668098E+02  0.65802847815E+02  0.00000000000E+00 0.  1.
</event>
<event>
 7    1  0.6122298E-006  0.1489208E+03  0.7818608E-02  0.1284903E+00
          2   -1    0    0  502    0  0.00000000000E+00  0.00000000000E+00  0.16705774969E+04  0.16705774969E+04  0.00000000000E+00 0. -1.
          1   -1    0    0  501    0 -0.00000000000E+00 -0.00000000000E+00 -0.45857119376E+03  0.45857119376E+03  0.00000000000E+00 0. -1.
         25    2    1    2    0    0 -0.13800015643E+03  0.14125496263E+03  0.87885135293E+03  0.90939626828E+03  0.12499945832E+03 0.  0.
          2    1    1    2  501    0  0.12610730801E+03 -0.78083090131E+02 -0.42950166180E+03  0.45439157078E+03  0.00000000000E+00 0. -1.
          1    1    1    2  502    0  0.11892848413E+02 -0.63171872498E+02  0.76265661200E+03  0.76536085159E+03  0.00000000000E+00 0. -1.
         22    1    3    3    0    0 -0.10002217973E+03  0.20133929340E+02  0.48422671457E+03  0.49485889166E+03  0.00000000000E+00 0. -1.
         22    1    3    3    0    0 -0.37977976692E+02  0.12112103329E+03  0.39462463836E+03  0.41453737663E+03  0.00000000000E+00 0. -1.
</event>
<event>
 7    1  0.6122298E-006  0.1010632E+03  0.7818608E-02  0.1408290E+00
          2   -1    0    0  502    0  0.00000000000E+00  0.00000000000E+00  0.14874532160E+04  0.14874532160E+04  0.00000000000E+00 0. -1.
          1   -1    0    0  501    0 -0.00000000000E+00 -0.00000000000E+00 -0.70528089574E+02  0.70528089574E+02  0.00000000000E+00 0. -1.
         25    2    1    2    0    0 -0.76274719348E+02  0.31668871026E+02  0.46202526907E+03  0.48570877390E+03  0.12499965431E+03 0.  0.
          2    1    1    2  501    0 -0.86074226835E+01  0.31653012072E+02 -0.51095504009E+02  0.60718625053E+02  0.00000000000E+00 0. -1.
          1    1    1    2  502    0  0.84882142031E+02 -0.63321883097E+02  0.10059953613E+04  0.10115539066E+04  0.00000000000E+00 0. -1.
         22    1    3    3    0    0 -0.64850114307E+02 -0.20931751317E+02  0.38936284836E+03  0.39528104333E+03  0.00000000000E+00 0. -1.
         22    1    3    3    0    0 -0.11424605040E+02  0.52600622342E+02  0.72662420718E+02  0.90427730568E+02  0.00000000000E+00 0. -1.
</event>
<event>
 7    1  0.6122298E-006  0.1702896E+03  0.7818608E-02  0.1208135E+00
          2   -1    0    0  502    0  0.00000000000E+00  0.00000000000E+00  0.31875424399E+03  0.31875424399E+03  0.00000000000E+00 0. -1.
          1   -1    0    0  501    0 -0.00000000000E+00 -0.00000000000E+00 -0.17100718431E+04  0.17100718431E+04  0.00000000000E+00 0. -1.
         25    2    1    2    0    0  0.18866514902E+03 -0.13692729539E+02 -0.18947735990E+03  0.29548105493E+03  0.12500141844E+03 0.  0.
          2    1    1    2  501    0 -0.14131152482E+03 -0.98365979236E+02 -0.14482987629E+04  0.14584972127E+04  0.00000000000E+00 0. -1.
          1    1    1    2  502    0 -0.47353624204E+02  0.11205870877E+03  0.24645852370E+03  0.27484781942E+03  0.00000000000E+00 0. -1.
         22    1    3    3    0    0  0.26095086297E+02  0.42621209443E+02 -0.70034131434E+02  0.86036623533E+02  0.00000000000E+00 0. -1.
         22    1    3    3    0    0  0.16257006273E+03 -0.56313938982E+02 -0.11944322847E+03  0.20944443140E+03  0.00000000000E+00 0. -1.
</event>
<event>
 7    1  0.6122298E-006  0.7740623E+02  0.7818608E-02  0.1413906E+00
          2   -1    0    0  502    0  0.00000000000E+00  0.00000000000E+00  0.14523688120E+03  0.14523688120E+03  0.00000000000E+00 0. -1.
          1   -1    0    0  501    0 -0.00000000000E+00 -0.00000000000E+00 -0.94507277665E+03  0.94507277665E+03  0.00000000000E+00 0. -1.
         25    2    1    2    0    0 -0.26899451560E+02 -0.31183246360E+02 -0.63809891152E+02  0.14625972948E+03  0.12499692361E+03 0.  0.
          2    1    1    2  501    0  0.65917969001E+02  0.43756449920E+02 -0.83405253909E+03  0.83779677936E+03  0.00000000000E+00 0. -1.
          1    1    1    2  502    0 -0.39018517441E+02 -0.12573203560E+02  0.98026534787E+02  0.10625314901E+03  0.00000000000E+00 0. -1.
         22    1    3    3    0    0  0.44737435015E+02  0.13390313604E+02 -0.29125376795E+02  0.55036589316E+02  0.00000000000E+00 0.  1.
         22    1    3    3    0    0 -0.71636886575E+02 -0.44573559964E+02 -0.34684514357E+02  0.91223140168E+02  0.00000000000E+00 0.  1.
</event>
<event>
 7    1  0.6122298E-006  0.6263822E+02  0.7818608E-02  0.1440472E+00
          2   -1    0    0  502    0  0.00000000000E+00  0.00000000000E+00  0.78607456598E+03  0.78607456598E+03  0.00000000000E+00 0. -1.
          1   -1    0    0  501    0 -0.00000000000E+00 -0.00000000000E+00 -0.37512223607E+02  0.37512223607E+02  0.00000000000E+00 0. -1.
         25    2    1    2    0    0 -0.54667935310E+02  0.47737592994E+02  0.67981359710E+03  0.69501013983E+03  0.12500042688E+03 0.  0.
          2    1    1    2  501    0  0.62375338612E+02 -0.70771291942E+01  0.22923252623E+02  0.66829964352E+02  0.00000000000E+00 0. -1.
          1    1    1    2  502    0 -0.77074033014E+01 -0.40660463800E+02  0.45825492641E+02  0.61746685400E+02  0.00000000000E+00 0. -1.
         22    1    3    3    0    0 -0.27235331562E+02 -0.17311076007E+02  0.51115251560E+03  0.51217021667E+03  0.00000000000E+00 0. -1.
         22    1    3    3    0    0 -0.27432603748E+02  0.65048669001E+02  0.16866108150E+03  0.18283992316E+03  0.00000000000E+00 0. -1.
</event>
<event>
 7    1  0.6122298E-006  0.6351767E+02  0.7818608E-02  0.1408669E+00
          2   -1    0    0  502    0  0.00000000000E+00  0.00000000000E+00  0.74729300672E+03  0.74729300672E+03  0.00000000000E+00 0. -1.
          1   -1    0    0  501    0 -0.00000000000E+00 -0.00000000000E+00 -0.25763025809E+04  0.25763025809E+04  0.00000000000E+00 0. -1.
         25    2    1    2    0    0  0.14595963100E+02 -0.68106059600E+01  0.22277339732E+02  0.12798509367E+03  0.12499791135E+03 0.  0.
          2    1    1    2  501    0  0.49927011724E+02  0.14670552943E+02 -0.25216082124E+04  0.25221451006E+04  0.00000000000E+00 0. -1.
          1    1    1    2  502    0 -0.64522974824E+02 -0.78599469832E+01  0.67032129841E+03  0.67346539343E+03  0.00000000000E+00 0. -1.
         22    1    3    3    0    0 -0.46048885174E+01  0.54364069926E+02  0.31822763482E+02  0.63161264813E+02  0.00000000000E+00 0.  1.
         22    1    3    3    0    0  0.19200851618E+02 -0.61174675886E+02 -0.95454237491E+01  0.64823828853E+02  0.00000000000E+00 0.  1.
</event>
<event>
 7    1  0.6122298E-006  0.8063154E+02  0.7818608E-02  0.1493788E+00
          2   -1    0    0  502    0  0.00000000000E+00  0.00000000000E+00  0.18788950522E+03  0.18788950522E+03  0.00000000000E+00 0. -1.
          1   -1    0    0  501    0 -0.00000000000E+00 -0.00000000000E+00 -0.24141673443E+03  0.24141673443E+03  0.00000000000E+00 0. -1.
         25    2    1    2    0    0 -0.93904301288E+02 -0.64426337696E+01  0.26296321741E+02  0.15867016605E+03  0.12500079891E+03 0.  0.
          2    1    1    2  501    0  0.76845793335E+02  0.20188923517E+02 -0.16476132866E+03  0.18291846273E+03  0.00000000000E+00 0. -1.
          1    1    1    2  502    0  0.17058507953E+02 -0.13746289747E+02  0.84937777702E+02  0.87717610867E+02  0.00000000000E+00 0. -1.
         22    1    3    3    0    0 -0.79073192772E+02  0.23504330588E+02  0.66808931955E+02  0.10615298753E+03  0.00000000000E+00 0. -1.
         22    1    3    3    0    0 -0.14831108516E+02 -0.29946964358E+02 -0.40512610214E+02  0.52517178527E+02  0.00000000000E+00 0. -1.
</event>
<event>
 7    1  0.6122298E-006  0.1396235E+03  0.7818608E-02  0.1385937E+00
          2   -1    0    0  502    0  0.00000000000E+00  0.00000000000E+00  0.22309882825E+04  0.22309882825E+04  0.00000000000E+00 0. -1.
          1   -1    0    0  501    0 -0.00000000000E+00 -0.00000000000E+00 -0.17990526506E+03  0.17990526506E+03  0.00000000000E+00 0. -1.
         25    2    1    2    0    0  0.11141978888E+03 -0.94689688727E+02  0.11111057510E+04  0.11276351444E+04  0.12499809000E+03 0.  0.
          2    1    1    2  501    0 -0.86984931796E+02  0.10908906467E+03 -0.14307019524E+03  0.19983964361E+03  0.00000000000E+00 0. -1.
          1    1    1    2  502    0 -0.24434857083E+02 -0.14399375942E+02  0.10830474617E+04  0.10834187596E+04  0.00000000000E+00 0. -1.
         22    1    3    3    0    0  0.13162246735E+03 -0.10186461074E+03  0.88491846450E+03  0.90043409623E+03  0.00000000000E+00 0. -1.
         22    1    3    3    0    0 -0.20202678470E+02  0.71749220106E+01  0.22618728646E+03  0.22720104815E+03  0.00000000000E+00 0. -1.
</event>
<event>
 7    1  0.6122298E-006  0.5236407E+02  0.7818608E-02  0.1444822E+00
          2   -1    0    0  502    0  0.00000000000E+00  0.00000000000E+00  0.64391992235E+02  0.64391992235E+02  0.00000000000E+00 0. -1.
          1   -1    0    0  501    0 -0.00000000000E+00 -0.00000000000E+00 -0.82661051450E+03  0.82661051450E+03  0.00000000000E+00 0. -1.
         25    2    1    2    0    0 -0.16889537398E+02  0.75634710139E+01 -0.34247847033E+03  0.36504648514E+03  0.12499988442E+03 0.  0.
          2    1    1    2  501    0  0.33857110911E+02  0.41975371444E+02 -0.45796192687E+03  0.46112618906E+03  0.00000000000E+00 0. -1.
          1    1    1    2  502    0 -0.16967573513E+02 -0.49538842458E+02  0.38221874941E+02  0.64829832539E+02  0.00000000000E+00 0. -1.
         22    1    3    3    0    0 -0.20045819993E+02 -0.17507591927E+02 -0.33840656598E+03  0.33945154967E+03  0.00000000000E+00 0. -1.
         22    1    3    3    0    0  0.31562825943E+01  0.25071062941E+02 -0.40719043540E+01  0.25594935473E+02  0.00000000000E+00 0. -1.
</event>
<event>
 7    1  0.6122298E-006  0.1353610E+03  0.7818608E-02  0.1260225E+00
          2   -1    0    0  502    0  0.00000000000E+00  0.00000000000E+00  0.24743600179E+03  0.24743600179E+03  0.00000000000E+00 0. -1.
          1   -1    0    0  501    0 -0.00000000000E+00 -0.00000000000E+00 -0.21370438351E+04  0.21370438351E+04  0.00000000000E+00 0. -1.
         25    2    1    2    0    0 -0.15214718048E+03  0.12736653076E+03 -0.12736962798E+04  0.12951054528E+04  0.12499969246E+03 0.  0.
          2    1    1    2  501    0  0.99664403584E+02 -0.54630393305E+02 -0.84018126198E+03  0.84783372556E+03  0.00000000000E+00 0. -1.
          1    1    1    2  502    0  0.52482776894E+02 -0.72736137455E+02  0.22426970847E+03  0.24154065848E+03  0.00000000000E+00 0. -1.
         22    1    3    3    0    0 -0.64590391260E+02  0.13186074238E+03 -0.79182127857E+03  0.80531988130E+03  0.00000000000E+00 0.  1.
         22    1    3    3    0    0 -0.87556789218E+02 -0.44942116231E+01 -0.48187500120E+03  0.48978557151E+03  0.00000000000E+00 0.  1.
</event>
<event>
 7    1  0.6122298E-006  0.7494683E+02  0.7818608E-02  0.1360992E+00
          2   -1    0    0  502    0  0.00000000000E+00  0.00000000000E+00  0.11782813253E+03  0.11782813253E+03  0.00000000000E+00 0. -1.
          1   -1    0    0  501    0 -0.00000000000E+00 -0.00000000000E+00 -0.11759322790E+04  0.11759322790E+04  0.00000000000E+00 0. -1.
         25    2    1    2    0    0  0.68690943750E+02 -0.17025472380E+02 -0.63865517340E+03  0.65460963594E+03  0.12500013000E+03 0.  0.
          2    1    1    2  501    0 -0.69701295572E+02 -0.47854523334E+02 -0.51596727937E+03  0.52284850519E+03  0.00000000000E+00 0. -1.
          1    1    1    2  502    0  0.10103518227E+01  0.64879995714E+02  0.96518306278E+02  0.11630227040E+03  0.00000000000E+00 0. -1.
         22    1    3    3    0    0  0.41326796705E+02 -0.34786751398E+02 -0.60616632871E+03  0.60856851731E+03  0.00000000000E+00 0. -1.
         22    1    3    3    0    0  0.27364147044E+02  0.17761279018E+02 -0.32488844682E+02  0.46041118629E+02  0.00000000000E+00 0. -1.
</event>
<event>
 7    1  0.6122298E-006  0.1248816E+03  0.7818608E-02  0.1339284E+00
          2   -1    0    0  502    0  0.00000000000E+00  0.00000000000E+00  0.59615385917E+03  0.59615385917E+03  0.00000000000E+00 0. -1.
          1   -1    0    0  501    0 -0.00000000000E+00 -0.00000000000E+00 -0.35213784618E+03  0.35213784618E+03  0.00000000000E+00 0. -1.
         25    2    1    2    0    0 -0.21091567897E+01  0.97103041602E+02  0.69189549461E+02  0.17274827453E+03  0.12498529261E+03 0.  0.
          2    1    1    2  501    0 -0.38477158485E+02  0.26753212112E+02 -0.28950123351E+03  0.29326982506E+03  0.00000000000E+00 0. -1.
          1    1    1    2  502    0  0.40586315275E+02 -0.12385625371E+03  0.46432769704E+03  0.48227360575E+03  0.00000000000E+00 0. -1.
         22    1    3    3    0    0  0.20159165148E+02 -0.25212424923E+02  0.44802642903E+01  0.32590352530E+02  0.00000000000E+00 0. -1.
         22    1    3    3    0    0 -0.22268321938E+02  0.12231546652E+03  0.64709285171E+02  0.14015792200E+03  0.00000000000E+00 0. -1.
</event>
<event>
 7    1  0.6122298E-006  0.2073450E+03  0.7818608E-02  0.1332012E+00
          2   -1    0    0  502    0  0.00000000000E+00  0.00000000000E+00  0.95272938280E+03  0.95272938280E+03  0.00000000000E+00 0. -1.
          1   -1    0    0  501    0 -0.00000000000E+00 -0.00000000000E+00 -0.42564860665E+03  0.42564860665E+03  0.00000000000E+00 0. -1.
         25    2    1    2    0    0  0.99360947174E+02  0.15510826750E+03  0.63891331130E+03  0.67658102455E+03  0.12498196251E+03 0.  0.
          2    1    1    2  501    0 -0.12797177301E+03 -0.16437335231E+03 -0.37924874887E+03  0.43269502788E+03  0.00000000000E+00 0. -1.
          1    1    1    2  502    0  0.28610825836E+02  0.92650848133E+01  0.26741621371E+03  0.26910193702E+03  0.00000000000E+00 0. -1.
         22    1    3    3    0    0 -0.10667080353E+01  0.11204280363E+03  0.28716266889E+03  0.30824848112E+03  0.00000000000E+00 0. -1.
         22    1    3    3    0    0  0.10042765521E+03  0.43065463864E+02  0.35175064241E+03  0.36833254343E+03  0.00000000000E+00 0. -1.
</event>
<event>
 7    1  0.6122298E-006  0.2883782E+03  0.7818608E-02  0.1275870E+00
          2   -1    0    0  502    0  0.00000000000E+00  0.00000000000E+00  0.20488369391E+04  0.20488369391E+04  0.00000000000E+00 0. -1.
          1   -1    0    0  501    0 -0.00000000000E+00 -0.00000000000E+00 -0.35523135894E+03  0.35523135894E+03  0.00000000000E+00 0. -1.
         25    2    1    2    0    0  0.21579235765E+03 -0.23693060256E+03  0.57128293753E+03  0.66685289234E+03  0.12500453296E+03 0.  0.
          2    1    1    2  501    0 -0.19662851610E+03  0.20625132538E+03 -0.24112523526E+03  0.37328777323E+03  0.00000000000E+00 0. -1.
          1    1    1    2  502    0 -0.19163841548E+02  0.30679277180E+02  0.13634478779E+04  0.13639276324E+04  0.00000000000E+00 0. -1.
         22    1    3    3    0    0  0.92064422529E+02 -0.18325306292E+03  0.29337860934E+03  0.35795048734E+03  0.00000000000E+00 0.  1.
         22    1    3    3    0    0  0.12372793512E+03 -0.53677539632E+02  0.27790432819E+03  0.30890240500E+03  0.00000000000E+00 0.  1.
</event>
<event>
 7    1  0.6122298E-006  0.2116393E+03  0.7818608E-02  0.1182144E+00
          2   -1    0    0  502    0  0.00000000000E+00  0.00000000000E+00  0.57000983494E+03  0.57000983494E+03  0.00000000000E+00 0. -1.
          1   -1    0    0  501    0 -0.00000000000E+00 -0.00000000000E+00 -0.14168694336E+04  0.14168694336E+04  0.00000000000E+00 0. -1.
         25    2    1    2    0    0  0.10363218838E+03  0.11359464397E+03 -0.26453085902E+03  0.33052008819E+03  0.12499431874E+03 0.  0.
          2    1    1    2  501    0 -0.55091907050E+02 -0.23431817502E+03 -0.10982315034E+04  0.11243009208E+04  0.00000000000E+00 0. -1.
          1    1    1    2  502    0 -0.48540281326E+02  0.12072353105E+03  0.51590276380E+03  0.53205825955E+03  0.00000000000E+00 0. -1.
         22    1    3    3    0    0  0.55306425147E+02  0.11262196486E+03 -0.10430621462E+03  0.16316339675E+03  0.00000000000E+00 0.  1.
         22    1    3    3    0    0  0.48325763229E+02  0.97267911173E+00 -0.16022464440E+03  0.16735669144E+03  0.00000000000E+00 0.  1.
</event>
<event>
 7    1  0.8708124E-006  0.9957893E+02  0.7818608E-02  0.1340968E+00
          2   -1    0    0  502    0  0.00000000000E+00  0.00000000000E+00  0.12614794114E+04  0.12614794114E+04  0.00000000000E+00 0. -1.
          1   -1    0    0  501    0 -0.00000000000E+00 -0.00000000000E+00 -0.98577101232E+03  0.98577101232E+03  0.00000000000E+00 0. -1.
         25    2    1    2    0    0  0.44182737150E+01 -0.43442884063E+02 -0.42559506962E+02  0.13908208014E+03  0.12500283222E+03 0.  0.
          2    1    1    2  501    0  0.19311998532E+02 -0.54606523863E+02 -0.89191216692E+03  0.89379088116E+03  0.00000000000E+00 0. -1.
          1    1    1    2  502    0 -0.23730272247E+02  0.98049407927E+02  0.12101800729E+04  0.12143774624E+04  0.00000000000E+00 0. -1.
         22    1    3    3    0    0  0.20804419765E+02 -0.58509023893E+02 -0.76476533246E+02  0.98512892030E+02  0.00000000000E+00 0. -1.
         22    1    3    3    0    0 -0.16386146050E+02  0.15066139830E+02  0.33917026284E+02  0.40569188108E+02  0.00000000000E+00 0. -1.
</event>
<event>
 7    1  0.6122298E-006  0.7548133E+02  0.7818608E-02  0.1477811E+00
          2   -1    0    0  502    0  0.00000000000E+00  0.00000000000E+00  0.23285286525E+03  0.23285286525E+03  0.00000000000E+00 0. -1.
          1   -1    0    0  501    0 -0.00000000000E+00 -0.00000000000E+00 -0.17401170252E+03  0.17401170252E+03  0.00000000000E+00 0. -1.
         25    2    1    2    0    0 -0.20605558498E+02  0.54548179229E+02 -0.52569815487E+02  0.14760639354E+03  0.12499587599E+03 0.  0.
          2    1    1    2  501    0  0.26426047111E+02 -0.80067692469E+02 -0.48465876366E+02  0.97252827801E+02  0.00000000000E+00 0. -1.
          1    1    1    2  502    0 -0.58204886126E+01  0.25519513240E+02  0.15987685458E+03  0.16200534644E+03  0.00000000000E+00 0. -1.
         22    1    3    3    0    0  0.32548700233E+02 -0.22350765127E+02  0.16875987193E+01  0.39519901038E+02  0.00000000000E+00 0.  1.
         22    1    3    3    0    0 -0.53154258731E+02  0.76898944356E+02 -0.54257414206E+02  0.10808649250E+03  0.00000000000E+00 0.  1.
</event>
<event>
 7    1  0.6122298E-006  0.5592083E+02  0.7818608E-02  0.1424324E+00
          2   -1    0    0  502    0  0.00000000000E+00  0.00000000000E+00  0.85468760591E+03  0.85468760591E+03  0.00000000000E+00 0. -1.
          1   -1    0    0  501    0 -0.00000000000E+00 -0.00000000000E+00 -0.24020089064E+03  0.24020089064E+03  0.00000000000E+00 0. -1.
         25    2    1    2    0    0 -0.60392224038E+02  0.76586092577E+02  0.86841977318E+01  0.15878134171E+03  0.12499379539E+03 0.  0.
          2    1    1    2  501    0  0.14023069816E+02 -0.52243444824E+02 -0.15980437674E+03  0.16871118173E+03  0.00000000000E+00 0. -1.
          1    1    1    2  502    0  0.46369154223E+02 -0.24342647753E+02  0.76560689428E+03  0.76739597310E+03  0.00000000000E+00 0. -1.
         22    1    3    3    0    0 -0.75562437468E+02  0.68222755834E+02 -0.38249948145E+02  0.10875240183E+03  0.00000000000E+00 0.  1.
         22    1    3    3    0    0  0.15170213429E+02  0.83633367432E+01  0.46934145877E+02  0.50028939887E+02  0.00000000000E+00 0.  1.
</event>
<event>
 7    1  0.6122298E-006  0.1072210E+03  0.7818608E-02  0.1426611E+00
          2   -1    0    0  502    0  0.00000000000E+00  0.00000000000E+00  0.22594895333E+04  0.22594895333E+04  0.00000000000E+00 0. -1.
          1   -1    0    0  501    0 -0.00000000000E+00 -0.00000000000E+00 -0.17797161082E+03  0.17797161082E+03  0.00000000000E+00 0. -1.
         25    2    1    2    0    0  0.60118763648E+02 -0.85072977977E+02 -0.13170295973E+03  0.20933501719E+03  0.12499520989E+03 0.  0.
          2    1    1    2  501    0 -0.22099566716E+02 -0.15233255481E+02  0.23194784972E+02  0.35474511575E+02  0.00000000000E+00 0. -1.
          1    1    1    2  502    0 -0.38019196932E+02  0.10030623346E+03  0.21900260973E+04  0.21926516154E+04  0.00000000000E+00 0. -1.
         22    1    3    3    0    0  0.51069213361E+02  0.17352040951E+02 -0.73544966548E+02  0.91203179676E+02  0.00000000000E+00 0.  1.
         22    1    3    3    0    0  0.90495502870E+01 -0.10242501893E+03 -0.58157993180E+02  0.11813183751E+03  0.00000000000E+00 0.  1.
</event>
<event>
 7    1  0.7819788E-006  0.8107955E+02  0.7818608E-02  0.1387630E+00
          2   -1    0    0  502    0  0.00000000000E+00  0.00000000000E+00  0.19662564022E+04  0.19662564022E+04  0.00000000000E+00 0. -1.
          1   -1    0    0  501    0 -0.00000000000E+00 -0.00000000000E+00 -0.11705687980E+04  0.11705687980E+04  0.00000000000E+00 0. -1.
         25    2    1    2    0    0 -0.15567776992E+02  0.29644149434E+02 -0.16852816629E+02  0.13049763256E+03  0.12499793358E+03 0.  0.
          2    1    1    2  501    0 -0.20567225688E+02  0.43567493660E+02 -0.10954911546E+04  0.10965500477E+04  0.00000000000E+00 0. -1.
          1    1    1    2  502    0  0.36135002680E+02 -0.73211643095E+02  0.19080315754E+04  0.19097775200E+04  0.00000000000E+00 0. -1.
         22    1    3    3    0    0  0.24791875308E+01 -0.88477798894E+01  0.50238102587E+02  0.51071484522E+02  0.00000000000E+00 0.  1.
         22    1    3    3    0    0 -0.18046964523E+02  0.38491929324E+02 -0.67090919216E+02  0.79426148042E+02  0.00000000000E+00 0.  1.
</event>
<event>
 7    1  0.6122298E-006  0.2106247E+03  0.7818608E-02  0.1232968E+00
          2   -1    0    0  502    0  0.00000000000E+00  0.00000000000E+00  0.22185401409E+04  0.22185401409E+04  0.00000000000E+00 0. -1.
          1   -1    0    0  501    0 -0.00000000000E+00 -0.00000000000E+00 -0.26691699444E+04  0.26691699444E+04  0.00000000000E+00 0. -1.
         25    2    1    2    0    0 -0.58012197533E+02  0.14568901077E+03 -0.13998160656E+03  0.24456321944E+03  0.12500246080E+03 0.  0.
          2    1    1    2  501    0  0.25899054956E+02 -0.21435019990E+03 -0.24715265846E+04  0.24809394245E+04  0.00000000000E+00 0. -1.
          1    1    1    2  502    0  0.32113142577E+02  0.68661189132E+02  0.21608783877E+04  0.21622074413E+04  0.00000000000E+00 0. -1.
         22    1    3    3    0    0 -0.69030990138E+02  0.14233077713E+03 -0.68878092302E+02  0.17253266160E+03  0.00000000000E+00 0.  1.
         22    1    3    3    0    0  0.11018792604E+02  0.33582336354E+01 -0.71103514256E+02  0.72030557843E+02  0.00000000000E+00 0.  1.
</event>
<event>
 7    1  0.6122298E-006  0.1326106E+03  0.7818608E-02  0.1377556E+00
          2   -1    0    0  502    0  0.00000000000E+00  0.00000000000E+00  0.29441454959E+03  0.29441454959E+03  0.00000000000E+00 0. -1.
          1   -1    0    0  501    0 -0.00000000000E+00 -0.00000000000E+00 -0.16575505355E+04  0.16575505355E+04  0.00000000000E+00 0. -1.
         25    2    1    2    0    0 -0.11198277590E+03 -0.56055669357E+02 -0.54287929694E+03  0.57098721841E+03  0.12500436945E+03 0.  0.
          2    1    1    2  501    0  0.13197709517E+03  0.31111362830E+02 -0.10955123905E+04  0.11038719438E+04  0.00000000000E+00 0. -1.
          1    1    1    2  502    0 -0.19994319275E+02  0.24944306528E+02  0.27525570157E+03  0.27710592285E+03  0.00000000000E+00 0. -1.
         22    1    3    3    0    0 -0.10679424169E+03 -0.17606704822E+02 -0.21387243917E+03  0.23970070160E+03  0.00000000000E+00 0. -1.
         22    1    3    3    0    0 -0.51885342044E+01 -0.38448964535E+02 -0.32900685776E+03  0.33128651681E+03  0.00000000000E+00 0. -1.
</event>
<event>
 7    1  0.6122298E-006  0.2094732E+03  0.7818608E-02  0.1248143E+00
          2   -1    0    0  502    0  0.00000000000E+00  0.00000000000E+00  0.20447861745E+04  0.20447861745E+04  0.00000000000E+00 0. -1.
          1   -1    0    0  501    0 -0.00000000000E+00 -0.00000000000E+00 -0.26140881267E+03  0.26140881267E+03  0.00000000000E+00 0. -1.
         25    2    1    2    0    0 -0.99475363603E+02  0.15317532035E+03  0.41587445355E+03  0.47109810170E+03  0.12499533423E+03 0.  0.
          2    1    1    2  501    0  0.34844448090E+02  0.55274968883E+02 -0.22162330951E+03  0.23105486159E+03  0.00000000000E+00 0. -1.
          1    1    1    2  502    0  0.64630915513E+02 -0.20845028923E+03  0.15891262177E+04  0.16040420238E+04  0.00000000000E+00 0. -1.
         22    1    3    3    0    0 -0.12153758550E+03  0.86504529107E+02  0.31034517913E+03  0.34433784058E+03  0.00000000000E+00 0.  1.
         22    1    3    3    0    0  0.22062221892E+02  0.66670791241E+02  0.10552927443E+03  0.12676026112E+03  0.00000000000E+00 0.  1.
</event>
<event>
 7    1  0.6122298E-006  0.1167758E+03  0.7818608E-02  0.1269220E+00
          2   -1    0    0  502    0  0.00000000000E+00  0.00000000000E+00  0.53731695048E+03  0.53731695048E+03  0.00000000000E+00 0. -1.
          1   -1    0    0  501    0 -0.00000000000E+00 -0.00000000000E+00 -0.17831859242E+03  0.17831859242E+03  0.00000000000E+00 0. -1.
         25    2    1    2    0    0 -0.17130225751E+03 -0.91701733359E+02  0.56071700860E+02  0.23774459252E+03  0.12499913721E+03 0.  0.
          2    1    1    2  501    0  0.82333121240E+02  0.57723760713E+02 -0.50030230419E+02  0.11231117202E+03  0.00000000000E+00 0. -1.
          1    1    1    2  502    0  0.88969136273E+02  0.33977972646E+02  0.35295688761E+03  0.36557977836E+03  0.00000000000E+00 0. -1.
         22    1    3    3    0    0 -0.33365600401E+02 -0.41194674707E+02  0.72633009658E+02  0.89921179965E+02  0.00000000000E+00 0. -1.
         22    1    3    3    0    0 -0.13793665711E+03 -0.50507058652E+02 -0.16561308798E+02  0.14782341255E+03  0.00000000000E+00 0. -1.
</event>
<event>
 7    1  0.6122298E-006  0.2413277E+03  0.7818608E-02  0.1280681E+00
          2   -1    0    0  502    0  0.00000000000E+00  0.00000000000E+00  0.26600113229E+04  0.26600113229E+04  0.00000000000E+00 0. -1.
          1   -1    0    0  501    0 -0.00000000000E+00 -0.00000000000E+00 -0.14366032288E+03  0.14366032288E+03  0.00000000000E+00 0. -1.
         25    2    1    2    0    0 -0.18702616558E+03  0.12482663182E+03  0.28229110296E+03  0.38193429969E+03  0.12500027139E+03 0.  0.
          2    1    1    2  501    0 -0.34380666437E+02 -0.22858520097E+02 -0.82570982053E+02  0.92317437371E+02  0.00000000000E+00 0. -1.
          1    1    1    2  502    0  0.22140683201E+03 -0.10196811173E+03  0.23166308791E+04  0.23294199087E+04  0.00000000000E+00 0. -1.
         22    1    3    3    0    0 -0.13205341959E+03  0.75008822791E+02  0.91685015694E+02  0.17739946794E+03  0.00000000000E+00 0. -1.
         22    1    3    3    0    0 -0.54972745989E+02  0.49817809032E+02  0.19060608727E+03  0.20453483176E+03  0.00000000000E+00 0. -1.
</event>
<event>
 7    1  0.6122298E-006  0.1213315E+03  0.7818608E-02  0.1242366E+00
          2   -1    0    0  502    0  0.00000000000E+00  0.00000000000E+00  0.37851449267E+03  0.37851449267E+03  0.00000000000E+00 0. -1.
          1   -1    0    0  501    0 -0.00000000000E+00 -0.00000000000E+00 -0.14512769301E+04  0.14512769301E+04  0.00000000000E+00 0. -1.
         25    2    1    2    0    0  0.13418992909E+03 -0.25677131860E+02 -0.25994409881E+03  0.31916135495E+03  0.12500713504E+03 0.  0.
          2    1    1    2  501    0 -0.91405412121E+02 -0.85968938366E+02 -0.11479609930E+04  0.11547987051E+04  0.00000000000E+00 0. -1.
          1    1    1    2  502    0 -0.42784516973E+02  0.11164607023E+03  0.33514265442E+03  0.35583136273E+03  0.00000000000E+00 0. -1.
         22    1    3    3    0    0  0.11279353892E+03  0.32789251653E+02 -0.13085043531E+03  0.17583899985E+03  0.00000000000E+00 0.  1.
         22    1    3    3    0    0  0.21396390170E+02 -0.58466383512E+02 -0.12909366351E+03  0.14332235510E+03  0.00000000000E+00 0.  1.
</event>
<event>
 7    1  0.6122298E-006  0.2108679E+03  0.7818608E-02  0.1253052E+00
          2   -1    0    0  502    0  0.00000000000E+00  0.00000000000E+00  0.49348634237E+03  0.49348634237E+03  0.00000000000E+00 0. -1.
          1   -1    0    0  501    0 -0.00000000000E+00 -0.00000000000E+00 -0.14942627646E+04  0.14942627646E+04  0.00000000000E+00 0. -1.
         25    2    1    2    0    0 -0.23286578392E+03 -0.11708743762E+03 -0.46271150574E+03  0.54558526391E+03  0.12500160511E+03 0.  0.
          2    1    1    2  501    0  0.17807311388E+03  0.88491606536E+02 -0.97794825491E+03  0.99795971241E+03  0.00000000000E+00 0. -1.
          1    1    1    2  502    0  0.54792670036E+02  0.28595831089E+02  0.43988333843E+03  0.44420413063E+03  0.00000000000E+00 0. -1.
         22    1    3    3    0    0 -0.24846623181E+03 -0.11170427343E+03 -0.44009941487E+03  0.51759135234E+03  0.00000000000E+00 0.  1.
         22    1    3    3    0    0  0.15600447893E+02 -0.53831641991E+01 -0.22612090877E+02  0.27993911572E+02  0.00000000000E+00 0.  1.
</event>
<event>
 7    1  0.6122298E-006  0.3121168E+03  0.7818608E-02  0.1158761E+00
          2   -1    0    0  502    0  0.00000000000E+00  0.00000000000E+00  0.18392031974E+04  0.18392031974E+04  0.00000000000E+00 0. -1.
          1   -1    0    0  501    0 -0.00000000000E+00 -0.00000000000E+00 -0.64096431342E+03  0.64096431342E+03  0.00000000000E+00 0. -1.
         25    2    1    2    0    0  0.33949839259E+03  0.39015935434E+02  0.78551071987E+03  0.86569623684E+03  0.12498592580E+03 0.  0.
          2    1    1    2  501    0 -0.44930515858E+02 -0.10614038261E+03 -0.57248682957E+03  0.58397405945E+03  0.00000000000E+00 0. -1.
          1    1    1    2  502    0 -0.29456787673E+03  0.67124447180E+02  0.98521499368E+03  0.10304972145E+04  0.00000000000E+00 0. -1.
         22    1    3    3    0    0  0.48015561398E+01 -0.19793604034E+02  0.22028908812E+02  0.30001908697E+02  0.00000000000E+00 0.  1.
         22    1    3    3    0    0  0.33469683645E+03  0.58809539468E+02  0.76348181106E+03  0.83569432814E+03  0.00000000000E+00 0.  1.
</event>
<event>
 7    1  0.6122298E-006  0.1005045E+03  0.7818608E-02  0.1330156E+00
          2   -1    0    0  502    0  0.00000000000E+00  0.00000000000E+00  0.35121374420E+03  0.35121374420E+03  0.00000000000E+00 0. -1.
          1   -1    0    0  501    0 -0.00000000000E+00 -0.00000000000E+00 -0.18529173743E+04  0.18529173743E+04  0.00000000000E+00 0. -1.
         25    2    1    2    0    0  0.21267101933E+02  0.59423582215E+02 -0.31859808964E+02  0.14361184955E+03  0.12500345658E+03 0.  0.
          2    1    1    2  501    0  0.62916051739E+02  0.42978709227E+01 -0.17551611425E+04  0.17562936934E+04  0.00000000000E+00 0. -1.
          1    1    1    2  502    0 -0.84183153672E+02 -0.63721453137E+02  0.28531732137E+03  0.30422557556E+03  0.00000000000E+00 0. -1.
         22    1    3    3    0    0 -0.43639786083E+02  0.46450864507E+02  0.11111271384E+02  0.64696012973E+02  0.00000000000E+00 0.  1.
         22    1    3    3    0    0  0.64906888016E+02  0.12972717708E+02 -0.42971080347E+02  0.78915836579E+02  0.00000000000E+00 0.  1.
</event>
<event>
 7    1  0.6122298E-006  0.1431229E+03  0.7818608E-02  0.1357815E+00
          2   -1    0    0  502    0  0.00000000000E+00  0.00000000000E+00  0.98721491839E+03  0.98721491839E+03  0.00000000000E+00 0. -1.
          1   -1    0    0  501    0 -0.00000000000E+00 -0.00000000000E+00 -0.85011031022E+02  0.85011031022E+02  0.00000000000E+00 0. -1.
         25    2    1    2    0    0 -0.25247725993E+02 -0.11287358079E+03  0.92085186750E+02  0.19360653193E+03  0.12500365866E+03 0.  0.
          2    1    1    2  501    0 -0.24011253084E+02 -0.25325988518E+02 -0.16837922839E+02  0.38748698231E+02  0.00000000000E+00 0. -1.
          1    1    1    2  502    0  0.49258979077E+02  0.13819956931E+03  0.82695662345E+03  0.83987071925E+03  0.00000000000E+00 0. -1.
         22    1    3    3    0    0 -0.33480871508E+02 -0.11834274880E+03  0.24628330762E+02  0.12542938104E+03  0.00000000000E+00 0.  1.
         22    1    3    3    0    0  0.82331455147E+01  0.54691680142E+01  0.67456855988E+02  0.68177150891E+02  0.00000000000E+00 0.  1.
</event>
<event>
 7    1  0.6122298E-006  0.6779965E+02  0.7818608E-02  0.1515366E+00
          2   -1    0    0  502    0  0.00000000000E+00  0.00000000000E+00  0.14752996712E+04  0.14752996712E+04  0.00000000000E+00 0. -1.
          1   -1    0    0  501    0 -0.00000000000E+00 -0.00000000000E+00 -0.41638748831E+02  0.41638748831E+02  0.00000000000E+00 0. -1.
         25    2    1    2    0    0 -0.17125780220E+02  0.43333526941E+02  0.16150578369E+03  0.20947473549E+03  0.12499783894E+03 0.  0.
          2    1    1    2  501    0 -0.13129598544E+02  0.18252839352E+02 -0.91845757578E+01  0.24288040970E+02  0.00000000000E+00 0. -1.
          1    1    1    2  502    0  0.30255378764E+02 -0.61586366293E+02  0.12813397144E+04  0.12831756435E+04  0.00000000000E+00 0. -1.
         22    1    3    3    0    0  0.37139369277E+02  0.28940629057E+02  0.10319922806E+02  0.48201592995E+02  0.00000000000E+00 0.  1.
         22    1    3    3    0    0 -0.54265149497E+02  0.14392897884E+02  0.15118586089E+03  0.16127314250E+03  0.00000000000E+00 0.  1.
</event>
<event>
 7    1  0.6122298E-006  0.1025975E+03  0.7818608E-02  0.1290154E+00
          2   -1    0    0  502    0  0.00000000000E+00  0.00000000000E+00  0.25365820429E+04  0.25365820429E+04  0.00000000000E+00 0. -1.
          1   -1    0    0  501    0 -0.00000000000E+00 -0.00000000000E+00 -0.67619611947E+02  0.67619611947E+02  0.00000000000E+00 0. -1.
         25    2    1    2    0    0  0.13638243668E+03  0.10706466787E+03  0.40349701523E+03  0.45661283836E+03  0.12498972243E+03 0.  0.
          2    1    1    2  501    0 -0.52265477222E+02 -0.78575630103E+02  0.15421771900E+02  0.95622386520E+02  0.00000000000E+00 0. -1.
          1    1    1    2  502    0 -0.84116959459E+02 -0.28489037766E+02  0.20500436438E+04  0.20519664299E+04  0.00000000000E+00 0. -1.
         22    1    3    3    0    0  0.14796147570E+03  0.59496717445E+02  0.26019085231E+03  0.30517492902E+03  0.00000000000E+00 0.  1.
         22    1    3    3    0    0 -0.11579039022E+02  0.47567950423E+02  0.14330616293E+03  0.15143790934E+03  0.00000000000E+00 0.  1.
</event>
<event>
 7    1  0.6122298E-006  0.6653418E+02  0.7818608E-02  0.1389445E+00
          2   -1    0    0  502    0  0.00000000000E+00  0.00000000000E+00  0.25653333230E+03  0.25653333230E+03  0.00000000000E+00 0. -1.
          1   -1    0    0  501    0 -0.00000000000E+00 -0.00000000000E+00 -0.25756188930E+03  0.25756188930E+03  0.00000000000E+00 0. -1.
         25    2    1    2    0    0 -0.53696839248E+02 -0.10228176235E+03  0.65367743614E+00  0.17020771100E+03  0.12500131253E+03 0.  0.
          2    1    1    2  501    0  0.44514061301E+02  0.45156565896E+02 -0.16172290709E+03  0.17370928523E+03  0.00000000000E+00 0. -1.
          1    1    1    2  502    0  0.91827779469E+01  0.57125196457E+02  0.16004067266E+03  0.17017822536E+03  0.00000000000E+00 0. -1.
         22    1    3    3    0    0 -0.23223667426E+02 -0.37714940229E+02 -0.61335205612E+02  0.75655554275E+02  0.00000000000E+00 0.  1.
         22    1    3    3    0    0 -0.30473171823E+02 -0.64566822124E+02  0.61988883049E+02  0.94552156727E+02  0.00000000000E+00 0.  1.
</event>
<event>
 7    1  0.6122298E-006  0.9403425E+02  0.7818608E-02  0.1377707E+00
          2   -1    0    0  502    0  0.00000000000E+00  0.00000000000E+00  0.47690330421E+03  0.47690330421E+03  0.00000000000E+00 0. -1.
          1   -1    0    0  501    0 -0.00000000000E+00 -0.00000000000E+00 -0.38125819714E+03  0.38125819714E+03  0.00000000000E+00 0. -1.
         25    2    1    2    0    0  0.12854144102E+03 -0.78098748715E+00  0.28012605004E+03  0.33259517598E+03  0.12500174068E+03 0.  0.
          2    1    1    2  501    0 -0.90185605225E+02  0.24367583287E+02 -0.34574001416E+03  0.35813877185E+03  0.00000000000E+00 0. -1.
          1    1    1    2  502    0 -0.38355835792E+02 -0.23586595800E+02  0.16125907119E+03  0.16742755353E+03  0.00000000000E+00 0. -1.
         22    1    3    3    0    0  0.13144117092E+03 -0.99301697035E+01  0.29016758336E+03  0.31870459067E+03  0.00000000000E+00 0. -1.
         22    1    3    3    0    0 -0.28997298987E+01  0.91491822164E+01 -0.10041533320E+02  0.13890585306E+02  0.00000000000E+00 0. -1.
</event>
<event>
 7    1  0.6122298E-006  0.1005674E+03  0.7818608E-02  0.1328087E+00
          2   -1    0    0  502    0  0.00000000000E+00  0.00000000000E+00  0.12610280902E+04  0.12610280902E+04  0.00000000000E+00 0. -1.
          1   -1    0    0  501    0 -0.00000000000E+00 -0.00000000000E+00 -0.19063042646E+03  0.19063042646E+03  0.00000000000E+00 0. -1.
         25    2    1    2    0    0  0.41853571898E+02 -0.73498558537E+02  0.29923032404E+03  0.33513806910E+03  0.12499991578E+03 0.  0.
          2    1    1    2  501    0 -0.56007061064E+02 -0.31346575028E+02 -0.16362376577E+03  0.17576158676E+03  0.00000000000E+00 0. -1.
          1    1    1    2  502    0  0.14153489165E+02  0.10484513357E+03  0.93479110550E+03  0.94075886082E+03  0.00000000000E+00 0. -1.
         22    1    3    3    0    0 -0.41053058842E+02 -0.36319761822E+02  0.15767531599E+03  0.16693107563E+03  0.00000000000E+00 0. -1.
         22    1    3    3    0    0  0.82906630741E+02 -0.37178796715E+02  0.14155500805E+03  0.16820699347E+03  0.00000000000E+00 0. -1.
</event>
<event>
 7    1  0.6122298E-006  0.9874835E+02  0.7818608E-02  0.1436241E+00
          2   -1    0    0  502    0  0.00000000000E+00  0.00000000000E+00  0.17641238158E+04  0.17641238158E+04  0.00000000000E+00 0. -1.
          1   -1    0    0  501    0 -0.00000000000E+00 -0.00000000000E+00 -0.12621440097E+04  0.12621440097E+04  0.00000000000E+00 0. -1.
         25    2    1    2    0    0  0.64924489726E+02 -0.42673774067E+02  0.12757616170E+03  0.19474745866E+03  0.12495861420E+03 0.  0.
          2    1    1    2  501    0  0.73942879486E+01 -0.26068037054E+02 -0.12268559574E+04  0.12271551484E+04  0.00000000000E+00 0. -1.
          1    1    1    2  502    0 -0.72318777674E+02  0.68741811121E+02  0.16012596017E+04  0.16043652185E+04  0.00000000000E+00 0. -1.
         22    1    3    3    0    0  0.14114377775E+02 -0.62759437079E+02  0.10003569707E+02  0.65100184403E+02  0.00000000000E+00 0.  1.
         22    1    3    3    0    0  0.50810111951E+02  0.20085663012E+02  0.11757259199E+03  0.12964727426E+03  0.00000000000E+00 0.  1.
</event>
